Title
81276
    1CHL1    C3    1   3.175   2.505  10.300 -0.0820 -0.7005 -0.1660
    1CHL1    H3    2   3.067   2.531  10.292 -0.0550 -0.4581  0.2198
    1CHL1    O3    3   3.223   2.521  10.432 -0.7697  0.3021  0.6121
    1CHL1   H3'    4   3.311   2.482  10.438 -0.3869  1.0042 -0.3456
    1CHL1    C4    5   3.193   2.360  10.261 -0.0075 -0.1174 -0.2971
    1CHL1   H4A    6   3.300   2.332  10.270  0.4912  2.0031  0.7526
    1CHL1   H4B    7   3.147   2.291  10.335 -1.6553 -0.3039 -1.4526
    1CHL1    C5    8   3.153   2.335  10.120 -1.0435  0.1331 -0.7741
    1CHL1    C6    9   3.071   2.235  10.081 -0.2888  0.8581 -0.1370
    1CHL1    H6   10   3.025   2.169  10.156  1.5623 -0.1399  0.1704
    1CHL1    C7   11   3.048   2.204   9.933  0.3754  0.7131 -0.0718
    1CHL1   H7A   12   3.058   2.098   9.902  1.1101  0.2774  1.6361
    1CHL1   H7B   13   2.952   2.253   9.904  1.5152  2.0510 -1.6883
    1CHL1    C8   14   3.148   2.277   9.833 -0.2865  0.2431 -0.3241
    1CHL1    H8   15   3.246   2.225   9.835 -0.1910  0.4413  2.0233
    1CHL1   C14   16   3.087   2.266   9.696  0.3398  0.3938 -1.1746
    1CHL1   H14   17   2.987   2.313   9.709  1.4364  2.2770  0.8313
    1CHL1   C15   18   3.055   2.130   9.643 -0.7153  0.0390 -0.3462
    1CHL1  H15A   19   3.139   2.058   9.657  2.1552  3.2034 -0.5850
    1CHL1  H15B   20   2.965   2.079   9.683 -0.5951 -0.8850 -1.2381
    1CHL1   C16   21   3.044   2.147   9.489 -0.3412 -0.1303 -0.0693
    1CHL1  H16A   22   3.106   2.066   9.445 -1.6850 -1.6474  0.7566
    1CHL1  H16B   23   2.938   2.132   9.461 -0.3043 -0.3802 -0.0743
    1CHL1   C17   24   3.080   2.296   9.459  0.1650  0.5717 -0.5948
    1CHL1   H17   25   2.984   2.351   9.470  0.3291  0.9225 -0.8914
    1CHL1   C13   26   3.162   2.341   9.578 -0.3148  0.7823  1.1590
    1CHL1   C18   27   3.306   2.282   9.563 -0.4315  0.4918 -0.0010
    1CHL1  H18A   28   3.355   2.285   9.662  0.3977 -2.3677 -0.2828
    1CHL1  H18B   29   3.301   2.176   9.531 -1.9894  0.5615 -0.0666
    1CHL1  H18C   30   3.368   2.338   9.490  1.8044 -1.6524  0.1967
    1CHL1   C12   31   3.177   2.491   9.622  1.0571  0.0177 -0.7037
    1CHL1  H12A   32   3.236   2.548   9.548  0.6727 -1.1266 -1.9111
    1CHL1  H12B   33   3.078   2.536   9.643  1.2877 -0.1648  0.8387
    1CHL1   C11   34   3.243   2.504   9.763  0.0385  0.2331 -0.5055
    1CHL1  H11A   35   3.351   2.482   9.748  0.2290  2.2003 -2.2024
    1CHL1  H11B   36   3.240   2.612   9.789  0.3263 -0.2270  1.5427
    1CHL1    C9   37   3.169   2.419   9.875 -0.1154 -0.9170  0.1368
    1CHL1    H9   38   3.066   2.461   9.883  0.2054 -0.2850  1.0268
    1CHL1   C10   39   3.228   2.426  10.020  0.5742  0.0891 -0.7660
    1CHL1   C19   40   3.381   2.383  10.013 -0.0678  0.3212  0.1811
    1CHL1  H19A   41   3.428   2.390  10.114 -3.2170  1.3073  1.6432
    1CHL1  H19B   42   3.384   2.277   9.981 -1.4840 -0.6305  3.0369
    1CHL1  H19C   43   3.434   2.446   9.938 -0.9979  0.3004 -0.4936
    1CHL1    C1   44   3.222   2.578  10.059  0.5026  0.1569 -0.1032
    1CHL1   H1A   45   3.298   2.637  10.004  0.4392  1.4654  1.1835
    1CHL1   H1B   46   3.125   2.625  10.031 -0.1101 -0.4753  0.9202
    1CHL1    C2   47   3.259   2.600  10.209  1.1249  0.2561  0.5778
    1CHL1   H2A   48   3.253   2.706  10.242  0.7622  0.2926  0.3995
    1CHL1   H2B   49   3.366   2.571  10.217  1.4007  0.9926 -0.4107
    1CHL1   C20   50   3.134   2.317   9.320 -0.2553  0.0761 -0.3168
    1CHL1   H20   51   3.227   2.256   9.311  0.8120  1.8130 -1.4235
    1CHL1   C21   52   3.156   2.464   9.288 -0.0685 -0.0507 -0.1810
    1CHL1  H21A   53   3.187   2.476   9.182 -0.7935 -3.1595 -0.7887
    1CHL1  H21B   54   3.237   2.509   9.349  0.5848 -3.3068  1.4628
    1CHL1  H21C   55   3.064   2.523   9.309  0.5362  0.4968  0.9681
    1CHL1   C22   56   3.035   2.254   9.216 -0.4991 -0.0076 -0.4155
    1CHL1  H22A   57   3.008   2.148   9.238 -3.2248  0.3108 -1.9446
    1CHL1  H22B   58   2.949   2.323   9.231  1.4031  2.6303 -1.4667
    1CHL1   C23   59   3.073   2.263   9.073 -0.2844 -0.1212  0.5771
    1CHL1  H23A   60   3.028   2.359   9.040  0.4208  0.5430  1.4924
    1CHL1  H23B   61   3.184   2.260   9.075 -0.3105 -2.5886 -0.8020
    1CHL1   C24   62   3.010   2.158   8.989  0.0364  0.4793 -0.6572
    1CHL1  H24A   63   3.030   2.055   9.028 -3.3361  0.6157  1.6509
    1CHL1  H24B   64   2.901   2.171   8.972  0.4690  1.3432 -2.9106
    1CHL1   C25   65   3.084   2.149   8.854 -0.1493 -0.0210 -0.6238
    1CHL1   H25   66   3.190   2.130   8.880 -0.4139 -2.3151 -1.0842
    1CHL1   C26   67   3.041   2.023   8.775  0.1245 -0.1484  0.1945
    1CHL1  H26A   68   3.064   1.931   8.833 -0.5328  0.6531  1.7691
    1CHL1  H26B   69   2.931   2.031   8.763  0.2866  1.7684 -0.0710
    1CHL1  H26C   70   3.090   2.019   8.675  1.7277  0.5023  0.9448
    1CHL1   C27   71   3.062   2.276   8.759 -0.4233 -0.2243 -1.0083
    1CHL1  H27A   72   3.094   2.370   8.810 -1.0976 -1.2755  1.4590
    1CHL1  H27B   73   3.115   2.264   8.663  1.4128 -2.9637  0.2850
    1CHL1  H27C   74   2.957   2.284   8.724 -0.4254 -2.3870 -1.5289
    2CHL1    C3   75   4.397   6.402  10.003 -0.0410 -0.7142 -0.2306
    2CHL1    H3   76   4.495   6.356   9.977  0.1258 -1.5809  1.8169
    2CHL1    O3   77   4.389   6.429  10.148 -0.0755  0.0425 -0.1114
    2CHL1   H3'   78   4.307   6.478  10.148  0.6441  1.2798 -1.5219
    2CHL1    C4   79   4.403   6.536   9.932 -0.0255  0.4759  0.0387
    2CHL1   H4A   80   4.310   6.586   9.966 -0.3940 -0.4942  0.4664
    2CHL1   H4B   81   4.488   6.598   9.968  1.1811  0.3625 -2.5050
    2CHL1    C5   82   4.407   6.527   9.786  0.2287 -0.1716 -0.5337
    2CHL1    C6   83   4.510   6.571   9.714 -0.3691  0.8906 -0.0628
    2CHL1    H6   84   4.592   6.619   9.769  0.7297 -0.4164 -0.5473
    2CHL1    C7   85   4.520   6.580   9.565  0.4275  0.9970 -0.8165
    2CHL1   H7A   86   4.539   6.682   9.526  1.9805  0.3297 -1.8622
    2CHL1   H7B   87   4.600   6.512   9.530 -0.1526 -0.0192 -0.2088
    2CHL1    C8   88   4.390   6.541   9.500 -0.0013 -0.2662  0.2387
    2CHL1    H8   89   4.325   6.632   9.506 -0.0451 -0.1853 -1.1434
    2CHL1   C14   90   4.429   6.497   9.362  0.4961  0.0424  0.0932
    2CHL1   H14   91   4.483   6.401   9.367 -0.1202 -0.3121 -0.0128
    2CHL1   C15   92   4.499   6.610   9.274  0.2952 -0.4553 -0.1746
    2CHL1  H15A   93   4.443   6.700   9.305 -1.0015 -1.1342 -0.4881
    2CHL1  H15B   94   4.605   6.629   9.300  0.0618 -0.0522  0.4715
    2CHL1   C16   95   4.480   6.562   9.131 -0.4290 -0.2903 -0.2063
    2CHL1  H16A   96   4.438   6.644   9.069 -1.3209  0.7584  1.7111
    2CHL1  H16B   97   4.571   6.524   9.081 -0.3239  1.3594 -1.3125
    2CHL1   C17   98   4.379   6.442   9.143 -0.2026  0.5085  0.0826
    2CHL1   H17   99   4.446   6.356   9.162  1.8000  1.7987 -0.9415
    2CHL1   C13  100   4.309   6.455   9.275 -1.1994  1.3846  0.6902
    2CHL1   C18  101   4.200   6.565   9.258 -0.5137  0.5908 -0.0373
    2CHL1  H18A  102   4.121   6.536   9.185 -0.5208  0.8466 -0.1313
    2CHL1  H18B  103   4.150   6.596   9.352  0.0570  0.0406  0.4460
    2CHL1  H18C  104   4.246   6.650   9.203  2.8156 -1.4276 -0.4580
    2CHL1   C12  105   4.246   6.325   9.338 -0.6583  0.0907  0.6957
    2CHL1  H12A  106   4.148   6.290   9.300 -0.2441 -0.6777  0.3156
    2CHL1  H12B  107   4.318   6.240   9.344 -1.6385 -0.6690  1.8420
    2CHL1   C11  108   4.214   6.358   9.488  0.0140 -0.3275  0.3628
    2CHL1  H11A  109   4.132   6.432   9.485  1.0299  0.7777 -1.5176
    2CHL1  H11B  110   4.185   6.259   9.530 -1.2863 -0.1320 -0.0505
    2CHL1    C9  111   4.323   6.421   9.568 -0.3488  0.5692 -0.4495
    2CHL1    H9  112   4.394   6.336   9.569 -2.0304 -0.8890  1.4179
    2CHL1   C10  113   4.292   6.442   9.722 -0.3576  0.6967  0.7388
    2CHL1   C19  114   4.159   6.522   9.725  0.0990  0.1961 -0.3185
    2CHL1  H19A  115   4.177   6.614   9.665  2.0769 -0.9350 -1.4908
    2CHL1  H19B  116   4.085   6.452   9.681  1.3347 -1.2569 -0.1205
    2CHL1  H19C  117   4.126   6.538   9.830  0.6392  1.7404 -0.3583
    2CHL1    C1  118   4.280   6.303   9.798 -0.0135  0.4962 -0.5123
    2CHL1   H1A  119   4.190   6.248   9.762 -0.8726  2.5486 -1.6397
    2CHL1   H1B  120   4.369   6.242   9.773 -0.6206 -0.9259  0.6951
    2CHL1    C2  121   4.273   6.322   9.957  0.5772  0.2739 -0.3642
    2CHL1   H2A  122   4.295   6.229  10.013 -0.5954  0.4767  0.4608
    2CHL1   H2B  123   4.180   6.369   9.997  1.8610  0.8624  2.0182
    2CHL1   C20  124   4.302   6.409   9.017 -0.4268 -0.8491  0.0663
    2CHL1   H20  125   4.221   6.345   9.057  0.0841 -0.1867  2.1782
    2CHL1   C21  126   4.395   6.319   8.935  0.0152  0.5676  0.3197
    2CHL1  H21A  127   4.489   6.375   8.915 -0.7237  1.0442 -2.0964
    2CHL1  H21B  128   4.356   6.285   8.837  0.8795 -0.9906  0.5094
    2CHL1  H21C  129   4.443   6.236   8.991  4.0449  1.3897 -1.7486
    2CHL1   C22  130   4.235   6.522   8.934 -0.2797 -0.0484 -0.5484
    2CHL1  H22A  131   4.182   6.598   8.995  1.1541  0.0510  0.5985
    2CHL1  H22B  132   4.309   6.586   8.880 -0.0379  0.0746 -0.0820
    2CHL1   C23  133   4.135   6.460   8.831 -0.2102  0.7464 -0.3029
    2CHL1  H23A  134   4.201   6.387   8.779  0.7865  1.0932  0.4352
    2CHL1  H23B  135   4.059   6.404   8.890 -1.1310  1.0203 -1.2194
    2CHL1   C24  136   4.053   6.560   8.746  0.5739 -0.7851 -0.3243
    2CHL1  H24A  137   3.977   6.623   8.798  3.3957  2.3645  0.1199
    2CHL1  H24B  138   4.125   6.627   8.695 -0.6737  1.7584  1.1233
    2CHL1   C25  139   3.971   6.488   8.638  0.0778 -0.0498 -0.1066
    2CHL1   H25  140   3.919   6.408   8.694  1.4711  0.5544  2.1122
    2CHL1   C26  141   3.865   6.575   8.577 -0.6319 -0.2229 -0.5714
    2CHL1  H26A  142   3.821   6.648   8.648  0.8015 -1.7278  1.9403
    2CHL1  H26B  143   3.911   6.623   8.488  1.0001  1.2425  0.9997
    2CHL1  H26C  144   3.789   6.502   8.542 -1.4046 -0.7551  2.0969
    2CHL1   C27  145   4.066   6.413   8.537  0.6825  0.9227 -0.0154
    2CHL1  H27A  146   4.005   6.343   8.475  0.1221  1.2754  0.1340
    2CHL1  H27B  147   4.116   6.490   8.474  1.9717  1.5388  1.7363
    2CHL1  H27C  148   4.145   6.350   8.584 -0.1597 -0.1988 -0.0880
    3CHL1    C3  149   4.928   6.181  10.171 -0.0570 -0.3518  0.1043
    3CHL1    H3  150   4.913   6.291  10.179 -0.7597 -0.3771 -0.8128
    3CHL1    O3  151   4.937   6.138  10.305 -0.5118  0.5782 -0.1017
    3CHL1   H3'  152   4.863   6.080  10.326 -0.8003  1.3730  1.1146
    3CHL1    C4  153   4.811   6.102  10.108  0.4385  0.2576  0.3556
    3CHL1   H4A  154   4.804   5.998  10.144  0.1404 -0.3186 -1.2926
    3CHL1   H4B  155   4.720   6.141  10.159  0.2584 -0.9130  0.9366
    3CHL1    C5  156   4.801   6.121   9.959 -0.6102  0.0048  0.1621
    3CHL1    C6  157   4.690   6.161   9.897 -0.4090  0.2525 -0.1934
    3CHL1    H6  158   4.601   6.171   9.961 -0.0829 -4.3146  1.1690
    3CHL1    C7  159   4.671   6.180   9.749 -0.0237 -0.2354 -0.6478
    3CHL1   H7A  160   4.571   6.142   9.717  0.4231 -1.4965 -0.5635
    3CHL1   H7B  161   4.680   6.289   9.730  1.1720 -0.0958  0.7159
    3CHL1    C8  162   4.780   6.104   9.670 -0.6828  0.4306 -0.4624
    3CHL1    H8  163   4.766   5.994   9.672 -3.8586  0.7818 -1.1780
    3CHL1   C14  164   4.784   6.156   9.528 -0.4569 -0.5154 -0.1450
    3CHL1   H14  165   4.807   6.264   9.532  2.5332 -1.0759 -0.2872
    3CHL1   C15  166   4.654   6.154   9.457  0.8113  0.2632 -0.1633
    3CHL1  H15A  167   4.607   6.053   9.459  0.9367  0.2144  1.3465
    3CHL1  H15B  168   4.579   6.227   9.494  0.1522  0.3985 -1.7379
    3CHL1   C16  169   4.689   6.180   9.312 -0.4037 -0.4814  0.9134
    3CHL1  H16A  170   4.641   6.104   9.247  0.3622 -0.6584  0.5550
    3CHL1  H16B  171   4.647   6.277   9.278 -1.9767 -2.3941 -2.9448
    3CHL1   C17  172   4.842   6.181   9.301 -0.0478 -0.3901 -0.5194
    3CHL1   H17  173   4.871   6.286   9.322  1.8381 -0.9275 -0.3010
    3CHL1   C13  174   4.880   6.103   9.426 -0.4871  0.4959  0.7172
    3CHL1   C18  175   4.871   5.951   9.401  0.5651 -0.2226  0.2793
    3CHL1  H18A  176   4.773   5.922   9.357  0.0308  1.9786 -0.0485
    3CHL1  H18B  177   4.957   5.931   9.334 -1.5737  0.7176 -2.8823
    3CHL1  H18C  178   4.881   5.889   9.492 -0.1801  1.0284  1.2384
    3CHL1   C12  179   5.021   6.136   9.485 -0.5446 -0.2781  0.0135
    3CHL1  H12A  180   5.108   6.100   9.426 -0.4399  0.6210 -0.3926
    3CHL1  H12B  181   5.031   6.247   9.485  0.2486 -0.3417 -1.3004
    3CHL1   C11  182   5.034   6.098   9.634  0.1099  0.0977 -0.1626
    3CHL1  H11A  183   5.049   5.989   9.649  0.7576 -0.0187 -1.5869
    3CHL1  H11B  184   5.121   6.149   9.680 -0.1042  0.8797 -0.6036
    3CHL1    C9  185   4.918   6.143   9.728  0.0642 -0.5039  0.8689
    3CHL1    H9  186   4.925   6.254   9.720  0.8344 -0.6707 -1.1713
    3CHL1   C10  187   4.928   6.106   9.878 -0.4960  0.7503  0.1699
    3CHL1   C19  188   4.962   5.953   9.881  0.0535  0.0031 -0.1627
    3CHL1  H19A  189   4.908   5.887   9.810 -1.3230 -1.5096  2.2048
    3CHL1  H19B  190   5.072   5.943   9.869 -0.0286  1.1269 -2.0916
    3CHL1  H19C  191   4.941   5.904   9.979  2.7652 -1.0331 -0.0566
    3CHL1    C1  192   5.043   6.180   9.956  0.7315 -0.2710 -1.1157
    3CHL1   H1A  193   5.140   6.161   9.906  1.3706 -1.1980  0.4573
    3CHL1   H1B  194   5.029   6.287   9.928 -0.9705 -0.3670 -0.6735
    3CHL1    C2  195   5.057   6.150  10.100 -0.4181  0.3875 -0.1764
    3CHL1   H2A  196   5.142   6.203  10.148  1.6873 -3.0380  0.0279
    3CHL1   H2B  197   5.088   6.044  10.116 -2.0788 -0.2227 -0.9857
    3CHL1   C20  198   4.905   6.142   9.168 -0.5447 -0.5199 -0.0226
    3CHL1   H20  199   4.900   6.032   9.157  1.5127 -0.3979 -2.7624
    3CHL1   C21  200   5.057   6.169   9.154  0.4590  0.0240  0.5821
    3CHL1  H21A  201   5.123   6.119   9.228 -0.7780  0.0627  1.7282
    3CHL1  H21B  202   5.069   6.278   9.174  4.1568 -0.5246  1.8177
    3CHL1  H21C  203   5.096   6.152   9.051  0.3450  3.0691 -0.0057
    3CHL1   C22  204   4.828   6.196   9.040 -0.0817  0.3707  0.6171
    3CHL1  H22A  205   4.723   6.162   9.056  0.0959 -0.6273 -0.2763
    3CHL1  H22B  206   4.837   6.306   9.024 -0.4713  0.2136 -0.7479
    3CHL1   C23  207   4.876   6.125   8.914  0.5223 -0.5111  0.6087
    3CHL1  H23A  208   4.980   6.158   8.890  0.5583 -0.2671  1.0945
    3CHL1  H23B  209   4.895   6.018   8.940 -2.0420 -0.9419  0.7955
    3CHL1   C24  210   4.780   6.121   8.790 -0.1763 -0.1503 -0.0233
    3CHL1  H24A  211   4.691   6.056   8.802  0.8095 -1.4875  0.0879
    3CHL1  H24B  212   4.747   6.225   8.769 -0.0062 -0.2710 -0.9157
    3CHL1   C25  213   4.859   6.066   8.670 -0.1792 -0.3501  0.2411
    3CHL1   H25  214   4.895   5.963   8.692  1.0411  0.1404  0.5897
    3CHL1   C26  215   4.756   6.076   8.551  0.4355  0.8172 -0.0915
    3CHL1  H26A  216   4.793   6.035   8.455  0.0599  1.3111 -0.4461
    3CHL1  H26B  217   4.663   6.027   8.585 -0.6523  2.3629 -0.7841
    3CHL1  H26C  218   4.715   6.177   8.531  0.3766  0.6994 -0.5444
    3CHL1   C27  219   4.981   6.146   8.634 -0.0962  0.1728 -0.2158
    3CHL1  H27A  220   4.959   6.252   8.610  0.2242  0.5941  1.2591
    3CHL1  H27B  221   5.055   6.141   8.717 -1.4833 -1.4712  0.9571
    3CHL1  H27C  222   5.035   6.108   8.545 -3.0275 -0.1107 -1.9269
    4CHL1    C3  223   4.319   1.229  10.478  0.1791 -0.0329 -0.1228
    4CHL1    H3  224   4.312   1.337  10.456 -1.3889 -0.3813 -1.4851
    4CHL1    O3  225   4.317   1.205  10.611 -0.2486  0.1506 -0.2583
    4CHL1   H3'  226   4.224   1.209  10.633 -0.2954 -1.4338 -0.0921
    4CHL1    C4  227   4.191   1.173  10.414  1.0695 -0.2545  0.3091
    4CHL1   H4A  228   4.185   1.065  10.437  1.3775 -0.4781 -0.6563
    4CHL1   H4B  229   4.111   1.228  10.469  0.9920 -0.0914  0.0311
    4CHL1    C5  230   4.189   1.191  10.264  0.1801 -0.4338  0.4704
    4CHL1    C6  231   4.080   1.242  10.205  0.2951  0.2832 -0.0820
    4CHL1    H6  232   3.992   1.277  10.261  0.0492 -1.1389  0.4342
    4CHL1    C7  233   4.063   1.264  10.056 -0.0585  0.5102 -0.7367
    4CHL1   H7A  234   3.960   1.231  10.032  0.3869 -2.0168  0.6696
    4CHL1   H7B  235   4.072   1.370  10.023 -1.9968  0.3489 -1.8804
    4CHL1    C8  236   4.166   1.174   9.975 -1.2171 -0.5843  0.1754
    4CHL1    H8  237   4.144   1.066   9.983 -0.5673 -0.6347  1.3357
    4CHL1   C14  238   4.161   1.210   9.833 -0.1113  0.0231  0.9441
    4CHL1   H14  239   4.202   1.313   9.844 -1.7481  0.9291 -1.0887
    4CHL1   C15  240   4.032   1.227   9.755 -0.4580  0.6654  0.2714
    4CHL1  H15A  241   3.964   1.141   9.775  0.8236 -0.8676 -1.8229
    4CHL1  H15B  242   3.986   1.322   9.792 -0.0450  0.4694  1.3191
    4CHL1   C16  243   4.081   1.229   9.610 -0.3114 -0.4307 -0.6652
    4CHL1  H16A  244   4.027   1.150   9.553  1.1221 -2.2231  0.3889
    4CHL1  H16B  245   4.055   1.323   9.558 -0.4706 -0.0923  0.0194
    4CHL1   C17  246   4.231   1.209   9.610 -0.6417  0.2971  0.6852
    4CHL1   H17  247   4.285   1.306   9.622  0.3294  0.0005 -1.1615
    4CHL1   C13  248   4.264   1.140   9.744 -0.3635 -0.0470 -0.1195
    4CHL1   C18  249   4.236   0.984   9.728 -0.5457  0.1265  0.3365
    4CHL1  H18A  250   4.314   0.949   9.657 -1.8844 -1.5024 -0.3886
    4CHL1  H18B  251   4.252   0.933   9.826 -0.3790  0.8182  0.6684
    4CHL1  H18C  252   4.137   0.965   9.681  0.2437 -0.1308 -1.2607
    4CHL1   C12  253   4.405   1.165   9.800 -0.7297  0.4888 -0.4928
    4CHL1  H12A  254   4.481   1.106   9.744  0.1232  0.4802  0.6669
    4CHL1  H12B  255   4.428   1.273   9.800  1.2450  0.1718  4.6011
    4CHL1   C11  256   4.411   1.129   9.948  0.4380  0.1118  0.2850
    4CHL1  H11A  257   4.402   1.019   9.956 -1.6619  0.2460  0.2183
    4CHL1  H11B  258   4.508   1.156   9.994  0.8642 -2.1424  0.7632
    4CHL1    C9  259   4.303   1.188  10.035  0.5486  0.3132 -1.0538
    4CHL1    H9  260   4.325   1.297  10.044  0.6208  0.0821  1.9534
    4CHL1   C10  261   4.315   1.150  10.194  0.6290 -0.0158  0.2292
    4CHL1   C19  262   4.308   0.995  10.201  0.6941 -0.2618  0.3532
    4CHL1  H19A  263   4.310   0.954  10.304 -0.3906  0.2602  0.5888
    4CHL1  H19B  264   4.212   0.967  10.154  0.5748 -0.0861  0.4910
    4CHL1  H19C  265   4.399   0.949  10.157 -0.9069 -0.3033 -3.0613
    4CHL1    C1  266   4.440   1.218  10.255 -0.3513 -0.7841  0.0828
    4CHL1   H1A  267   4.536   1.193  10.207 -0.2021 -2.2134  1.0901
    4CHL1   H1B  268   4.434   1.329  10.252 -0.3653 -0.8025 -0.5072
    4CHL1    C2  269   4.449   1.187  10.406  0.9366  0.5268  0.0836
    4CHL1   H2A  270   4.530   1.246  10.454  1.2459  0.1966 -0.0308
    4CHL1   H2B  271   4.465   1.080  10.430 -3.5723 -0.3215 -0.1324
    4CHL1   C20  272   4.278   1.152   9.472  1.0891  0.8074 -0.1700
    4CHL1   H20  273   4.243   1.047   9.460  0.6169  0.7837  1.3585
    4CHL1   C21  274   4.435   1.150   9.468 -0.8916 -0.2342 -0.2405
    4CHL1  H21A  275   4.470   1.246   9.512  1.9296 -1.7828  1.0074
    4CHL1  H21B  276   4.462   1.132   9.362 -0.3837  0.4625 -0.2342
    4CHL1  H21C  277   4.463   1.065   9.533  1.9024  0.5395 -0.3649
    4CHL1   C22  278   4.210   1.215   9.351 -0.3802 -0.9495 -0.1574
    4CHL1  H22A  279   4.249   1.167   9.259  2.0594  2.1318 -0.8230
    4CHL1  H22B  280   4.101   1.196   9.349 -0.1713 -1.9526 -2.4875
    4CHL1   C23  281   4.239   1.370   9.335 -0.2510  0.0992  0.5644
    4CHL1  H23A  282   4.193   1.425   9.420 -1.6598 -0.1319 -0.0375
    4CHL1  H23B  283   4.347   1.393   9.340 -0.1335  0.5335 -2.6532
    4CHL1   C24  284   4.187   1.419   9.200  0.2322  0.3722 -0.6211
    4CHL1  H24A  285   4.216   1.349   9.118 -1.0252 -2.1757  1.0358
    4CHL1  H24B  286   4.077   1.403   9.207  0.3190  0.7515  1.7136
    4CHL1   C25  287   4.222   1.565   9.168  0.0467 -0.1150 -0.5347
    4CHL1   H25  288   4.206   1.624   9.261  2.0260 -0.8721  0.3037
    4CHL1   C26  289   4.367   1.595   9.120 -0.1536 -0.5368  0.6658
    4CHL1  H26A  290   4.399   1.513   9.052  0.4884  0.7094 -0.5690
    4CHL1  H26B  291   4.364   1.692   9.066  2.2831 -1.0873 -0.5366
    4CHL1  H26C  292   4.443   1.607   9.200 -0.1591 -1.2120  0.7759
    4CHL1   C27  293   4.122   1.597   9.055 -0.3173 -0.0199  0.1261
    4CHL1  H27A  294   4.115   1.513   8.982 -2.2632 -0.1613  0.4430
    4CHL1  H27B  295   4.016   1.594   9.090  0.2703 -1.0173  1.9161
    4CHL1  H27C  296   4.137   1.697   9.011  0.4704 -0.8215 -1.4748
    5CHL1    C3  297   5.215   5.773  10.080 -0.4229  0.2456 -0.6549
    5CHL1    H3  298   5.122   5.827  10.050  0.3084  1.5204 -0.6855
    5CHL1    O3  299   5.198   5.742  10.216  0.1232 -0.3707 -0.2964
    5CHL1   H3'  300   5.266   5.678  10.238 -1.6863 -2.1865  0.0819
    5CHL1    C4  301   5.233   5.637  10.003 -0.1171  0.0909  0.0549
    5CHL1   H4A  302   5.323   5.589  10.049 -0.6285  0.6530  1.6819
    5CHL1   H4B  303   5.146   5.572  10.025 -1.9018  2.3945 -0.0853
    5CHL1    C5  304   5.254   5.670   9.863  0.1742 -0.1592  0.1174
    5CHL1    C6  305   5.162   5.621   9.775  0.0011  0.6052  0.3941
    5CHL1    H6  306   5.076   5.578   9.829  1.4794 -0.7505  1.7327
    5CHL1    C7  307   5.150   5.668   9.631  0.2418  0.0966  0.5194
    5CHL1   H7A  308   5.111   5.584   9.571  2.6140  1.0142 -2.4546
    5CHL1   H7B  309   5.070   5.744   9.621  0.5773 -0.0141 -3.5805
    5CHL1    C8  310   5.286   5.719   9.577  0.2605 -0.1085 -0.4044
    5CHL1    H8  311   5.350   5.628   9.565  1.1767  0.5449 -0.5469
    5CHL1   C14  312   5.265   5.791   9.448  0.4267 -0.3111  0.6454
    5CHL1   H14  313   5.203   5.881   9.469 -0.4554 -0.8454  0.3758
    5CHL1   C15  314   5.174   5.718   9.347 -0.2567 -1.2489 -0.3584
    5CHL1  H15A  315   5.205   5.612   9.334  2.1682 -0.6394  0.1727
    5CHL1  H15B  316   5.068   5.710   9.378 -0.2201 -1.1973 -0.2231
    5CHL1   C16  317   5.201   5.792   9.212  0.5175 -0.1888 -0.4428
    5CHL1  H16A  318   5.228   5.709   9.143 -0.4816 -0.5661 -0.3939
    5CHL1  H16B  319   5.111   5.845   9.174  0.1365 -1.3049 -1.1424
    5CHL1   C17  320   5.324   5.889   9.241  0.0881  0.1627  0.3892
    5CHL1   H17  321   5.279   5.988   9.265  1.3409  1.3823 -2.1476
    5CHL1   C13  322   5.386   5.836   9.372 -0.3351 -0.1564  0.6072
    5CHL1   C18  323   5.482   5.719   9.346 -0.2151  0.9511  0.0834
    5CHL1  H18A  324   5.426   5.647   9.282 -0.8409  1.2061  0.3396
    5CHL1  H18B  325   5.570   5.760   9.291 -1.6513  5.1115  0.7415
    5CHL1  H18C  326   5.514   5.686   9.447  4.7711  3.4976 -0.5273
    5CHL1   C12  327   5.453   5.940   9.459  0.1390 -0.4576 -0.4229
    5CHL1  H12A  328   5.551   5.973   9.418  1.8024  0.0302  3.7451
    5CHL1  H12B  329   5.400   6.038   9.461 -1.7517 -1.4812  2.3117
    5CHL1   C11  330   5.472   5.891   9.603  0.4578 -0.4175  0.2164
    5CHL1  H11A  331   5.551   5.813   9.600  0.7967 -0.0860  0.5928
    5CHL1  H11B  332   5.504   5.978   9.663 -1.8145 -0.5167  1.6642
    5CHL1    C9  333   5.346   5.823   9.671  0.0339 -0.7002  0.0143
    5CHL1    H9  334   5.266   5.900   9.667  0.2128 -0.5085  0.0912
    5CHL1   C10  335   5.367   5.774   9.819 -0.0910  0.5013 -0.2229
    5CHL1   C19  336   5.498   5.694   9.838 -0.7349  0.8303 -0.2498
    5CHL1  H19A  337   5.512   5.688   9.948 -1.4135  0.7525 -0.1663
    5CHL1  H19B  338   5.488   5.593   9.793 -0.6265  0.4299  0.6184
    5CHL1  H19C  339   5.590   5.743   9.798  0.0695  0.1993  0.7968
    5CHL1    C1  340   5.375   5.893   9.914  0.3366  0.0185  0.6036
    5CHL1   H1A  341   5.475   5.940   9.923  0.4655 -0.0186 -0.5991
    5CHL1   H1B  342   5.308   5.973   9.876 -0.4900  0.5111  2.9808
    5CHL1    C2  343   5.338   5.862  10.064  0.4370  0.0361  0.4188
    5CHL1   H2A  344   5.335   5.961  10.114 -0.1897 -1.4577  3.3887
    5CHL1   H2B  345   5.423   5.807  10.111 -1.9162 -1.9698  2.4373
    5CHL1   C20  346   5.410   5.906   9.114  0.0702  0.0574  0.6349
    5CHL1   H20  347   5.460   5.811   9.087  0.0195  0.5249 -1.1162
    5CHL1   C21  348   5.524   6.006   9.139 -0.1531 -0.0726  0.0564
    5CHL1  H21A  349   5.602   5.965   9.207 -0.5077  1.4905  1.4544
    5CHL1  H21B  350   5.485   6.099   9.187 -0.5345 -0.4099  0.4026
    5CHL1  H21C  351   5.565   6.033   9.039  0.3106  0.1866  0.3119
    5CHL1   C22  352   5.335   5.951   8.988 -0.3113  0.3429  0.3687
    5CHL1  H22A  353   5.237   5.902   8.969 -0.2315  0.5816 -0.6690
    5CHL1  H22B  354   5.311   6.060   8.989 -1.9552 -0.0103 -0.1087
    5CHL1   C23  355   5.415   5.936   8.855 -0.9110  0.2057  0.4918
    5CHL1  H23A  356   5.512   5.991   8.860 -1.4763  1.3084 -0.5596
    5CHL1  H23B  357   5.436   5.831   8.825  1.3513  0.6779  0.3300
    5CHL1   C24  358   5.341   6.007   8.739 -0.3865  0.1199  0.1813
    5CHL1  H24A  359   5.240   5.967   8.714  0.1167 -0.3535 -1.1523
    5CHL1  H24B  360   5.335   6.113   8.773 -2.0435 -0.0384  0.4297
    5CHL1   C25  361   5.421   5.996   8.611  0.4033  0.5817  0.6038
    5CHL1   H25  362   5.465   5.894   8.618 -0.4396  0.2724  1.5125
    5CHL1   C26  363   5.332   6.003   8.491  0.0620 -0.2835 -1.2082
    5CHL1  H26A  364   5.389   5.950   8.412  2.1502  2.1337 -1.3877
    5CHL1  H26B  365   5.236   5.947   8.500 -0.2336  0.1414 -1.6807
    5CHL1  H26C  366   5.302   6.109   8.472 -1.7737 -0.6544 -0.5313
    5CHL1   C27  367   5.532   6.098   8.602  0.3097 -0.3509 -0.4364
    5CHL1  H27A  368   5.507   6.206   8.614 -0.4508 -0.7873  2.0963
    5CHL1  H27B  369   5.609   6.073   8.678 -1.6977 -0.3565  1.6318
    5CHL1  H27C  370   5.581   6.088   8.503 -0.6262 -1.0404 -0.8354
    6CHL1    C3  371   3.914   3.085  10.339  0.2389 -0.1382  0.0974
    6CHL1    H3  372   3.945   2.979  10.346 -2.6264 -1.0491 -0.3103
    6CHL1    O3  373   3.894   3.136  10.475  0.1497  0.1934  0.0644
    6CHL1   H3'  374   3.888   3.232  10.474 -0.0236  0.1808 -0.7583
    6CHL1    C4  375   4.017   3.171  10.269  0.6465  0.0858 -0.9818
    6CHL1   H4A  376   3.976   3.274  10.284  0.0676 -0.5072  1.6678
    6CHL1   H4B  377   4.109   3.161  10.331  0.0697 -0.6230 -0.2339
    6CHL1    C5  378   4.029   3.117  10.128 -0.0272  0.1072 -0.0331
    6CHL1    C6  379   4.149   3.075  10.076  0.2790 -0.3960  0.4649
    6CHL1    H6  380   4.237   3.089  10.141 -1.0391 -0.6759  2.3440
    6CHL1    C7  381   4.168   3.036   9.928  0.3967  0.0968  0.3416
    6CHL1   H7A  382   4.258   3.082   9.881 -0.3038 -0.8259 -1.9827
    6CHL1   H7B  383   4.190   2.927   9.920  0.2237  0.1593 -1.0795
    6CHL1    C8  384   4.047   3.070   9.831  0.0962  0.2618  0.0424
    6CHL1    H8  385   4.050   3.181   9.819  0.1646  0.4909  1.9521
    6CHL1   C14  386   4.059   2.994   9.703 -0.0414  0.2460  0.0247
    6CHL1   H14  387   4.039   2.887   9.729  0.9195 -0.1965 -1.0072
    6CHL1   C15  388   4.188   3.000   9.624 -0.3911 -0.0242  0.1686
    6CHL1  H15A  389   4.237   3.099   9.625 -4.3935  2.0353  1.9707
    6CHL1  H15B  390   4.260   2.926   9.668 -0.7386  0.2340  1.1877
    6CHL1   C16  391   4.147   2.972   9.484 -0.1228  0.1909  0.0767
    6CHL1  H16A  392   4.166   3.056   9.413 -0.5554 -0.3146 -0.6467
    6CHL1  H16B  393   4.199   2.881   9.447  0.9032  0.4229  0.9092
    6CHL1   C17  394   3.996   2.945   9.484  0.5494  0.3343  0.0303
    6CHL1   H17  395   3.986   2.839   9.515  3.4358 -0.3731 -1.2310
    6CHL1   C13  396   3.943   3.028   9.599  0.2190  0.8203  0.2966
    6CHL1   C18  397   3.946   3.180   9.559  0.6642  0.3832  0.1316
    6CHL1  H18A  398   3.922   3.246   9.644  1.3738  2.2851 -1.1197
    6CHL1  H18B  399   4.044   3.216   9.522  0.8015  1.8926  1.9393
    6CHL1  H18C  400   3.867   3.198   9.482  1.1398  1.0629 -0.2020
    6CHL1   C12  401   3.806   2.989   9.672  0.0738 -0.0903 -0.0887
    6CHL1  H12A  402   3.717   3.019   9.612 -1.3732 -0.8088  1.6685
    6CHL1  H12B  403   3.787   2.880   9.679 -1.8005  0.2973  1.1530
    6CHL1   C11  404   3.791   3.061   9.806  0.2761 -0.1133 -0.3680
    6CHL1  H11A  405   3.774   3.169   9.790 -1.1025 -0.3612 -0.6452
    6CHL1  H11B  406   3.691   3.035   9.848  1.6885 -1.8637  2.0138
    6CHL1    C9  407   3.915   3.048   9.900  0.0514  0.8183  1.1458
    6CHL1    H9  408   3.919   2.940   9.924 -0.0481  0.1806 -1.5862
    6CHL1   C10  409   3.902   3.118  10.039  0.2241  1.0794  0.6205
    6CHL1   C19  410   3.862   3.265  10.011  0.3215  0.3378  0.0229
    6CHL1  H19A  411   3.759   3.260   9.970  0.7567 -1.0224 -0.9459
    6CHL1  H19B  412   3.863   3.331  10.100  0.6969  0.1762  0.1421
    6CHL1  H19C  413   3.919   3.312   9.927 -0.3882  1.2151  0.0194
    6CHL1    C1  414   3.799   3.043  10.117 -0.1359 -0.6313 -0.5390
    6CHL1   H1A  415   3.700   3.039  10.068 -1.1296  0.0219  1.3881
    6CHL1   H1B  416   3.820   2.934  10.113  0.5199 -0.5229 -0.2373
    6CHL1    C2  417   3.781   3.092  10.262 -0.2610  0.2950  0.0181
    6CHL1   H2A  418   3.705   3.029  10.311  0.1978  1.6832  2.6040
    6CHL1   H2B  419   3.738   3.194  10.267 -1.8114 -0.3594 -0.0026
    6CHL1   C20  420   3.914   2.953   9.349 -0.0874  0.2088 -0.0784
    6CHL1   H20  421   3.923   3.054   9.304  3.1783  0.2655  0.5818
    6CHL1   C21  422   3.766   2.911   9.371 -0.2833 -0.0759  0.1230
    6CHL1  H21A  423   3.713   2.897   9.274 -0.4544 -0.3218  0.2494
    6CHL1  H21B  424   3.694   2.986   9.409  0.2357 -0.4081  1.7958
    6CHL1  H21C  425   3.755   2.822   9.436 -0.8786  0.9597  1.4610
    6CHL1   C22  426   3.972   2.856   9.237  0.6944 -0.1517  0.5087
    6CHL1  H22A  427   4.083   2.859   9.242  0.6537  1.7132  0.6171
    6CHL1  H22B  428   3.929   2.755   9.253  1.3450 -0.3848  0.7737
    6CHL1   C23  429   3.944   2.921   9.096 -0.4112 -0.0969  0.0360
    6CHL1  H23A  430   3.835   2.906   9.079 -0.2071  0.0430 -1.5108
    6CHL1  H23B  431   3.966   3.030   9.104 -1.0856 -0.0587  1.5436
    6CHL1   C24  432   4.028   2.860   8.980  0.1737  0.6252  0.0933
    6CHL1  H24A  433   4.019   2.921   8.888  2.6315  1.7485  0.5650
    6CHL1  H24B  434   4.134   2.867   9.013  0.0609 -1.1653  0.9491
    6CHL1   C25  435   3.995   2.704   8.956 -0.3656  0.4278  0.2868
    6CHL1   H25  436   3.983   2.648   9.051 -0.0720 -0.4752 -0.2042
    6CHL1   C26  437   3.858   2.692   8.886 -0.4206  0.7726  0.0696
    6CHL1  H26A  438   3.769   2.703   8.952 -1.0268 -1.2004 -0.4025
    6CHL1  H26B  439   3.838   2.755   8.796 -1.0915  0.4867  0.0187
    6CHL1  H26C  440   3.848   2.592   8.839  0.5183  0.7130 -0.0159
    6CHL1   C27  441   4.095   2.637   8.861 -0.4114  0.4317  0.7042
    6CHL1  H27A  442   4.087   2.678   8.757 -1.2735 -3.2116 -0.7450
    6CHL1  H27B  443   4.197   2.642   8.902 -0.4457  0.5739  0.7725
    6CHL1  H27C  444   4.072   2.529   8.857  0.8433  0.1630  0.6020
    7CHL1    C3  445   6.352   6.676  10.349  0.0129  0.6827 -0.5918
    7CHL1    H3  446   6.404   6.773  10.360  0.2473  0.6529 -1.3836
    7CHL1    O3  447   6.357   6.614  10.476 -0.2517 -0.0594  0.4586
    7CHL1   H3'  448   6.302   6.537  10.461 -1.2923  1.2084 -2.6014
    7CHL1    C4  449   6.205   6.693  10.301  0.0909 -0.2275  0.0331
    7CHL1   H4A  450   6.161   6.592  10.312 -2.4147  0.7655 -0.3426
    7CHL1   H4B  451   6.148   6.763  10.367  0.6774 -0.6926  1.0440
    7CHL1    C5  452   6.197   6.751  10.160 -0.3379 -0.9031 -0.0900
    7CHL1    C6  453   6.139   6.865  10.125  0.4809 -0.1318 -0.6051
    7CHL1    H6  454   6.095   6.928  10.204 -0.7664 -1.0845 -0.5293
    7CHL1    C7  455   6.138   6.916   9.983  0.3905 -0.5458  0.1511
    7CHL1   H7A  456   6.032   6.943   9.965  0.5073 -0.0100  0.2573
    7CHL1   H7B  457   6.194   7.010   9.966 -1.6961  0.5420 -0.7822
    7CHL1    C8  458   6.173   6.814   9.870  0.0763 -0.3464  0.7161
    7CHL1    H8  459   6.076   6.760   9.862  0.2170 -1.0857  3.6101
    7CHL1   C14  460   6.205   6.882   9.740 -0.3548 -0.0723 -0.1072
    7CHL1   H14  461   6.303   6.931   9.755 -0.1381 -0.9439  1.3309
    7CHL1   C15  462   6.103   6.983   9.700 -0.0032  0.1508  0.0178
    7CHL1  H15A  463   6.000   6.943   9.694  0.7608 -1.5390 -3.6594
    7CHL1  H15B  464   6.117   7.075   9.761 -0.1718  0.1107  0.1134
    7CHL1   C16  465   6.143   7.007   9.548 -0.3761 -0.6830  0.4792
    7CHL1  H16A  466   6.051   7.006   9.485  1.0887 -2.1745 -1.7218
    7CHL1  H16B  467   6.192   7.104   9.527 -1.5142 -0.6513 -2.1961
    7CHL1   C17  468   6.241   6.888   9.506 -0.1669 -0.8038 -0.2814
    7CHL1   H17  469   6.347   6.919   9.519  0.6832 -1.8578 -4.1833
    7CHL1   C13  470   6.224   6.788   9.624 -0.2622  0.5652  0.7074
    7CHL1   C18  471   6.095   6.704   9.597  0.2370 -0.1399  0.1112
    7CHL1  H18A  472   6.066   6.643   9.685  2.0492  0.2535  0.9997
    7CHL1  H18B  473   6.012   6.768   9.559 -0.3853  0.2322  2.0244
    7CHL1  H18C  474   6.132   6.648   9.508 -0.6598 -0.5652  0.0025
    7CHL1   C12  475   6.350   6.703   9.660  0.3158 -0.4161 -0.5618
    7CHL1  H12A  476   6.355   6.623   9.584  1.4917 -1.3092  0.4303
    7CHL1  H12B  477   6.437   6.771   9.654 -1.8729  2.4670 -1.1649
    7CHL1   C11  478   6.328   6.633   9.792 -0.2055 -0.1551 -0.2731
    7CHL1  H11A  479   6.239   6.568   9.773 -0.2724  0.4364 -2.0958
    7CHL1  H11B  480   6.410   6.562   9.817 -2.4778 -1.8064  2.9882
    7CHL1    C9  481   6.289   6.728   9.916  0.3135  0.3920 -0.3335
    7CHL1    H9  482   6.376   6.795   9.930  3.0717 -3.0278 -0.3779
    7CHL1   C10  483   6.273   6.659  10.058 -0.0159 -0.0435 -0.1312
    7CHL1   C19  484   6.198   6.521  10.032  1.2777  0.9337  0.1549
    7CHL1  H19A  485   6.095   6.540   9.996  0.4704 -2.0974  0.7298
    7CHL1  H19B  486   6.259   6.454   9.968 -0.6948  0.0401 -0.8311
    7CHL1  H19C  487   6.187   6.469  10.130  0.6565  0.4003 -0.1906
    7CHL1    C1  488   6.417   6.638  10.111 -0.3419 -0.6649  0.2097
    7CHL1   H1A  489   6.462   6.574  10.032 -0.7835 -0.2343 -0.3994
    7CHL1   H1B  490   6.464   6.738  10.120  1.1761 -1.2768 -0.7518
    7CHL1    C2  491   6.419   6.581  10.255  0.0167  0.4951 -0.4643
    7CHL1   H2A  492   6.522   6.562  10.294 -0.0491  0.7299 -0.1767
    7CHL1   H2B  493   6.365   6.484  10.255 -1.5177  1.3292 -0.8900
    7CHL1   C20  494   6.239   6.837   9.361 -0.6742  1.0746  0.3410
    7CHL1   H20  495   6.153   6.770   9.343 -1.3798  1.9758  0.3043
    7CHL1   C21  496   6.367   6.762   9.330 -1.1146 -0.3009 -0.1427
    7CHL1  H21A  497   6.358   6.674   9.398  1.6846 -1.4872 -1.2582
    7CHL1  H21B  498   6.455   6.818   9.366 -0.8619 -0.7808 -0.0117
    7CHL1  H21C  499   6.370   6.716   9.229  1.9620 -1.4326  0.4120
    7CHL1   C22  500   6.214   6.952   9.263 -0.0578 -0.9807  0.1953
    7CHL1  H22A  501   6.123   7.006   9.298  0.5839  1.2965 -1.5180
    7CHL1  H22B  502   6.301   7.020   9.271 -1.8597  1.4082  0.0630
    7CHL1   C23  503   6.208   6.899   9.111  0.3931 -0.5694  0.0940
    7CHL1  H23A  504   6.299   6.846   9.076 -1.1427 -1.9815 -1.8807
    7CHL1  H23B  505   6.127   6.826   9.091  0.2848  0.5023 -3.7169
    7CHL1   C24  506   6.190   7.024   9.017  0.1180  0.1979 -0.0291
    7CHL1  H24A  507   6.082   7.051   9.022  0.2221  0.5321  0.4353
    7CHL1  H24B  508   6.253   7.100   9.069 -0.8369 -0.5487  2.3085
    7CHL1   C25  509   6.236   7.003   8.872  0.1774 -0.9328  0.4279
    7CHL1   H25  510   6.333   6.952   8.887  0.0216 -1.3947 -0.1228
    7CHL1   C26  511   6.147   6.909   8.796 -0.0448 -0.2261 -0.8373
    7CHL1  H26A  512   6.131   6.823   8.864  3.7528 -0.0287  0.4253
    7CHL1  H26B  513   6.049   6.961   8.784 -0.0835 -0.1277 -0.1221
    7CHL1  H26C  514   6.186   6.872   8.699 -0.7987  0.5281 -1.4392
    7CHL1   C27  515   6.240   7.146   8.802 -0.5067 -0.1616 -0.7938
    7CHL1  H27A  516   6.147   7.206   8.809  2.0396  3.6864  3.0585
    7CHL1  H27B  517   6.325   7.204   8.845  0.4407 -2.9525  1.3062
    7CHL1  H27C  518   6.268   7.135   8.695  0.1309 -1.0546 -0.5439
    8CHL1    C3  519   6.553   1.374  10.374  0.1356  0.2359 -0.3853
    8CHL1    H3  520   6.466   1.443  10.368 -0.9678 -1.2391 -1.6808
    8CHL1    O3  521   6.606   1.363  10.503 -0.5426 -0.2971 -0.2053
    8CHL1   H3'  522   6.534   1.338  10.562 -1.4398 -2.2667 -2.0596
    8CHL1    C4  523   6.512   1.231  10.331  0.0159 -0.4359 -0.1392
    8CHL1   H4A  524   6.603   1.168  10.336 -0.0807 -0.7771 -2.2079
    8CHL1   H4B  525   6.439   1.191  10.405  0.7675 -1.0351  0.2750
    8CHL1    C5  526   6.462   1.221  10.188  0.7933  0.6861  0.3589
    8CHL1    C6  527   6.350   1.153  10.162 -0.1170  0.7255 -0.0213
    8CHL1    H6  528   6.315   1.103  10.254 -2.3133  1.9440 -0.1638
    8CHL1    C7  529   6.286   1.144  10.026  0.3346 -0.3731 -0.4587
    8CHL1   H7A  530   6.247   1.041  10.010  0.5611 -0.8606  1.8532
    8CHL1   H7B  531   6.207   1.220  10.011  1.3216  0.5569 -0.9447
    8CHL1    C8  532   6.393   1.173   9.920 -0.3279 -0.4822  0.3295
    8CHL1    H8  533   6.460   1.085   9.922  0.1125 -0.1576  0.1183
    8CHL1   C14  534   6.328   1.183   9.781 -0.4456 -0.1687 -0.1361
    8CHL1   H14  535   6.257   1.268   9.793  1.7583  1.8753 -1.2828
    8CHL1   C15  536   6.265   1.055   9.721 -0.4884 -0.1586 -0.2102
    8CHL1  H15A  537   6.329   0.965   9.729 -1.0667 -0.9356 -3.4615
    8CHL1  H15B  538   6.170   1.034   9.774  0.3780 -2.2397  0.5401
    8CHL1   C16  539   6.258   1.070   9.574  0.5624 -0.1946 -0.4409
    8CHL1  H16A  540   6.294   0.988   9.509  0.9185  1.0910 -1.8960
    8CHL1  H16B  541   6.161   1.107   9.534  1.4538  1.9107 -0.7132
    8CHL1   C17  542   6.339   1.203   9.542  0.6100  0.7838 -0.2212
    8CHL1   H17  543   6.269   1.290   9.539  0.7740  0.8794 -1.3982
    8CHL1   C13  544   6.427   1.224   9.670 -0.2062  0.5884  0.2140
    8CHL1   C18  545   6.541   1.130   9.659  0.1060  0.1734 -1.2330
    8CHL1  H18A  546   6.507   1.027   9.635 -0.5125  0.7567 -2.9362
    8CHL1  H18B  547   6.615   1.155   9.580  0.8223 -1.0213 -0.9434
    8CHL1  H18C  548   6.603   1.119   9.750 -1.8961 -1.1845  0.0217
    8CHL1   C12  549   6.467   1.367   9.696 -0.2432  0.0948  0.1983
    8CHL1  H12A  550   6.539   1.386   9.614 -0.8450 -2.0316 -0.8424
    8CHL1  H12B  551   6.382   1.438   9.699 -0.4307 -0.0550 -1.5878
    8CHL1   C11  552   6.538   1.379   9.832 -0.0280  0.6619 -0.9194
    8CHL1  H11A  553   6.641   1.353   9.801  0.2318  0.7335 -0.1383
    8CHL1  H11B  554   6.553   1.482   9.872 -0.5336  0.7573 -0.9602
    8CHL1    C9  555   6.466   1.307   9.950  0.3016  0.1765 -0.2348
    8CHL1    H9  556   6.376   1.369   9.969  0.6431 -0.0018  2.0181
    8CHL1   C10  557   6.545   1.296  10.082 -0.3693  0.6571  0.5557
    8CHL1   C19  558   6.672   1.201  10.056 -0.5271  0.0734  0.5071
    8CHL1  H19A  559   6.745   1.250   9.988 -0.2713 -2.3786 -1.0365
    8CHL1  H19B  560   6.730   1.174  10.148  1.2628 -2.0005 -1.1675
    8CHL1  H19C  561   6.656   1.097  10.019 -1.8482 -0.1230  1.6096
    8CHL1    C1  562   6.607   1.429  10.131 -0.6326  0.3085 -0.2290
    8CHL1   H1A  563   6.678   1.474  10.058 -1.8358 -0.4790 -1.9245
    8CHL1   H1B  564   6.530   1.509  10.136  0.7001  1.6384 -0.7868
    8CHL1    C2  565   6.661   1.426  10.272  0.2158  0.5171 -0.2101
    8CHL1   H2A  566   6.700   1.528  10.293  2.2898 -0.3056  0.0635
    8CHL1   H2B  567   6.748   1.358  10.287  0.5232  1.1472  0.8751
    8CHL1   C20  568   6.407   1.195   9.401 -0.7102 -0.0374 -0.7737
    8CHL1   H20  569   6.465   1.100   9.395 -1.3949 -0.4479 -1.0032
    8CHL1   C21  570   6.497   1.323   9.373  0.0889  0.4328 -0.3528
    8CHL1  H21A  571   6.448   1.419   9.400 -1.4956 -0.3439 -0.4030
    8CHL1  H21B  572   6.532   1.324   9.268 -0.7949 -3.0147 -0.7583
    8CHL1  H21C  573   6.585   1.311   9.440  0.6217  1.1794 -0.9194
    8CHL1   C22  574   6.299   1.198   9.285  0.2817  0.1587  0.7852
    8CHL1  H22A  575   6.205   1.161   9.332  0.4449  0.6682  1.5168
    8CHL1  H22B  576   6.279   1.305   9.266  2.6610  0.4378 -0.4465
    8CHL1   C23  577   6.333   1.132   9.145 -0.2111 -0.3768 -0.2172
    8CHL1  H23A  578   6.442   1.146   9.126  0.0344 -1.3779  0.4262
    8CHL1  H23B  579   6.317   1.022   9.144 -1.8613 -0.1784 -4.0758
    8CHL1   C24  580   6.258   1.189   9.032  0.1012 -0.3951 -0.0955
    8CHL1  H24A  581   6.151   1.193   9.062 -0.1645  1.7661 -1.2551
    8CHL1  H24B  582   6.294   1.294   9.040 -1.2652  0.2622 -2.0543
    8CHL1   C25  583   6.278   1.114   8.895  0.2824  0.0295 -0.5745
    8CHL1   H25  584   6.249   1.007   8.900 -1.2783  0.2924 -3.0268
    8CHL1   C26  585   6.168   1.163   8.795  0.0014 -0.0598  0.2773
    8CHL1  H26A  586   6.170   1.274   8.791 -2.6622  0.0883  1.9526
    8CHL1  H26B  587   6.194   1.118   8.697  0.4709 -0.4349  0.5735
    8CHL1  H26C  588   6.069   1.128   8.831  0.3687 -0.6076  0.7684
    8CHL1   C27  589   6.423   1.131   8.834 -0.0856  0.1063 -0.5171
    8CHL1  H27A  590   6.451   1.239   8.832 -0.9673  0.3413 -0.1813
    8CHL1  H27B  591   6.498   1.079   8.897  0.3620  0.6770 -0.5627
    8CHL1  H27C  592   6.438   1.081   8.736 -0.6287  0.2670 -0.6835
    9CHL1    C3  593   2.767   4.633  10.267  0.9177 -0.1872 -0.1260
    9CHL1    H3  594   2.863   4.686  10.252  2.0430 -2.0523  0.4414
    9CHL1    O3  595   2.755   4.612  10.408 -0.0808  0.4724  0.0544
    9CHL1   H3'  596   2.725   4.699  10.435  0.2780  0.6399 -0.0924
    9CHL1    C4  597   2.644   4.718  10.211 -0.2695 -0.3906 -0.1861
    9CHL1   H4A  598   2.550   4.669  10.245  0.4538 -2.2773 -0.8012
    9CHL1   H4B  599   2.643   4.816  10.263 -3.1914 -0.1803 -0.5596
    9CHL1    C5  600   2.643   4.734  10.061 -0.7228 -0.1878 -0.0986
    9CHL1    C6  601   2.628   4.849   9.993 -0.0832 -0.7479 -0.0241
    9CHL1    H6  602   2.595   4.931  10.058  0.7367 -2.2795  2.3970
    9CHL1    C7  603   2.626   4.857   9.841  0.3118  0.0971  0.3155
    9CHL1   H7A  604   2.557   4.938   9.810  0.1806  0.2267  0.9423
    9CHL1   H7B  605   2.729   4.889   9.814  1.4346 -2.3732  1.4856
    9CHL1    C8  606   2.601   4.722   9.766  0.6419  0.6654 -0.6566
    9CHL1    H8  607   2.493   4.698   9.778  0.1191  2.7421 -1.1128
    9CHL1   C14  608   2.638   4.726   9.624 -0.5454  0.3455  0.1170
    9CHL1   H14  609   2.746   4.751   9.618 -0.0537 -1.6929 -0.0960
    9CHL1   C15  610   2.552   4.833   9.545  0.0493 -0.2295  0.4880
    9CHL1  H15A  611   2.448   4.821   9.582 -0.3793  1.0334 -0.2524
    9CHL1  H15B  612   2.586   4.936   9.573 -1.7356  0.7362 -0.7893
    9CHL1   C16  613   2.568   4.792   9.397 -0.1378  0.3357  0.9838
    9CHL1  H16A  614   2.468   4.781   9.350 -0.5423 -0.2664  1.9683
    9CHL1  H16B  615   2.625   4.864   9.334  2.7401 -2.4676  0.2226
    9CHL1   C17  616   2.653   4.655   9.395  0.0398  0.5246  0.0977
    9CHL1   H17  617   2.762   4.677   9.393  0.3322 -0.8934  0.2387
    9CHL1   C13  618   2.624   4.598   9.541 -0.1703 -0.6261  0.0102
    9CHL1   C18  619   2.481   4.548   9.554 -0.3893 -0.3140 -0.3990
    9CHL1  H18A  620   2.460   4.457   9.494 -1.6613  0.1713 -0.6926
    9CHL1  H18B  621   2.463   4.508   9.656 -1.1264 -2.3292 -1.3037
    9CHL1  H18C  622   2.400   4.623   9.546  1.3483  2.1126  3.2465
    9CHL1   C12  623   2.715   4.498   9.612  0.1061 -1.0675  0.1157
    9CHL1  H12A  624   2.708   4.398   9.563 -2.2880 -0.6903 -0.3780
    9CHL1  H12B  625   2.818   4.537   9.604 -0.4732  0.0172 -2.5657
    9CHL1   C11  626   2.692   4.475   9.766 -0.6051  0.4013  0.4411
    9CHL1  H11A  627   2.595   4.423   9.781 -0.6105 -0.3193 -1.9869
    9CHL1  H11B  628   2.779   4.412   9.795  0.9850  1.2460 -2.3385
    9CHL1    C9  629   2.685   4.615   9.841  0.6309  0.0267  0.1820
    9CHL1    H9  630   2.785   4.662   9.836  0.9559 -0.8777 -2.3093
    9CHL1   C10  631   2.655   4.593   9.991  0.4870 -0.3806  0.1400
    9CHL1   C19  632   2.520   4.512  10.002  0.5527 -0.2083  0.0502
    9CHL1  H19A  633   2.489   4.536  10.106 -1.7424 -0.6159 -0.5164
    9CHL1  H19B  634   2.441   4.553   9.936  1.8964  0.1484 -1.3771
    9CHL1  H19C  635   2.526   4.403   9.979  3.0655 -0.5461  2.0597
    9CHL1    C1  636   2.778   4.515  10.055 -1.3150  0.4756  0.0579
    9CHL1   H1A  637   2.780   4.412  10.012  0.9048  0.3481  0.4064
    9CHL1   H1B  638   2.874   4.560  10.022 -1.1548  0.2320  0.1895
    9CHL1    C2  639   2.780   4.499  10.209 -0.4805 -0.2548 -0.3148
    9CHL1   H2A  640   2.881   4.453  10.221 -0.0670 -0.1936 -3.2770
    9CHL1   H2B  641   2.689   4.443  10.237  0.0542 -0.6084  0.7630
    9CHL1   C20  642   2.626   4.554   9.275  0.2994 -0.2428 -0.6519
    9CHL1   H20  643   2.531   4.502   9.299  0.2219  0.2791  0.1893
    9CHL1   C21  644   2.745   4.456   9.262 -0.2448 -0.1472  0.4756
    9CHL1  H21A  645   2.723   4.381   9.184  0.8533  2.1766 -2.1463
    9CHL1  H21B  646   2.790   4.405   9.350  0.8933  0.1979  0.1140
    9CHL1  H21C  647   2.830   4.517   9.223  0.3388 -0.0766  1.8048
    9CHL1   C22  648   2.583   4.623   9.139 -0.8958  0.4824  0.1766
    9CHL1  H22A  649   2.508   4.704   9.149 -1.3178  0.3972 -2.0420
    9CHL1  H22B  650   2.686   4.656   9.111 -0.3194  0.0082  1.6995
    9CHL1   C23  651   2.510   4.528   9.044 -0.4823  0.2779 -0.6374
    9CHL1  H23A  652   2.562   4.430   9.038  0.3299  0.6270  0.5573
    9CHL1  H23B  653   2.407   4.502   9.078 -0.0206 -1.1970 -0.3182
    9CHL1   C24  654   2.513   4.566   8.897 -0.3285 -0.2253 -0.6923
    9CHL1  H24A  655   2.484   4.673   8.891 -1.2277 -0.4805 -0.9181
    9CHL1  H24B  656   2.619   4.563   8.863  0.2839 -1.2556  1.2438
    9CHL1   C25  657   2.429   4.487   8.806  0.7117  0.0148  0.9087
    9CHL1   H25  658   2.430   4.377   8.819 -0.0520 -0.1718 -0.5859
    9CHL1   C26  659   2.281   4.527   8.821  0.6929  0.9551 -0.1584
    9CHL1  H26A  660   2.215   4.484   8.743 -1.3507  1.9698  0.9728
    9CHL1  H26B  661   2.252   4.497   8.924 -0.7259 -0.0144 -0.8230
    9CHL1  H26C  662   2.284   4.638   8.824 -2.2181  1.0384  0.7212
    9CHL1   C27  663   2.473   4.520   8.662 -0.7178 -0.5393 -0.3029
    9CHL1  H27A  664   2.397   4.482   8.591 -0.8801  0.2632 -0.5713
    9CHL1  H27B  665   2.479   4.631   8.650  1.8274 -0.5945  0.1408
    9CHL1  H27C  666   2.571   4.472   8.645 -0.5348  0.2947 -1.7278
   10CHL1    C3  667   1.729   1.488  10.240 -0.2550  0.9950 -0.4393
   10CHL1    H3  668   1.691   1.386  10.218  0.2890  0.3820  1.3725
   10CHL1    O3  669   1.739   1.479  10.382  0.3332  0.0139 -0.5595
   10CHL1   H3'  670   1.768   1.565  10.414 -1.7694  0.7346 -0.5065
   10CHL1    C4  671   1.877   1.502  10.192  0.0429  1.1734 -0.7938
   10CHL1   H4A  672   1.932   1.587  10.238 -0.4658  0.8900  0.3601
   10CHL1   H4B  673   1.925   1.414  10.239 -0.6007  1.0890 -0.2858
   10CHL1    C5  674   1.866   1.498  10.039 -0.3047 -0.0143  0.5140
   10CHL1    C6  675   1.932   1.409   9.961  0.0604  0.0269  0.5123
   10CHL1    H6  676   2.001   1.342  10.015  0.5170  0.3767  0.3589
   10CHL1    C7  677   1.937   1.414   9.811  0.7845 -0.7406  0.3562
   10CHL1   H7A  678   2.038   1.397   9.769  0.7025  0.5209 -0.3681
   10CHL1   H7B  679   1.872   1.331   9.777  0.8627 -0.2793 -0.9249
   10CHL1    C8  680   1.889   1.545   9.756 -0.0777 -0.1276 -0.0437
   10CHL1    H8  681   1.967   1.623   9.767 -1.0472  0.8885 -0.3341
   10CHL1   C14  682   1.856   1.521   9.606  0.3960  0.6875 -0.6695
   10CHL1   H14  683   1.767   1.455   9.612  1.1944 -0.3542 -0.1468
   10CHL1   C15  684   1.966   1.461   9.517  0.1372 -0.1312  0.7080
   10CHL1  H15A  685   2.063   1.499   9.555 -0.3569  1.8984 -0.0129
   10CHL1  H15B  686   1.977   1.352   9.532 -0.0326 -0.2253  0.1700
   10CHL1   C16  687   1.933   1.501   9.378 -0.2466 -0.2013  1.1758
   10CHL1  H16A  688   2.013   1.558   9.327 -0.0815 -2.3039 -0.9771
   10CHL1  H16B  689   1.927   1.401   9.330  0.7738  0.5228 -0.4817
   10CHL1   C17  690   1.794   1.571   9.384  0.1363  0.8259 -0.0088
   10CHL1   H17  691   1.714   1.494   9.385  0.8210  0.1091  0.9314
   10CHL1   C13  692   1.788   1.641   9.526 -0.3278  0.5541 -0.1612
   10CHL1   C18  693   1.894   1.759   9.523 -0.2682 -0.7463 -0.1741
   10CHL1  H18A  694   1.938   1.787   9.621  1.0544 -1.7520 -0.4704
   10CHL1  H18B  695   1.982   1.728   9.464  1.3253  2.0260  0.6704
   10CHL1  H18C  696   1.848   1.850   9.479  0.3825 -0.8188 -1.0023
   10CHL1   C12  697   1.658   1.672   9.593 -0.3075  0.2335 -0.0937
   10CHL1  H12A  698   1.594   1.754   9.553  1.5269  1.0744 -1.3873
   10CHL1  H12B  699   1.593   1.582   9.590  1.2718 -0.9131 -0.8075
   10CHL1   C11  700   1.675   1.699   9.746  0.2067 -0.4423 -0.6139
   10CHL1  H11A  701   1.729   1.796   9.753  1.9255 -1.5964  3.8665
   10CHL1  H11B  702   1.569   1.701   9.779 -0.1436 -2.4266 -1.5909
   10CHL1    C9  703   1.754   1.589   9.824  0.0674  0.0933  0.7352
   10CHL1    H9  704   1.696   1.495   9.818 -1.3475  1.0646 -1.2516
   10CHL1   C10  705   1.779   1.614   9.976  0.2193 -0.5607  0.3389
   10CHL1   C19  706   1.852   1.743  10.017  0.4593 -0.5966  0.3540
   10CHL1  H19A  707   1.948   1.761   9.963 -0.1904 -2.0270 -1.2902
   10CHL1  H19B  708   1.787   1.819   9.969  1.0748 -2.1680 -3.1446
   10CHL1  H19C  709   1.856   1.761  10.127  1.5817 -0.5455  0.3121
   10CHL1    C1  710   1.641   1.611  10.043  0.0356 -0.0691  0.4457
   10CHL1   H1A  711   1.584   1.703  10.016  1.0693  0.3283 -0.4170
   10CHL1   H1B  712   1.577   1.529  10.003 -2.0224  1.0329  1.3561
   10CHL1    C2  713   1.642   1.601  10.201  0.3607 -0.1554  0.3430
   10CHL1   H2A  714   1.535   1.598  10.232  0.0371 -0.5118 -0.7918
   10CHL1   H2B  715   1.681   1.694  10.248  2.0060 -0.8314  0.3394
   10CHL1   C20  716   1.767   1.657   9.265 -0.2899 -0.0087 -0.2610
   10CHL1   H20  717   1.839   1.742   9.273  1.0984 -1.2974  1.2689
   10CHL1   C21  718   1.623   1.709   9.275  0.1894  0.0905  1.3646
   10CHL1  H21A  719   1.585   1.740   9.176  0.2548 -0.1665  1.2582
   10CHL1  H21B  720   1.622   1.802   9.336 -1.8022  0.2832  1.0795
   10CHL1  H21C  721   1.558   1.637   9.330 -1.9707  0.4681 -0.6256
   10CHL1   C22  722   1.788   1.586   9.133  0.3622  0.4034  0.2868
   10CHL1  H22A  723   1.754   1.664   9.061  2.5820  1.7018  0.5829
   10CHL1  H22B  724   1.895   1.570   9.109  0.6423  1.5312  0.7556
   10CHL1   C23  725   1.712   1.458   9.116  0.7503 -0.6184 -0.5813
   10CHL1  H23A  726   1.746   1.389   9.195  0.1918 -0.9237 -0.6043
   10CHL1  H23B  727   1.606   1.479   9.143  1.0222 -2.8050  2.4496
   10CHL1   C24  728   1.723   1.405   8.974 -0.1036 -0.6071  0.0954
   10CHL1  H24A  729   1.702   1.498   8.916  0.5718  0.0963  0.9661
   10CHL1  H24B  730   1.823   1.368   8.943  0.5733  2.8213 -2.1474
   10CHL1   C25  731   1.619   1.297   8.945  0.4660  0.0795  0.0317
   10CHL1   H25  732   1.518   1.330   8.977  0.2494 -0.5368 -0.0029
   10CHL1   C26  733   1.615   1.269   8.791 -0.9482 -0.1762 -0.5257
   10CHL1  H26A  734   1.551   1.180   8.771 -0.2671 -1.0608  1.1254
   10CHL1  H26B  735   1.563   1.358   8.749 -0.6403 -0.2449 -1.0634
   10CHL1  H26C  736   1.718   1.247   8.756 -1.4404 -0.1370 -2.0069
   10CHL1   C27  737   1.644   1.172   9.019 -0.4855  0.5368 -0.0048
   10CHL1  H27A  738   1.636   1.185   9.129 -2.4713 -0.0364 -0.0677
   10CHL1  H27B  739   1.568   1.096   8.992 -0.8554  0.8397  0.1863
   10CHL1  H27C  740   1.744   1.132   8.991 -1.3762 -0.9138 -1.1484
   11CHL1    C3  741   4.145   4.919  10.020  0.2806  0.3182 -0.3899
   11CHL1    H3  742   4.165   5.029  10.013 -0.8988  0.8812  3.7206
   11CHL1    O3  743   4.105   4.885  10.152 -0.5228 -0.1934 -0.0761
   11CHL1   H3'  744   4.150   4.950  10.207 -1.5233 -0.0863  0.6247
   11CHL1    C4  745   4.027   4.885   9.920 -0.5158 -0.0940 -0.3221
   11CHL1   H4A  746   4.004   4.779   9.943 -1.9103  0.4390  0.8299
   11CHL1   H4B  747   3.947   4.953   9.956 -1.4365 -0.9504 -0.7522
   11CHL1    C5  748   4.057   4.898   9.771 -0.1894  0.0992  0.0072
   11CHL1    C6  749   3.971   4.955   9.687 -0.2317 -0.6336 -0.2190
   11CHL1    H6  750   3.880   5.004   9.727 -1.0926 -1.2328 -1.4023
   11CHL1    C7  751   3.985   4.964   9.541 -0.0984  0.1866 -0.2338
   11CHL1   H7A  752   3.887   4.957   9.488 -0.8538  0.0169  1.1532
   11CHL1   H7B  753   4.012   5.070   9.521  0.3002  0.3355  1.0945
   11CHL1    C8  754   4.087   4.858   9.487  0.0561  0.5018  0.1778
   11CHL1    H8  755   4.038   4.759   9.494  0.8064  0.2726  2.4924
   11CHL1   C14  756   4.120   4.889   9.342  0.0174 -0.1954 -0.3897
   11CHL1   H14  757   4.180   4.983   9.349  2.4107 -1.6517 -0.7669
   11CHL1   C15  758   4.000   4.899   9.241  0.6243  0.1936  0.5072
   11CHL1  H15A  759   3.933   4.815   9.268  1.2138 -0.1882  0.7857
   11CHL1  H15B  760   3.952   4.998   9.254  2.0045  0.5844  2.8322
   11CHL1   C16  761   4.056   4.868   9.101 -0.3536 -0.8430 -0.6322
   11CHL1  H16A  762   3.991   4.786   9.063  0.5144 -1.0725 -1.6497
   11CHL1  H16B  763   4.054   4.952   9.029  3.8717 -0.3381 -0.3180
   11CHL1   C17  764   4.207   4.839   9.123  0.0381 -0.6916 -0.1075
   11CHL1   H17  765   4.268   4.932   9.123  0.8415 -1.2060 -0.8202
   11CHL1   C13  766   4.221   4.792   9.276 -0.2074 -0.4970 -0.1588
   11CHL1   C18  767   4.178   4.651   9.276  0.3704 -0.0424 -0.4968
   11CHL1  H18A  768   4.260   4.582   9.245 -0.1510  0.0795 -2.2139
   11CHL1  H18B  769   4.155   4.622   9.381  0.2366  0.0880 -0.4901
   11CHL1  H18C  770   4.091   4.641   9.209  0.1105 -1.7701  0.0735
   11CHL1   C12  771   4.355   4.808   9.351  0.7749 -1.0179  0.0104
   11CHL1  H12A  772   4.433   4.737   9.315  0.1387 -2.8052  2.0362
   11CHL1  H12B  773   4.388   4.911   9.329 -1.1059  0.0990  2.2086
   11CHL1   C11  774   4.341   4.801   9.504 -0.8768 -0.1169  0.3514
   11CHL1  H11A  775   4.344   4.695   9.536  0.4346 -1.1071 -2.8116
   11CHL1  H11B  776   4.431   4.848   9.548 -2.5093  1.1041  2.5188
   11CHL1    C9  777   4.214   4.865   9.568  0.3000  0.0197 -0.2070
   11CHL1    H9  778   4.232   4.974   9.571  2.9945 -0.4191  1.5735
   11CHL1   C10  779   4.187   4.826   9.720  0.6324 -0.0411 -0.5839
   11CHL1   C19  780   4.159   4.670   9.725  0.7637 -1.1679  0.2390
   11CHL1  H19A  781   4.119   4.633   9.822  1.6924  1.6768  1.7639
   11CHL1  H19B  782   4.086   4.649   9.644  2.0611  0.2053 -1.3359
   11CHL1  H19C  783   4.255   4.618   9.704  1.7274  0.6893 -0.1133
   11CHL1    C1  784   4.300   4.852   9.818  0.3030 -0.2500 -0.1502
   11CHL1   H1A  785   4.379   4.778   9.789  1.3388  0.2227  1.4333
   11CHL1   H1B  786   4.334   4.956   9.799 -1.4022  0.7062  1.9203
   11CHL1    C2  787   4.262   4.841   9.977 -0.6938  0.6212  0.7701
   11CHL1   H2A  788   4.350   4.876  10.036  0.2864  0.9199 -0.8333
   11CHL1   H2B  789   4.252   4.733  10.000 -0.3487 -0.0314 -2.0204
   11CHL1   C20  790   4.280   4.762   9.014  0.5421  0.6772 -0.0260
   11CHL1   H20  791   4.297   4.669   9.072 -2.0089 -0.6582 -1.3412
   11CHL1   C21  792   4.423   4.824   8.994  0.3884  0.0916  0.1019
   11CHL1  H21A  793   4.420   4.929   8.958  0.0759  0.3592  0.8840
   11CHL1  H21B  794   4.473   4.759   8.919 -0.2786 -0.0483 -0.2254
   11CHL1  H21C  795   4.485   4.829   9.086  0.4028 -0.0515  0.1002
   11CHL1   C22  796   4.201   4.721   8.888 -0.7729 -0.7574  0.3639
   11CHL1  H22A  797   4.117   4.650   8.899 -1.8957  0.6683  1.1019
   11CHL1  H22B  798   4.165   4.815   8.843  1.4070  0.5923  1.3248
   11CHL1   C23  799   4.278   4.666   8.767  0.6137  0.0623  0.3768
   11CHL1  H23A  800   4.331   4.748   8.715  1.4135 -1.3078 -1.0172
   11CHL1  H23B  801   4.352   4.587   8.792  1.6568  0.6875 -0.7119
   11CHL1   C24  802   4.192   4.619   8.653 -0.5815 -0.3738 -0.4066
   11CHL1  H24A  803   4.108   4.551   8.678  0.1032 -1.1483 -0.1473
   11CHL1  H24B  804   4.151   4.703   8.594  1.6297  1.4575  0.5788
   11CHL1   C25  805   4.274   4.546   8.541 -0.3804  0.4864  0.1338
   11CHL1   H25  806   4.343   4.479   8.596  2.3617  1.3536 -2.1155
   11CHL1   C26  807   4.181   4.456   8.463 -0.8478 -0.0318  0.0584
   11CHL1  H26A  808   4.234   4.375   8.408 -0.4932 -0.7818  1.4763
   11CHL1  H26B  809   4.123   4.405   8.542  1.0779 -0.6719  1.0939
   11CHL1  H26C  810   4.119   4.515   8.392  0.2126 -0.1304 -0.9597
   11CHL1   C27  811   4.356   4.632   8.446  0.0445  0.2352  0.7255
   11CHL1  H27A  812   4.426   4.573   8.383 -1.4044  1.2026 -1.8743
   11CHL1  H27B  813   4.292   4.694   8.379  0.0574 -0.5152  0.0074
   11CHL1  H27C  814   4.415   4.704   8.507 -1.9946 -0.3677  3.5044
   12CHL1    C3  815   0.494   1.151  10.327  0.2817  0.8043 -0.7084
   12CHL1    H3  816   0.548   1.247  10.311 -0.2416  1.2289  0.0533
   12CHL1    O3  817   0.478   1.119  10.470  0.1748  0.6087 -0.1656
   12CHL1   H3'  818   0.404   1.174  10.495  0.1828  0.4798  0.1455
   12CHL1    C4  819   0.351   1.177  10.278 -0.3966 -0.6579 -0.0843
   12CHL1   H4A  820   0.295   1.093  10.323 -1.9991  1.6544  2.3997
   12CHL1   H4B  821   0.311   1.268  10.330  1.0770 -0.4757  0.7777
   12CHL1    C5  822   0.321   1.197  10.135 -0.0457  0.0209  0.3516
   12CHL1    C6  823   0.256   1.308  10.086 -0.0515 -0.4905 -0.0125
   12CHL1    H6  824   0.210   1.380  10.155 -1.6061 -0.8910 -0.6070
   12CHL1    C7  825   0.235   1.328   9.940 -0.1732  1.4631  0.2451
   12CHL1   H7A  826   0.140   1.376   9.909 -0.9624 -0.3586 -0.2005
   12CHL1   H7B  827   0.314   1.398   9.905  1.5812 -1.0086 -0.8244
   12CHL1    C8  828   0.273   1.203   9.854 -0.3905 -0.2918  0.4967
   12CHL1    H8  829   0.187   1.135   9.871  2.0120 -2.8977  2.5594
   12CHL1   C14  830   0.280   1.246   9.710 -0.1723  0.9411  0.2164
   12CHL1   H14  831   0.374   1.302   9.690  1.0582 -1.0067  0.4976
   12CHL1   C15  832   0.157   1.321   9.658 -0.0996  0.0654  0.6848
   12CHL1  H15A  833   0.060   1.271   9.682  0.2878 -0.2203  1.6640
   12CHL1  H15B  834   0.157   1.428   9.690 -0.2190  0.3411 -0.2302
   12CHL1   C16  835   0.169   1.299   9.499 -0.4791  0.2418  0.5396
   12CHL1  H16A  836   0.077   1.252   9.458 -0.8485  0.1796  1.4279
   12CHL1  H16B  837   0.189   1.395   9.448  0.2632 -0.6252 -0.8133
   12CHL1   C17  838   0.297   1.201   9.482  0.0087  0.9600  0.1331
   12CHL1   H17  839   0.380   1.274   9.478 -0.0613  1.0125 -0.4627
   12CHL1   C13  840   0.298   1.125   9.620 -0.4970  0.3254  0.1662
   12CHL1   C18  841   0.180   1.028   9.629  0.3953 -0.3791  0.8512
   12CHL1  H18A  842   0.195   0.955   9.711  0.9290  0.1293  1.2090
   12CHL1  H18B  843   0.082   1.077   9.646 -0.7303 -2.3887  0.2994
   12CHL1  H18C  844   0.182   0.957   9.544 -0.4606 -0.7150  1.1127
   12CHL1   C12  845   0.427   1.048   9.653 -0.3644  0.0207 -0.0624
   12CHL1  H12A  846   0.430   0.955   9.592 -1.1926  0.1737 -0.3468
   12CHL1  H12B  847   0.512   1.107   9.610 -1.6316  2.1925  0.3558
   12CHL1   C11  848   0.442   1.009   9.800  1.1041  0.1003 -0.2943
   12CHL1  H11A  849   0.376   0.920   9.817  0.4058  0.6767  0.0235
   12CHL1  H11B  850   0.545   0.972   9.816  1.2782  1.5925  2.0787
   12CHL1    C9  851   0.400   1.125   9.900  0.4758 -0.1821 -0.2544
   12CHL1    H9  852   0.475   1.204   9.881 -0.4857  1.0684  1.0493
   12CHL1   C10  853   0.386   1.087  10.049 -0.0584  0.0992 -0.4868
   12CHL1   C19  854   0.301   0.957  10.059  0.1388 -0.3263 -0.4037
   12CHL1  H19A  855   0.258   0.939  10.160  1.5469 -0.3214  0.2230
   12CHL1  H19B  856   0.222   0.953   9.981  0.6221  0.3220 -0.9363
   12CHL1  H19C  857   0.367   0.871  10.035  1.4754  0.6936 -0.4811
   12CHL1    C1  858   0.536   1.063  10.101 -0.4674 -0.2146 -0.0350
   12CHL1   H1A  859   0.593   0.990  10.040  1.9344  0.1353  1.6984
   12CHL1   H1B  860   0.591   1.159  10.090 -0.1828 -0.4355 -0.5594
   12CHL1    C2  861   0.553   1.029  10.250  0.2466 -0.5625 -0.0382
   12CHL1   H2A  862   0.663   1.016  10.261  0.2521 -1.6291 -1.2565
   12CHL1   H2B  863   0.498   0.937  10.281 -0.1866 -0.6933 -1.1696
   12CHL1   C20  864   0.298   1.128   9.350  0.1984 -0.2241 -0.4062
   12CHL1   H20  865   0.257   1.028   9.376  0.7927 -0.3462  0.0743
   12CHL1   C21  866   0.439   1.089   9.321  0.1534  0.3597 -1.0397
   12CHL1  H21A  867   0.445   1.039   9.222 -0.9556 -0.0444 -0.9126
   12CHL1  H21B  868   0.479   1.015   9.394 -2.9068 -0.7226 -0.3773
   12CHL1  H21C  869   0.506   1.175   9.338 -1.2138  1.1649  0.4291
   12CHL1   C22  870   0.234   1.175   9.220  0.2014 -0.3539  1.1497
   12CHL1  H22A  871   0.259   1.091   9.151  1.2214  2.3998 -1.9328
   12CHL1  H22B  872   0.124   1.176   9.238 -0.3179  1.3369 -1.8468
   12CHL1   C23  873   0.291   1.306   9.161  0.4749 -0.9253 -0.1381
   12CHL1  H23A  874   0.270   1.392   9.228 -0.2109  0.0259 -1.5329
   12CHL1  H23B  875   0.398   1.305   9.131 -0.1956 -2.0222 -2.6617
   12CHL1   C24  876   0.231   1.345   9.022 -0.3937 -0.2881 -0.7975
   12CHL1  H24A  877   0.262   1.265   8.950  1.0697 -0.4386 -0.0241
   12CHL1  H24B  878   0.120   1.337   9.028 -0.2943 -1.2926 -0.1165
   12CHL1   C25  879   0.285   1.490   8.983  0.4356 -0.4131 -0.2645
   12CHL1   H25  880   0.395   1.501   8.997 -0.1201  3.7952  1.5945
   12CHL1   C26  881   0.268   1.514   8.834 -0.4157 -0.2664  0.1231
   12CHL1  H26A  882   0.163   1.493   8.804 -0.9378  0.6683  1.2376
   12CHL1  H26B  883   0.290   1.619   8.807  0.8848 -0.4380  0.5113
   12CHL1  H26C  884   0.324   1.440   8.774 -3.8092 -1.3570 -1.8599
   12CHL1   C27  885   0.222   1.608   9.059  0.3699  0.2515 -0.3135
   12CHL1  H27A  886   0.282   1.699   9.038  1.0306 -0.1608 -0.2188
   12CHL1  H27B  887   0.113   1.623   9.041  0.5574 -0.5949 -2.3726
   12CHL1  H27C  888   0.234   1.590   9.168  2.0652  0.8855 -0.3821
   13CHL1    C3  889   6.222   3.207   9.963  1.1701 -0.1550 -0.8341
   13CHL1    H3  890   6.277   3.110   9.969  0.2045 -0.6751 -0.2617
   13CHL1    O3  891   6.230   3.281  10.079  0.3462 -0.8302 -0.0178
   13CHL1   H3'  892   6.152   3.337  10.076 -0.3202 -1.8668 -3.1516
   13CHL1    C4  893   6.264   3.296   9.843  0.0676 -0.5402 -0.2027
   13CHL1   H4A  894   6.194   3.380   9.861 -1.0081 -1.7090  1.1879
   13CHL1   H4B  895   6.372   3.312   9.860  0.0895  1.4625 -2.0123
   13CHL1    C5  896   6.238   3.238   9.704 -0.3225  0.1699 -0.2279
   13CHL1    C6  897   6.344   3.219   9.622  0.1970  0.4478 -0.3569
   13CHL1    H6  898   6.444   3.247   9.658  0.6953  1.8503 -2.7138
   13CHL1    C7  899   6.327   3.161   9.484  0.0542 -0.5399 -1.1618
   13CHL1   H7A  900   6.395   3.205   9.408  0.7931 -0.9132 -0.7138
   13CHL1   H7B  901   6.348   3.052   9.491 -1.1070 -0.7585 -0.9182
   13CHL1    C8  902   6.181   3.165   9.431 -0.7354  0.0492  1.0892
   13CHL1    H8  903   6.149   3.267   9.400 -2.1172 -0.7861 -0.3106
   13CHL1   C14  904   6.172   3.070   9.308  0.0592  0.5915  0.0975
   13CHL1   H14  905   6.178   2.968   9.352 -0.2264  1.0678  1.2725
   13CHL1   C15  906   6.277   3.076   9.200 -0.6642 -0.7072  0.4291
   13CHL1  H15A  907   6.312   3.178   9.174 -1.3558 -0.5665  0.0486
   13CHL1  H15B  908   6.363   3.007   9.212  0.1867  0.2263 -0.2533
   13CHL1   C16  909   6.206   3.012   9.082 -0.0354  0.4994  0.9975
   13CHL1  H16A  910   6.204   3.074   8.990 -2.1085 -2.3375 -0.9300
   13CHL1  H16B  911   6.256   2.925   9.034 -1.1125 -0.1717  1.0832
   13CHL1   C17  912   6.060   2.975   9.124 -0.7942 -0.1305 -0.0501
   13CHL1   H17  913   6.067   2.879   9.180  0.3498 -0.0041  0.0157
   13CHL1   C13  914   6.028   3.074   9.238  0.3044 -0.0361 -0.1957
   13CHL1   C18  915   5.993   3.212   9.170 -0.4332 -0.4709 -0.2053
   13CHL1  H18A  916   5.917   3.208   9.090 -1.5480  1.6161  0.7313
   13CHL1  H18B  917   5.971   3.292   9.244 -1.3029 -0.6016 -0.3199
   13CHL1  H18C  918   6.083   3.248   9.116 -2.1621  2.8188 -0.9711
   13CHL1   C12  919   5.924   3.027   9.347 -0.4045 -0.8042  0.1329
   13CHL1  H12A  920   5.820   3.042   9.309 -0.9929 -1.9361  1.2407
   13CHL1  H12B  921   5.950   2.924   9.380 -0.4252 -1.2474 -1.2140
   13CHL1   C11  922   5.940   3.110   9.477 -0.5373 -0.2865 -0.3733
   13CHL1  H11A  923   5.910   3.216   9.461 -0.2883 -0.5476 -2.8395
   13CHL1  H11B  924   5.873   3.084   9.562 -0.5347  1.2003  0.0967
   13CHL1    C9  925   6.081   3.117   9.535  0.1458 -0.4263 -0.1378
   13CHL1    H9  926   6.104   3.014   9.570  0.5875  0.7551  3.2301
   13CHL1   C10  927   6.094   3.197   9.674 -0.5952  0.5641  0.5057
   13CHL1   C19  928   6.010   3.328   9.670 -0.3680  1.1015  0.7595
   13CHL1  H19A  929   5.901   3.329   9.652 -0.3862 -0.4577  0.7506
   13CHL1  H19B  930   6.013   3.390   9.762  2.7043 -2.6490  3.3263
   13CHL1  H19C  931   6.061   3.382   9.587  2.5306 -2.2549  0.2370
   13CHL1    C1  932   6.046   3.108   9.793  0.1350  0.4459 -0.4768
   13CHL1   H1A  933   5.939   3.083   9.780 -0.1673  2.1021 -1.3505
   13CHL1   H1B  934   6.112   3.019   9.794 -0.8481 -0.2925 -0.6730
   13CHL1    C2  935   6.066   3.169   9.933  0.2168  0.0012 -0.0899
   13CHL1   H2A  936   6.016   3.097  10.001 -1.1715  0.3318 -0.7513
   13CHL1   H2B  937   6.008   3.263   9.942 -0.2848  0.0140 -3.0433
   13CHL1   C20  938   5.972   2.970   9.007  0.0989  1.4359 -0.0906
   13CHL1   H20  939   5.978   3.068   8.955 -1.5624  1.9472  0.6639
   13CHL1   C21  940   5.829   2.937   9.062 -0.4717 -0.1595  0.8736
   13CHL1  H21A  941   5.771   3.023   9.102 -1.4469 -0.6391  0.5053
   13CHL1  H21B  942   5.836   2.869   9.150 -2.2191  0.3289  1.4174
   13CHL1  H21C  943   5.766   2.883   8.988  0.2651  2.1790 -1.5426
   13CHL1   C22  944   6.007   2.862   8.898  0.0565 -0.3596  0.4854
   13CHL1  H22A  945   6.114   2.831   8.904  0.4566  1.1755  1.7285
   13CHL1  H22B  946   5.952   2.770   8.925 -0.6945  0.3038  1.2444
   13CHL1   C23  947   5.977   2.913   8.754  0.7272  0.8501  0.4186
   13CHL1  H23A  948   5.869   2.928   8.733  0.8338 -0.0367 -0.7842
   13CHL1  H23B  949   6.041   3.000   8.725  0.6414  0.0517 -2.2492
   13CHL1   C24  950   6.002   2.794   8.653  0.4566 -0.2311 -0.7250
   13CHL1  H24A  951   5.930   2.713   8.676 -0.9875  1.2673  0.1570
   13CHL1  H24B  952   5.983   2.829   8.550 -0.7332 -0.1352 -0.4841
   13CHL1   C25  953   6.142   2.727   8.657 -0.2047  0.5011 -0.1219
   13CHL1   H25  954   6.155   2.678   8.755 -0.3080 -0.2224 -0.4665
   13CHL1   C26  955   6.143   2.608   8.557 -0.3517  0.7213 -0.5235
   13CHL1  H26A  956   6.239   2.551   8.552 -0.7547  0.2019 -2.6649
   13CHL1  H26B  957   6.062   2.539   8.588  0.5470 -0.9384 -1.7735
   13CHL1  H26C  958   6.122   2.643   8.454 -1.1606 -0.4251 -0.7495
   13CHL1   C27  959   6.258   2.826   8.651 -0.0927  0.3866  0.5705
   13CHL1  H27A  960   6.272   2.887   8.743  0.8099  1.2493 -0.1243
   13CHL1  H27B  961   6.353   2.771   8.635  1.9037  3.0017  3.0924
   13CHL1  H27C  962   6.246   2.901   8.570 -1.0136 -0.3599 -0.0030
   14CHL1    C3  963   5.981   5.962  10.275  0.0998  0.1672 -0.3716
   14CHL1    H3  964   6.081   6.012  10.273  0.2443 -0.1280 -2.3151
   14CHL1    O3  965   5.953   5.921  10.408  0.1992 -0.1826 -0.2843
   14CHL1   H3'  966   5.859   5.904  10.417  0.4907 -2.7966 -1.4679
   14CHL1    C4  967   5.885   6.075  10.238  0.3123 -0.4964 -1.0591
   14CHL1   H4A  968   5.783   6.037  10.257  0.4708  0.3890  1.8015
   14CHL1   H4B  969   5.909   6.151  10.315  0.3218 -0.8246 -0.7376
   14CHL1    C5  970   5.898   6.128  10.101  0.6853  0.0486 -0.6574
   14CHL1    C6  971   5.921   6.250  10.068 -0.0407 -0.0991 -0.1334
   14CHL1    H6  972   5.945   6.327  10.144  1.6593 -1.0440  0.3263
   14CHL1    C7  973   5.938   6.291   9.924  0.0907  0.1447  0.1826
   14CHL1   H7A  974   5.892   6.391   9.909 -0.5421 -0.4247 -1.8092
   14CHL1   H7B  975   6.045   6.321   9.914  0.6921 -1.3081  1.8514
   14CHL1    C8  976   5.891   6.194   9.818 -0.0979 -0.0896  0.2805
   14CHL1    H8  977   5.782   6.216   9.819 -0.1236 -0.1862 -0.1472
   14CHL1   C14  978   5.952   6.221   9.683 -0.4344 -0.0793  0.0016
   14CHL1   H14  979   6.058   6.186   9.692 -1.2004 -2.2551  1.0968
   14CHL1   C15  980   5.969   6.364   9.624  0.2841 -0.4980 -0.6980
   14CHL1  H15A  981   5.876   6.419   9.649 -0.1850 -1.5689 -0.0956
   14CHL1  H15B  982   6.049   6.425   9.672  0.9165 -0.8565 -1.2812
   14CHL1   C16  983   5.995   6.350   9.474 -0.0856 -0.4013  0.3073
   14CHL1  H16A  984   5.919   6.410   9.421 -1.8326 -1.4130  1.6078
   14CHL1  H16B  985   6.092   6.386   9.433 -0.0670 -1.7759 -0.8996
   14CHL1   C17  986   5.983   6.193   9.444 -0.0618 -0.5478  0.0907
   14CHL1   H17  987   6.086   6.151   9.445  0.3430  0.4292  0.2536
   14CHL1   C13  988   5.912   6.128   9.565  0.9833  0.2508 -0.5798
   14CHL1   C18  989   5.757   6.139   9.549 -0.2340 -0.5354 -0.1799
   14CHL1  H18A  990   5.721   6.243   9.533  0.5299 -0.1043  0.8439
   14CHL1  H18B  991   5.713   6.079   9.467 -0.3928 -1.1533  0.3570
   14CHL1  H18C  992   5.709   6.097   9.640 -0.4879 -0.5380 -0.3179
   14CHL1   C12  993   5.963   5.983   9.605  0.6572  0.1925  0.9811
   14CHL1  H12A  994   5.938   5.906   9.529  1.7003 -0.5065  1.3326
   14CHL1  H12B  995   6.074   5.991   9.609  0.6202  0.0217  2.6758
   14CHL1   C11  996   5.911   5.939   9.740  0.5338 -0.2424 -0.3845
   14CHL1  H11A  997   5.800   5.939   9.732  0.4378  0.6945  0.7114
   14CHL1  H11B  998   5.945   5.839   9.774 -0.3200  0.7397  3.5445
   14CHL1    C9  999   5.931   6.049   9.854  0.1946  0.0404 -0.1027
   14CHL1    H9 1000   6.042   6.046   9.858  0.2040  1.3350  0.7124
   14CHL1   C10 1001   5.889   6.010   9.996 -0.2040 -0.0759 -1.1397
   14CHL1   C19 1002   5.747   5.950   9.983  0.0637 -0.6830  0.7033
   14CHL1  H19A 1003   5.668   6.023   9.953  1.8657  0.7107 -0.7392
   14CHL1  H19B 1004   5.760   5.869   9.909 -0.6915 -0.3250  0.1772
   14CHL1  H19C 1005   5.714   5.907  10.081  0.5830 -4.5102 -0.7261
   14CHL1    C1 1006   5.994   5.898  10.040 -0.3755 -0.8885 -0.1857
   14CHL1   H1A 1007   5.987   5.812   9.971  0.1193  0.3071 -1.7413
   14CHL1   H1B 1008   6.097   5.937  10.047 -1.6307  2.3719  1.2583
   14CHL1    C2 1009   5.971   5.837  10.183  0.3638 -0.7664  0.2136
   14CHL1   H2A 1010   6.049   5.762  10.206  0.8235 -0.1815  0.6005
   14CHL1   H2B 1011   5.868   5.796  10.181 -0.3493  0.9995 -1.9851
   14CHL1   C20 1012   5.931   6.163   9.305  0.2644  0.6630  0.1976
   14CHL1   H20 1013   5.825   6.197   9.301  0.2976  0.7998  0.4778
   14CHL1   C21 1014   5.932   6.019   9.259 -0.1445 -0.3061 -1.0235
   14CHL1  H21A 1015   5.877   5.967   9.341  0.4758 -2.9058 -2.1920
   14CHL1  H21B 1016   6.037   5.982   9.258 -0.6297 -1.8664  1.0721
   14CHL1  H21C 1017   5.882   6.006   9.160  0.8344 -0.8122 -1.4549
   14CHL1   C22 1018   5.996   6.256   9.198  0.0287 -0.2296  0.2420
   14CHL1  H22A 1019   5.939   6.232   9.106  0.3534 -1.4373  0.3576
   14CHL1  H22B 1020   5.976   6.362   9.226 -2.3176 -1.0440  1.9026
   14CHL1   C23 1021   6.144   6.232   9.185  0.3174 -0.2343  1.0523
   14CHL1  H23A 1022   6.197   6.231   9.283  1.0138  0.2416  0.6831
   14CHL1  H23B 1023   6.169   6.133   9.140 -0.5232  0.3465 -0.7135
   14CHL1   C24 1024   6.210   6.348   9.109 -0.6931  0.4606 -0.0456
   14CHL1  H24A 1025   6.205   6.432   9.181 -0.3427  0.1146  0.3918
   14CHL1  H24B 1026   6.316   6.322   9.092 -0.6934  0.9969 -0.8624
   14CHL1   C25 1027   6.142   6.378   8.975  0.2994  0.0188 -0.1837
   14CHL1   H25 1028   6.039   6.419   8.989  0.6106  1.0168 -0.8625
   14CHL1   C26 1029   6.214   6.494   8.909 -0.4696  0.1046 -0.4868
   14CHL1  H26A 1030   6.319   6.462   8.894 -0.6565 -0.6445 -0.2250
   14CHL1  H26B 1031   6.173   6.519   8.809 -0.8400 -0.6148 -0.5176
   14CHL1  H26C 1032   6.223   6.583   8.975  0.8699  0.0353 -0.5709
   14CHL1   C27 1033   6.127   6.270   8.875 -0.4259  1.0232 -1.2421
   14CHL1  H27A 1034   6.076   6.296   8.779  1.6872 -2.7642 -3.5189
   14CHL1  H27B 1035   6.232   6.244   8.849 -1.2522 -0.5840 -3.1592
   14CHL1  H27C 1036   6.075   6.183   8.922 -1.2235  1.6407 -0.9759
   15CHL1    C3 1037   6.421   5.043  10.167  0.3255  0.2915  0.0872
   15CHL1    H3 1038   6.505   4.975  10.142  1.9746  2.9983 -2.0630
   15CHL1    O3 1039   6.416   5.045  10.314  0.0554  0.1037  0.4955
   15CHL1   H3' 1040   6.507   5.022  10.334  0.6601  1.5156 -0.4751
   15CHL1    C4 1041   6.444   5.187  10.127 -0.2205  0.1878 -0.3306
   15CHL1   H4A 1042   6.372   5.254  10.179 -1.3516 -2.2452  1.3762
   15CHL1   H4B 1043   6.540   5.217  10.174 -1.2565 -1.1886  2.8226
   15CHL1    C5 1044   6.443   5.202   9.971  0.2970 -0.7782 -0.4695
   15CHL1    C6 1045   6.552   5.240   9.898  0.0309  0.0793 -0.4912
   15CHL1    H6 1046   6.639   5.264   9.960  0.5539 -0.4558 -1.0160
   15CHL1    C7 1047   6.558   5.248   9.752  0.1087  0.4869  0.4361
   15CHL1   H7A 1048   6.606   5.342   9.718 -0.5365  0.4149 -0.6764
   15CHL1   H7B 1049   6.641   5.178   9.729  0.6625 -0.1689  4.0447
   15CHL1    C8 1050   6.420   5.235   9.683 -0.6487  0.3521 -0.3060
   15CHL1    H8 1051   6.371   5.335   9.691 -0.4964  0.4530 -0.6306
   15CHL1   C14 1052   6.431   5.210   9.535  0.0170 -0.4939  0.3356
   15CHL1   H14 1053   6.490   5.117   9.526  1.2474  0.0988  2.0331
   15CHL1   C15 1054   6.515   5.317   9.457  0.3794 -0.1529 -0.4548
   15CHL1  H15A 1055   6.503   5.421   9.494 -0.2714 -0.6637  0.7816
   15CHL1  H15B 1056   6.624   5.293   9.461  0.4370 -0.0494 -1.3309
   15CHL1   C16 1057   6.464   5.306   9.315  0.2668 -0.7550  0.5165
   15CHL1  H16A 1058   6.411   5.400   9.289 -1.8924 -1.5907  1.7811
   15CHL1  H16B 1059   6.556   5.294   9.254  0.4913  1.7897  0.3339
   15CHL1   C17 1060   6.362   5.182   9.318 -1.1594 -0.1117 -0.2004
   15CHL1   H17 1061   6.429   5.093   9.318  0.9880  1.4442  1.2637
   15CHL1   C13 1062   6.300   5.185   9.457  0.1953 -0.7987 -0.0078
   15CHL1   C18 1063   6.207   5.313   9.459  0.3238  0.6099  0.3896
   15CHL1  H18A 1064   6.192   5.343   9.565  2.1109  2.6253  0.1048
   15CHL1  H18B 1065   6.256   5.400   9.410 -0.3712 -0.7657 -2.8457
   15CHL1  H18C 1066   6.114   5.291   9.402 -1.0605  0.0847  2.7928
   15CHL1   C12 1067   6.244   5.059   9.520 -0.0704  0.1766 -0.5205
   15CHL1  H12A 1068   6.151   5.033   9.466  0.4127 -1.5206 -0.5642
   15CHL1  H12B 1069   6.312   4.973   9.499 -1.2338 -0.5841 -1.2127
   15CHL1   C11 1070   6.216   5.075   9.669  0.0408  0.2180  0.6317
   15CHL1  H11A 1071   6.128   5.140   9.686 -0.5515 -0.9787  2.1622
   15CHL1  H11B 1072   6.172   4.980   9.704  1.9460 -0.3582  1.5354
   15CHL1    C9 1073   6.343   5.123   9.748  0.4042 -0.7538 -0.3076
   15CHL1    H9 1074   6.413   5.037   9.749 -0.9181 -1.8484 -0.2431
   15CHL1   C10 1075   6.316   5.151   9.902  0.1920  0.2978  0.2508
   15CHL1   C19 1076   6.204   5.255   9.923  0.3858  0.2685 -0.9518
   15CHL1  H19A 1077   6.235   5.352   9.880  0.1865  1.5695  1.7511
   15CHL1  H19B 1078   6.110   5.216   9.877 -0.2798  1.5096 -0.6621
   15CHL1  H19C 1079   6.173   5.274  10.028  1.7918 -0.4917 -0.3887
   15CHL1    C1 1080   6.270   5.017   9.966 -0.3833  0.2526 -0.5534
   15CHL1   H1A 1081   6.170   4.984   9.932 -0.2014 -1.5091  0.5131
   15CHL1   H1B 1082   6.334   4.942   9.913 -3.5153 -0.7597 -3.0530
   15CHL1    C2 1083   6.283   5.001  10.116 -0.0977  0.6026  0.5256
   15CHL1   H2A 1084   6.272   4.895  10.146  2.0392 -0.9309 -3.7018
   15CHL1   H2B 1085   6.213   5.064  10.175 -1.3171  0.5690 -0.8410
   15CHL1   C20 1086   6.274   5.188   9.193  0.3598  0.2444 -0.0853
   15CHL1   H20 1087   6.187   5.252   9.215 -0.4223 -0.5751 -0.7575
   15CHL1   C21 1088   6.225   5.043   9.160  0.2340 -0.0915  0.4972
   15CHL1  H21A 1089   6.179   5.002   9.252 -1.3747  0.9198  0.1478
   15CHL1  H21B 1090   6.310   4.977   9.132  0.5857 -0.6588  2.7936
   15CHL1  H21C 1091   6.148   5.047   9.080  0.7478  2.0488  0.0746
   15CHL1   C22 1092   6.341   5.243   9.068  0.4873 -0.4812  0.0319
   15CHL1  H22A 1093   6.349   5.353   9.079  1.4081 -0.6694  1.3998
   15CHL1  H22B 1094   6.445   5.207   9.052  0.9014  1.5481 -2.1040
   15CHL1   C23 1095   6.267   5.221   8.932  0.3611 -0.6193 -0.9723
   15CHL1  H23A 1096   6.269   5.112   8.914 -3.5815 -0.9615  0.0972
   15CHL1  H23B 1097   6.162   5.254   8.949  0.3009 -0.9356 -0.7367
   15CHL1   C24 1098   6.324   5.307   8.819 -0.0549  0.5291 -0.3062
   15CHL1  H24A 1099   6.432   5.282   8.808 -0.4107 -0.8540 -0.6403
   15CHL1  H24B 1100   6.291   5.271   8.720  0.1246  0.3807 -0.3136
   15CHL1   C25 1101   6.295   5.459   8.818 -0.2241  0.2807 -0.7072
   15CHL1   H25 1102   6.341   5.496   8.913 -0.7180 -0.9345  0.0077
   15CHL1   C26 1103   6.372   5.532   8.701  0.3382  0.0245 -0.3830
   15CHL1  H26A 1104   6.344   5.640   8.699 -1.2423 -0.3305  0.8669
   15CHL1  H26B 1105   6.482   5.526   8.715  0.0934 -1.6381  1.0102
   15CHL1  H26C 1106   6.327   5.490   8.609 -1.9359 -0.3521  0.8539
   15CHL1   C27 1107   6.147   5.493   8.814  0.1527  0.3536 -0.0894
   15CHL1  H27A 1108   6.105   5.478   8.915 -1.9369  2.2938 -0.6285
   15CHL1  H27B 1109   6.129   5.601   8.792  0.1389  0.3906  0.1014
   15CHL1  H27C 1110   6.098   5.424   8.741 -1.9897 -1.8386  3.3008
   16CHL1    C3 1111   0.224   5.716   9.973  0.1854  0.1667  0.3303
   16CHL1    H3 1112   0.249   5.609   9.954 -1.1651 -0.3221  1.2381
   16CHL1    O3 1113   0.240   5.750  10.107 -0.2432  0.4678  0.3003
   16CHL1   H3' 1114   0.210   5.679  10.164  0.9605 -0.3121 -0.0343
   16CHL1    C4 1115   0.300   5.811   9.889 -0.8510 -0.4072  0.4606
   16CHL1   H4A 1116   0.264   5.911   9.922 -0.7981 -0.3070  0.2194
   16CHL1   H4B 1117   0.407   5.811   9.919 -0.6811  0.9814 -0.0993
   16CHL1    C5 1118   0.289   5.777   9.745 -0.0428 -0.1817 -0.1212
   16CHL1    C6 1119   0.399   5.758   9.671 -0.2092  0.6373  0.2433
   16CHL1    H6 1120   0.499   5.771   9.713 -0.1836 -1.6510  0.9350
   16CHL1    C7 1121   0.400   5.727   9.525  0.1415 -1.1707 -0.0956
   16CHL1   H7A 1122   0.477   5.792   9.479 -0.1745 -0.4235  0.4233
   16CHL1   H7B 1123   0.424   5.619   9.514 -1.3006 -1.4151 -0.9860
   16CHL1    C8 1124   0.259   5.755   9.457 -0.1686  0.0042  0.0799
   16CHL1    H8 1125   0.262   5.865   9.444  2.0632  0.2260  2.0904
   16CHL1   C14 1126   0.248   5.685   9.323 -0.1411  0.0223  0.3251
   16CHL1   H14 1127   0.248   5.576   9.345 -1.0643  0.1502  0.9793
   16CHL1   C15 1128   0.352   5.692   9.210  0.4312 -0.2808  0.2554
   16CHL1  H15A 1129   0.408   5.788   9.202 -1.8208  0.9644 -0.8985
   16CHL1  H15B 1130   0.432   5.616   9.224  0.3495 -1.0611 -3.1730
   16CHL1   C16 1131   0.272   5.666   9.082  0.2158  1.1852  0.3738
   16CHL1  H16A 1132   0.275   5.762   9.026 -0.1061 -0.3415 -2.3463
   16CHL1  H16B 1133   0.319   5.592   9.013  0.2237  0.3265  1.2975
   16CHL1   C17 1134   0.127   5.630   9.130 -0.1016  0.1073  0.8185
   16CHL1   H17 1135   0.127   5.520   9.150 -2.1779 -0.4241 -1.9762
   16CHL1   C13 1136   0.112   5.705   9.259  0.0146  0.7409  0.5158
   16CHL1   C18 1137   0.082   5.858   9.232 -0.5515  0.2845  0.6004
   16CHL1  H18A 1138  -0.025   5.871   9.207 -0.1736  1.1638 -0.5954
   16CHL1  H18B 1139   0.103   5.918   9.322  1.3956  0.8369 -0.1859
   16CHL1  H18C 1140   0.146   5.906   9.154 -0.9941  0.0586  0.0972
   16CHL1   C12 1141   0.004   5.648   9.346  0.5975  0.1151  0.0864
   16CHL1  H12A 1142  -0.090   5.673   9.291  0.8048 -1.0766 -0.8226
   16CHL1  H12B 1143   0.026   5.541   9.361 -1.3719  0.0579  2.8245
   16CHL1   C11 1144  -0.003   5.730   9.476 -0.1942  0.3254  0.3997
   16CHL1  H11A 1145  -0.037   5.835   9.458  2.0095  0.8890 -0.6588
   16CHL1  H11B 1146  -0.085   5.694   9.542 -0.7341 -0.0695 -0.4732
   16CHL1    C9 1147   0.137   5.714   9.548  0.2205 -0.0871  0.2911
   16CHL1    H9 1148   0.167   5.609   9.566  1.1882 -0.1301 -1.4906
   16CHL1   C10 1149   0.146   5.782   9.693  1.0108 -0.4005  0.9988
   16CHL1   C19 1150   0.107   5.930   9.674  0.1764  0.1866  0.1048
   16CHL1  H19A 1151   0.004   5.951   9.637  0.1846 -1.4961 -0.9027
   16CHL1  H19B 1152   0.114   5.991   9.766 -0.2474 -1.3335  1.1712
   16CHL1  H19C 1153   0.171   5.974   9.595  1.4391 -0.1184  0.9473
   16CHL1    C1 1154   0.046   5.701   9.793 -0.4567 -0.1012  0.5549
   16CHL1   H1A 1155  -0.059   5.728   9.766 -0.9904 -1.3485  1.3124
   16CHL1   H1B 1156   0.063   5.593   9.778 -2.5899 -0.7160  2.2358
   16CHL1    C2 1157   0.079   5.724   9.943  0.3703  0.6113 -0.5930
   16CHL1   H2A 1158   0.013   5.653   9.998  0.5300  1.3467  0.5726
   16CHL1   H2B 1159   0.035   5.824   9.968 -0.2857  0.2938 -0.4712
   16CHL1   C20 1160   0.016   5.650   9.022  0.5520  0.2364 -0.2455
   16CHL1   H20 1161  -0.038   5.745   9.044 -1.7731 -0.9397 -0.6300
   16CHL1   C21 1162  -0.087   5.536   9.038  0.0316 -0.2564  0.0416
   16CHL1  H21A 1163  -0.040   5.438   9.013 -1.3602 -0.8409 -0.3138
   16CHL1  H21B 1164  -0.171   5.547   8.966  0.8074 -0.2360 -0.8721
   16CHL1  H21C 1165  -0.127   5.522   9.141  0.9140 -0.9651  0.2982
   16CHL1   C22 1166   0.063   5.653   8.877 -0.4214 -0.4727 -0.1218
   16CHL1  H22A 1167   0.145   5.728   8.874 -2.2564  1.5337 -1.1258
   16CHL1  H22B 1168   0.119   5.559   8.855 -0.1187 -0.7014  1.5588
   16CHL1   C23 1169  -0.042   5.682   8.767  0.2813 -0.5076  0.1835
   16CHL1  H23A 1170  -0.126   5.610   8.762 -1.0884  1.0946 -0.4708
   16CHL1  H23B 1171  -0.088   5.779   8.798  0.5352 -0.3044 -0.0692
   16CHL1   C24 1172   0.011   5.695   8.619  0.1963  0.8189  0.3988
   16CHL1  H24A 1173   0.118   5.725   8.617  0.3129  0.3577 -0.5336
   16CHL1  H24B 1174   0.009   5.595   8.570 -2.3023 -0.2838  2.6099
   16CHL1   C25 1175  -0.077   5.775   8.524  0.7756  0.2709 -0.7417
   16CHL1   H25 1176  -0.143   5.845   8.580 -0.4777 -1.7480  0.3479
   16CHL1   C26 1177   0.001   5.866   8.425  0.4907 -0.1801  0.2397
   16CHL1  H26A 1178  -0.065   5.911   8.348  1.0740 -1.6137 -1.1346
   16CHL1  H26B 1179   0.057   5.941   8.483 -0.9156  2.1996 -1.4012
   16CHL1  H26C 1180   0.078   5.801   8.377  1.1925 -0.5177  1.7917
   16CHL1   C27 1181  -0.169   5.688   8.442  0.1914  0.1937 -0.7276
   16CHL1  H27A 1182  -0.238   5.640   8.516  1.5938 -0.1457  0.3775
   16CHL1  H27B 1183  -0.233   5.748   8.374 -0.6416  0.6436  0.4388
   16CHL1  H27C 1184  -0.112   5.613   8.384  0.4905  0.3280 -0.6087
   17CHL1    C3 1185   3.041   2.953  10.431 -0.2843 -0.2299 -0.0852
   17CHL1    H3 1186   3.073   2.847  10.422 -2.8721 -0.7313 -5.4626
   17CHL1    O3 1187   3.000   2.965  10.565 -0.1928 -0.3380 -0.2285
   17CHL1   H3' 1188   2.916   3.011  10.561 -0.9645 -1.5706  1.2312
   17CHL1    C4 1189   3.160   3.048  10.393 -0.1195  0.2988  0.0176
   17CHL1   H4A 1190   3.148   3.158  10.402 -1.3148  0.1374  0.4915
   17CHL1   H4B 1191   3.240   3.025  10.467 -0.9320  0.5691  0.9859
   17CHL1    C5 1192   3.205   3.028  10.245  0.2510 -0.0531 -0.0152
   17CHL1    C6 1193   3.335   2.992  10.213  0.2139 -0.3120 -0.3098
   17CHL1    H6 1194   3.405   2.985  10.297 -1.3057  2.4609  1.2627
   17CHL1    C7 1195   3.375   2.948  10.069 -0.0076  0.7998  0.6032
   17CHL1   H7A 1196   3.467   3.000  10.032  0.2900 -1.1088 -1.4314
   17CHL1   H7B 1197   3.404   2.841  10.067  1.7949  1.2780 -3.7848
   17CHL1    C8 1198   3.274   2.994   9.969 -0.6333 -0.1867 -0.0449
   17CHL1    H8 1199   3.280   3.105   9.961 -1.9937 -0.2637 -2.7380
   17CHL1   C14 1200   3.299   2.933   9.836 -0.5134  0.4601 -0.8309
   17CHL1   H14 1201   3.280   2.826   9.857 -1.8951  0.9103  0.3143
   17CHL1   C15 1202   3.439   2.938   9.779 -0.0359 -0.1886 -0.6617
   17CHL1  H15A 1203   3.469   3.044   9.787 -0.3422 -0.2690  2.2072
   17CHL1  H15B 1204   3.513   2.875   9.834 -0.3067 -0.1221 -0.2178
   17CHL1   C16 1205   3.427   2.903   9.626 -0.3136 -0.4213  0.0045
   17CHL1  H16A 1206   3.490   2.973   9.567 -1.6670  0.1197 -0.8260
   17CHL1  H16B 1207   3.478   2.807   9.608  0.5968 -0.5594  2.9884
   17CHL1   C17 1208   3.276   2.900   9.595  0.3917 -0.0811 -0.0525
   17CHL1   H17 1209   3.248   2.793   9.603  1.9407 -0.4931  0.1295
   17CHL1   C13 1210   3.205   2.967   9.721 -0.4981 -0.3453 -0.2269
   17CHL1   C18 1211   3.206   3.123   9.692 -0.2325 -0.4356  0.9541
   17CHL1  H18A 1212   3.116   3.155   9.635  0.8598 -0.8361 -1.0638
   17CHL1  H18B 1213   3.211   3.178   9.788  2.7059  0.0555  0.5777
   17CHL1  H18C 1214   3.291   3.155   9.627 -0.0591  1.6017  2.1127
   17CHL1   C12 1215   3.061   2.916   9.757  0.1520  0.0581  0.0558
   17CHL1  H12A 1216   2.986   2.949   9.682 -0.6025 -2.5530 -0.3818
   17CHL1  H12B 1217   3.055   2.805   9.764 -0.1544  0.1773  2.0172
   17CHL1   C11 1218   3.021   2.972   9.895 -0.4433  0.0855 -0.2089
   17CHL1  H11A 1219   3.011   3.080   9.872 -0.3964  0.0933 -0.1935
   17CHL1  H11B 1220   2.918   2.939   9.918 -0.3735 -0.2836 -0.4221
   17CHL1    C9 1221   3.129   2.958  10.009  0.8152  0.4128  0.2208
   17CHL1    H9 1222   3.124   2.850  10.033  0.9281 -0.8765 -5.0597
   17CHL1   C10 1223   3.085   3.030  10.145  0.3600  0.2971 -0.2784
   17CHL1   C19 1224   3.064   3.185  10.112  0.1053 -0.4365  0.0931
   17CHL1  H19A 1225   2.981   3.195  10.039 -1.0370 -2.1429  1.1179
   17CHL1  H19B 1226   3.043   3.244  10.204 -0.5482 -0.2281 -0.1861
   17CHL1  H19C 1227   3.149   3.229  10.057  0.3105  0.1444  0.8679
   17CHL1    C1 1228   2.960   2.963  10.202  0.2465 -0.1070 -0.0377
   17CHL1   H1A 1229   2.872   2.981  10.135  1.0329 -0.1941 -1.1037
   17CHL1   H1B 1230   2.987   2.856  10.194  0.3629 -0.0065 -1.0733
   17CHL1    C2 1231   2.926   2.990  10.349 -0.2296  0.3775 -0.5520
   17CHL1   H2A 1232   2.831   2.935  10.365  0.6365 -0.8583  0.3724
   17CHL1   H2B 1233   2.900   3.096  10.371 -1.5837 -0.2778  1.1668
   17CHL1   C20 1234   3.257   2.948   9.453 -0.0955 -0.2183 -0.2171
   17CHL1   H20 1235   3.288   3.054   9.455  0.2815 -0.2912 -1.7738
   17CHL1   C21 1236   3.106   2.925   9.417 -0.1915 -0.3138  0.4861
   17CHL1  H21A 1237   3.043   2.970   9.496  0.3003  1.2064  0.0330
   17CHL1  H21B 1238   3.075   2.819   9.401 -2.1510  0.6148 -2.3523
   17CHL1  H21C 1239   3.079   2.976   9.322  1.0441 -2.9410 -1.3460
   17CHL1   C22 1240   3.343   2.884   9.334 -0.8963 -1.0847  0.6091
   17CHL1  H22A 1241   3.452   2.882   9.358 -1.0333 -0.3432  1.3269
   17CHL1  H22B 1242   3.320   2.776   9.322 -3.0790 -0.8539  2.4210
   17CHL1   C23 1243   3.314   2.947   9.191 -0.0412  0.3219  0.0465
   17CHL1  H23A 1244   3.219   2.902   9.154  1.0754 -2.4641  0.4062
   17CHL1  H23B 1245   3.293   3.054   9.211 -1.1962 -0.0103  0.6497
   17CHL1   C24 1246   3.438   2.935   9.096  0.3556  0.7456 -0.6352
   17CHL1  H24A 1247   3.526   2.980   9.148 -0.7128  1.3256  0.7284
   17CHL1  H24B 1248   3.466   2.829   9.081 -1.0383  0.3997 -0.8942
   17CHL1   C25 1249   3.410   3.001   8.957 -0.0835  0.5092 -0.0951
   17CHL1   H25 1250   3.371   3.105   8.968  1.7293  0.8926  3.3079
   17CHL1   C26 1251   3.540   3.007   8.882  0.0128  0.2467  0.3535
   17CHL1  H26A 1252   3.530   3.047   8.779 -1.0505  0.9527  0.7376
   17CHL1  H26B 1253   3.617   3.070   8.933  1.9990  0.8551 -3.2184
   17CHL1  H26C 1254   3.585   2.906   8.869  2.0784  1.2940 -1.0156
   17CHL1   C27 1255   3.302   2.934   8.879  0.6596  0.5081 -0.3377
   17CHL1  H27A 1256   3.310   2.823   8.882  2.1971  0.6073 -0.4938
   17CHL1  H27B 1257   3.201   2.946   8.925 -0.4683 -0.2213 -2.5424
   17CHL1  H27C 1258   3.297   2.980   8.778  3.0117  1.1493 -0.1918
   18CHL1    C3 1259   1.413   1.062  10.287  0.7125  0.6789 -0.3629
   18CHL1    H3 1260   1.310   1.026  10.268  0.1011  1.4338  1.3651
   18CHL1    O3 1261   1.447   1.043  10.423 -0.0295  0.4376 -0.0076
   18CHL1   H3' 1262   1.539   1.068  10.437  0.4897 -2.5113  2.2887
   18CHL1    C4 1263   1.507   0.992  10.192  0.2414  0.4228 -0.0977
   18CHL1   H4A 1264   1.610   1.026  10.215 -0.1669  1.4672  0.2195
   18CHL1   H4B 1265   1.498   0.883  10.213  0.0124  0.6478  1.0156
   18CHL1    C5 1266   1.470   1.023  10.046 -0.1458  0.0548 -0.5633
   18CHL1    C6 1267   1.451   0.923   9.956  0.0884  0.4710 -0.1562
   18CHL1    H6 1268   1.457   0.819   9.992  2.2474  1.0351  1.2084
   18CHL1    C7 1269   1.427   0.937   9.806  0.0330  0.3833  0.2301
   18CHL1   H7A 1270   1.497   0.868   9.754  2.4049  0.8844  2.6455
   18CHL1   H7B 1271   1.320   0.910   9.789  0.0941  0.1777  0.1752
   18CHL1    C8 1272   1.445   1.084   9.760  0.5627 -0.0472 -0.9830
   18CHL1    H8 1273   1.554   1.103   9.745  0.5430  1.1311  0.2689
   18CHL1   C14 1274   1.365   1.107   9.637 -0.0265 -0.6208  0.7067
   18CHL1   H14 1275   1.258   1.083   9.656 -0.1736  0.2579  1.0050
   18CHL1   C15 1276   1.413   1.008   9.530  0.0635 -0.1021 -0.6736
   18CHL1  H15A 1277   1.523   1.018   9.521  0.2559  0.4110  1.8877
   18CHL1  H15B 1278   1.374   0.905   9.546 -1.4504  0.2692 -1.7919
   18CHL1   C16 1279   1.351   1.081   9.409  0.0068 -0.9339 -0.4351
   18CHL1  H16A 1280   1.434   1.066   9.336  0.9285 -0.2264  0.4402
   18CHL1  H16B 1281   1.270   1.018   9.367  0.7104 -1.2031 -1.4293
   18CHL1   C17 1282   1.314   1.230   9.445 -0.5391  0.4097  0.2498
   18CHL1   H17 1283   1.205   1.231   9.464 -0.0730  2.3867  3.0464
   18CHL1   C13 1284   1.384   1.247   9.581 -0.5419  0.3957  0.3317
   18CHL1   C18 1285   1.534   1.290   9.549  0.2815  0.0238  0.4116
   18CHL1  H18A 1286   1.594   1.287   9.642  0.7301 -1.4383  0.0849
   18CHL1  H18B 1287   1.594   1.225   9.482  0.7192  0.3541  0.4807
   18CHL1  H18C 1288   1.546   1.391   9.505 -1.1971 -0.7763 -1.9280
   18CHL1   C12 1289   1.327   1.352   9.685  0.1480  0.3979 -0.1418
   18CHL1  H12A 1290   1.344   1.457   9.651 -1.0705  0.5988 -0.1585
   18CHL1  H12B 1291   1.220   1.328   9.699  0.4298 -2.0759 -1.7765
   18CHL1   C11 1292   1.388   1.332   9.820 -0.5284  0.0226 -0.0270
   18CHL1  H11A 1293   1.490   1.377   9.819 -0.4773 -0.1038 -0.6033
   18CHL1  H11B 1294   1.336   1.398   9.892 -1.7295 -1.2000  0.2371
   18CHL1    C9 1295   1.390   1.184   9.872 -0.1056  0.8029 -0.0639
   18CHL1    H9 1296   1.282   1.162   9.889 -0.2242 -0.2929 -2.1577
   18CHL1   C10 1297   1.466   1.174  10.010 -0.2036  0.6584  0.0526
   18CHL1   C19 1298   1.615   1.211   9.982  0.2064 -0.1747  0.0050
   18CHL1  H19A 1299   1.668   1.159   9.899 -0.6997 -0.0280 -0.6625
   18CHL1  H19B 1300   1.623   1.317   9.951  1.7079  0.0352  1.0381
   18CHL1  H19C 1301   1.678   1.210  10.074  0.4633 -0.6423 -0.1732
   18CHL1    C1 1302   1.384   1.254  10.116  0.3942  0.3436 -0.2162
   18CHL1   H1A 1303   1.404   1.363  10.103  3.2942 -0.2373 -0.7590
   18CHL1   H1B 1304   1.279   1.239  10.083  0.2270  0.2433  0.3461
   18CHL1    C2 1305   1.408   1.216  10.264 -0.1285  0.2879 -0.2511
   18CHL1   H2A 1306   1.330   1.270  10.322  0.5183  1.4448 -0.4326
   18CHL1   H2B 1307   1.506   1.260  10.294  0.2069  0.2304 -1.2564
   18CHL1   C20 1308   1.339   1.340   9.330  0.1224  0.1083 -0.0405
   18CHL1   H20 1309   1.448   1.361   9.323 -0.1532  1.4024 -0.6736
   18CHL1   C21 1310   1.254   1.464   9.367  0.3993 -0.3355 -0.3520
   18CHL1  H21A 1311   1.280   1.505   9.467  0.1263  3.1081 -1.6506
   18CHL1  H21B 1312   1.144   1.449   9.371  0.5753 -1.4370  0.9887
   18CHL1  H21C 1313   1.281   1.545   9.296 -0.4135  0.1969 -0.0550
   18CHL1   C22 1314   1.287   1.293   9.193  0.6107  0.4940  0.1908
   18CHL1  H22A 1315   1.343   1.206   9.152  1.7195  1.6749 -0.8455
   18CHL1  H22B 1316   1.188   1.247   9.209 -0.3165  2.2910 -0.2891
   18CHL1   C23 1317   1.271   1.394   9.086 -0.4144 -0.2601 -0.4006
   18CHL1  H23A 1318   1.213   1.485   9.113 -2.1906 -1.5018  0.1105
   18CHL1  H23B 1319   1.371   1.439   9.068  0.2185 -1.6297 -0.4141
   18CHL1   C24 1320   1.224   1.332   8.964  0.6514 -0.1796  0.1220
   18CHL1  H24A 1321   1.270   1.231   8.951 -0.8509 -1.0773  1.6350
   18CHL1  H24B 1322   1.114   1.317   8.974  0.4045  1.0795 -0.5546
   18CHL1   C25 1323   1.248   1.415   8.840  0.6421 -0.8453  0.0919
   18CHL1   H25 1324   1.354   1.448   8.839 -0.0449  1.4528 -1.0208
   18CHL1   C26 1325   1.206   1.335   8.719 -0.0812  0.1016 -0.3196
   18CHL1  H26A 1326   1.236   1.375   8.620 -0.0236  0.8377 -0.0135
   18CHL1  H26B 1327   1.258   1.237   8.729 -2.8186 -1.7244 -3.0352
   18CHL1  H26C 1328   1.096   1.316   8.718  0.0242 -0.5100 -2.1250
   18CHL1   C27 1329   1.159   1.541   8.837 -0.4696  0.2129 -0.6809
   18CHL1  H27A 1330   1.178   1.600   8.745  1.3929 -0.5724 -0.8386
   18CHL1  H27B 1331   1.052   1.514   8.837 -0.6175  0.7994 -1.2333
   18CHL1  H27C 1332   1.183   1.605   8.924  0.7675  1.5188 -1.9445
   19CHL1    C3 1333   6.130   4.519  10.102 -0.5510 -0.3305  0.1620
   19CHL1    H3 1334   6.050   4.442  10.107  0.1582 -0.9509  2.8973
   19CHL1    O3 1335   6.183   4.550  10.229 -0.6983  0.6704 -0.3263
   19CHL1   H3' 1336   6.273   4.576  10.210 -0.1443 -0.7273  0.2542
   19CHL1    C4 1337   6.234   4.462  10.013 -0.7012  0.5440  0.2027
   19CHL1   H4A 1338   6.321   4.530  10.020  0.3370 -0.7526  0.1350
   19CHL1   H4B 1339   6.268   4.365  10.056  0.0214  0.9211  0.4867
   19CHL1    C5 1340   6.192   4.439   9.866  0.7680  0.6960 -0.5612
   19CHL1    C6 1341   6.193   4.310   9.820 -0.0209  0.3641 -0.3384
   19CHL1    H6 1342   6.239   4.230   9.880  0.3304  1.4282  0.8311
   19CHL1    C7 1343   6.151   4.281   9.677  0.0095  0.0943 -0.9927
   19CHL1   H7A 1344   6.234   4.219   9.637  0.9181 -0.0088  1.0031
   19CHL1   H7B 1345   6.061   4.216   9.686  1.6945 -2.0802  0.7182
   19CHL1    C8 1346   6.132   4.408   9.585  0.1310  0.7044  0.0859
   19CHL1    H8 1347   6.235   4.440   9.560  0.0765  1.7004  1.1080
   19CHL1   C14 1348   6.067   4.369   9.450  0.4653 -0.5691 -0.1343
   19CHL1   H14 1349   5.971   4.320   9.477  0.2996 -1.0166 -1.4635
   19CHL1   C15 1350   6.131   4.260   9.355  0.7700 -1.1990 -0.4444
   19CHL1  H15A 1351   6.236   4.290   9.335  0.5782 -1.9824 -2.7485
   19CHL1  H15B 1352   6.116   4.164   9.408  1.0893 -1.4441 -0.8048
   19CHL1   C16 1353   6.066   4.281   9.217  0.0566  0.5315 -1.0287
   19CHL1  H16A 1354   6.142   4.307   9.140  1.5772 -0.8423 -0.0164
   19CHL1  H16B 1355   6.009   4.191   9.185  3.2654 -1.8303 -0.3832
   19CHL1   C17 1356   5.969   4.410   9.232  0.1804 -0.3155  0.2859
   19CHL1   H17 1357   5.878   4.373   9.284 -0.0806 -0.0418  0.0298
   19CHL1   C13 1358   6.034   4.486   9.357 -0.9587  0.4702 -0.3503
   19CHL1   C18 1359   6.162   4.564   9.317  0.9418 -0.2539 -0.3750
   19CHL1  H18A 1360   6.213   4.598   9.410 -0.1875 -0.0387  0.1817
   19CHL1  H18B 1361   6.238   4.505   9.261 -0.7034 -0.3154 -2.6143
   19CHL1  H18C 1362   6.135   4.653   9.255  0.1438  1.1941  1.9794
   19CHL1   C12 1363   5.936   4.575   9.431  0.1101 -0.1723 -0.7904
   19CHL1  H12A 1364   5.899   4.661   9.371 -1.3554 -0.9281 -0.9901
   19CHL1  H12B 1365   5.845   4.518   9.462  0.0805 -0.7452 -1.8927
   19CHL1   C11 1366   5.999   4.629   9.570  0.3441  0.3820  0.4506
   19CHL1  H11A 1367   6.077   4.702   9.537 -1.8292  1.3554 -2.8040
   19CHL1  H11B 1368   5.928   4.694   9.626 -0.6165  0.4037 -0.7746
   19CHL1    C9 1369   6.047   4.515   9.657  0.9038  0.0440  0.2694
   19CHL1    H9 1370   5.948   4.468   9.676  1.8839 -1.7041  1.2311
   19CHL1   C10 1371   6.116   4.553   9.792  0.1765  0.1767  0.4862
   19CHL1   C19 1372   6.214   4.669   9.754 -0.6149  0.1650 -0.0189
   19CHL1  H19A 1373   6.290   4.640   9.678  1.3710  2.9136  0.8465
   19CHL1  H19B 1374   6.155   4.758   9.723 -0.2472 -0.4441 -2.5970
   19CHL1  H19C 1375   6.273   4.701   9.843  2.1310 -3.8387 -0.2676
   19CHL1    C1 1376   6.006   4.601   9.895 -0.6400 -0.0765 -0.2031
   19CHL1   H1A 1377   5.964   4.698   9.858 -1.4825 -1.0722 -1.9154
   19CHL1   H1B 1378   5.923   4.531   9.916 -0.2051  0.2770  2.8228
   19CHL1    C2 1379   6.070   4.639  10.033 -0.3561 -0.1927 -0.6162
   19CHL1   H2A 1380   5.992   4.675  10.103  0.4756 -0.2420  0.3526
   19CHL1   H2B 1381   6.145   4.717  10.005 -0.1072 -0.9059 -1.9578
   19CHL1   C20 1382   5.923   4.478   9.105 -0.1962 -0.5282  1.3721
   19CHL1   H20 1383   5.871   4.575   9.123 -0.7765 -0.4672 -0.5714
   19CHL1   C21 1384   5.817   4.381   9.040 -0.0312 -0.8061  0.6254
   19CHL1  H21A 1385   5.860   4.279   9.041 -0.6166 -1.0725 -1.1487
   19CHL1  H21B 1386   5.792   4.408   8.935 -2.2254  0.2196  1.3630
   19CHL1  H21C 1387   5.730   4.373   9.109 -0.1225 -0.5296  0.5456
   19CHL1   C22 1388   6.045   4.505   9.009  0.3168  0.0417  0.5424
   19CHL1  H22A 1389   6.120   4.557   9.074  1.6217  0.4007 -1.2090
   19CHL1  H22B 1390   6.075   4.408   8.965 -2.2773 -0.5389 -0.0202
   19CHL1   C23 1391   6.020   4.608   8.898 -0.1136  0.3356  0.8556
   19CHL1  H23A 1392   5.955   4.559   8.823 -0.0436  0.5497  0.6582
   19CHL1  H23B 1393   5.981   4.701   8.944  1.3711  1.3011  0.2252
   19CHL1   C24 1394   6.153   4.628   8.827  0.3595 -0.6736 -0.4817
   19CHL1  H24A 1395   6.225   4.672   8.899 -0.6618  1.1932 -0.5561
   19CHL1  H24B 1396   6.188   4.527   8.799  1.6522 -0.0305 -1.2447
   19CHL1   C25 1397   6.147   4.712   8.700  0.9514  0.3659 -0.3675
   19CHL1   H25 1398   6.074   4.656   8.638  2.4225 -2.6543  0.5551
   19CHL1   C26 1399   6.088   4.857   8.733 -0.6144  0.5445 -0.3106
   19CHL1  H26A 1400   5.981   4.851   8.762 -1.1448 -1.2171 -2.5356
   19CHL1  H26B 1401   6.138   4.920   8.810  0.3161  0.0546 -0.5076
   19CHL1  H26C 1402   6.083   4.922   8.643 -1.5820 -1.5165 -1.7833
   19CHL1   C27 1403   6.284   4.728   8.634  0.1501  0.8584  0.1178
   19CHL1  H27A 1404   6.321   4.625   8.617 -2.3049  0.1338 -1.0705
   19CHL1  H27B 1405   6.280   4.791   8.542 -0.1446  0.3186 -0.2430
   19CHL1  H27C 1406   6.348   4.775   8.711  0.2124 -0.1205  0.6744
   20CHL1    C3 1407   1.043   5.406  10.303 -0.5911  0.7969 -0.1636
   20CHL1    H3 1408   0.950   5.348  10.321  0.4243 -0.5884  0.7781
   20CHL1    O3 1409   1.065   5.478  10.422 -0.2588 -0.1347  0.0211
   20CHL1   H3' 1410   1.156   5.508  10.421  0.2154 -1.5091  1.1523
   20CHL1    C4 1411   1.165   5.315  10.281 -0.2419  0.5844  0.1860
   20CHL1   H4A 1412   1.259   5.374  10.284  0.0141  0.1409  1.1149
   20CHL1   H4B 1413   1.159   5.243  10.366 -0.5136  1.9522  1.3538
   20CHL1    C5 1414   1.155   5.257  10.140 -0.2312 -0.2600 -0.2677
   20CHL1    C6 1415   1.150   5.122  10.130  0.0062  0.1924 -0.0329
   20CHL1    H6 1416   1.153   5.061  10.222 -0.6236  0.5442  0.2200
   20CHL1    C7 1417   1.149   5.048  10.002  0.4847 -0.1010 -0.2888
   20CHL1   H7A 1418   1.218   4.962  10.014  2.2055  1.3379  0.4712
   20CHL1   H7B 1419   1.045   5.016   9.979  0.4205  1.0657 -1.7604
   20CHL1    C8 1420   1.189   5.132   9.876  0.2025  0.2117  0.0376
   20CHL1    H8 1421   1.299   5.143   9.885 -0.0341  0.3193  3.3870
   20CHL1   C14 1422   1.160   5.057   9.740  0.1025 -0.1182  0.1334
   20CHL1   H14 1423   1.051   5.049   9.757  0.2463  1.3607  1.9535
   20CHL1   C15 1424   1.227   4.915   9.717 -0.1994  0.3537  0.1707
   20CHL1  H15A 1425   1.336   4.930   9.732  0.3209 -1.9641 -1.0027
   20CHL1  H15B 1426   1.185   4.834   9.781  0.3893  3.0855  4.1372
   20CHL1   C16 1427   1.202   4.898   9.565 -0.3425 -0.5072 -0.1892
   20CHL1  H16A 1428   1.297   4.873   9.514 -0.0465 -0.0789  0.1405
   20CHL1  H16B 1429   1.130   4.818   9.537  0.5506 -1.4066  0.0614
   20CHL1   C17 1430   1.157   5.034   9.499  0.5024  1.1476 -0.2885
   20CHL1   H17 1431   1.046   5.041   9.503  0.4867 -0.0579  3.3961
   20CHL1   C13 1432   1.187   5.141   9.614 -0.0233  0.9631  0.2056
   20CHL1   C18 1433   1.333   5.171   9.608 -0.4486  0.4637  0.6145
   20CHL1  H18A 1434   1.397   5.080   9.611  0.4551  1.0983  0.9509
   20CHL1  H18B 1435   1.370   5.223   9.516  3.0798 -0.7033  1.2612
   20CHL1  H18C 1436   1.379   5.224   9.694 -1.6471  2.0423  0.2965
   20CHL1   C12 1437   1.097   5.267   9.625 -0.3923  0.3876  0.5792
   20CHL1  H12A 1438   1.116   5.334   9.539 -1.2146 -0.5230 -0.3317
   20CHL1  H12B 1439   0.990   5.237   9.619 -0.4078  0.3709  0.9386
   20CHL1   C11 1440   1.128   5.351   9.749 -0.3578 -0.9465 -1.0669
   20CHL1  H11A 1441   1.231   5.390   9.735 -0.3839 -1.2138 -2.1074
   20CHL1  H11B 1442   1.063   5.440   9.749  0.3912 -0.3684  1.6922
   20CHL1    C9 1443   1.113   5.271   9.885 -0.7775  0.2513  0.1121
   20CHL1    H9 1444   1.003   5.251   9.890 -0.2385 -2.9614 -0.2249
   20CHL1   C10 1445   1.145   5.356  10.016 -0.5417  0.7190 -0.1179
   20CHL1   C19 1446   1.280   5.431  10.003  0.4026 -0.2667  0.1168
   20CHL1  H19A 1447   1.312   5.467  10.103  0.2297  0.0739  0.0470
   20CHL1  H19B 1448   1.356   5.352   9.986  0.4035 -0.4805  1.0789
   20CHL1  H19C 1449   1.279   5.510   9.925 -0.9601  2.0696  2.4273
   20CHL1    C1 1450   1.031   5.455  10.050 -0.0225 -0.0177 -0.5960
   20CHL1   H1A 1451   1.055   5.536   9.978 -0.2533  0.2415 -0.3854
   20CHL1   H1B 1452   0.934   5.414  10.014  0.9958 -1.6319 -1.5362
   20CHL1    C2 1453   1.029   5.510  10.190 -0.2019 -0.5307  0.0006
   20CHL1   H2A 1454   0.936   5.570  10.202 -0.3385 -0.7067 -0.1692
   20CHL1   H2B 1455   1.112   5.581  10.209 -0.4220 -0.4238  0.5643
   20CHL1   C20 1456   1.203   5.061   9.353  0.4563 -0.4098 -0.3758
   20CHL1   H20 1457   1.309   5.095   9.358 -0.2226  1.8947 -0.9282
   20CHL1   C21 1458   1.135   5.184   9.296  0.1948 -1.0510  0.2755
   20CHL1  H21A 1459   1.096   5.169   9.194  0.6613 -1.3463  0.1378
   20CHL1  H21B 1460   1.207   5.268   9.285 -1.4662  0.4369  0.6581
   20CHL1  H21C 1461   1.045   5.215   9.352  1.9314 -2.8263  4.2819
   20CHL1   C22 1462   1.195   4.932   9.262  0.2031  0.3557  0.6497
   20CHL1  H22A 1463   1.232   4.959   9.161 -0.8903  1.9220  0.6450
   20CHL1  H22B 1464   1.267   4.857   9.299 -1.2460 -1.3401  0.1034
   20CHL1   C23 1465   1.055   4.876   9.243  0.1187 -0.1502  0.4503
   20CHL1  H23A 1466   1.011   4.879   9.345 -1.2109  4.7315 -0.1317
   20CHL1  H23B 1467   0.999   4.947   9.178  2.3820  1.5197  0.2876
   20CHL1   C24 1468   1.052   4.738   9.178  0.2777  0.2260  0.1796
   20CHL1  H24A 1469   1.115   4.741   9.087  1.0462  0.4927  0.7032
   20CHL1  H24B 1470   1.084   4.673   9.263 -2.4981  0.2557  1.2877
   20CHL1   C25 1471   0.902   4.700   9.159  0.0900  0.3114  0.3931
   20CHL1   H25 1472   0.841   4.788   9.131  1.4052  0.3078 -2.6399
   20CHL1   C26 1473   0.904   4.589   9.053  0.4068 -0.1820  0.5137
   20CHL1  H26A 1474   0.807   4.567   9.004 -0.0376 -1.2924  1.8500
   20CHL1  H26B 1475   0.980   4.629   8.983  0.7181  1.1217  1.5787
   20CHL1  H26C 1476   0.937   4.494   9.100  0.2426 -0.6834 -0.3767
   20CHL1   C27 1477   0.842   4.645   9.285  0.6541 -0.0400  0.0253
   20CHL1  H27A 1478   0.888   4.551   9.323  1.4143  0.7815  1.1631
   20CHL1  H27B 1479   0.853   4.731   9.354 -1.3021  2.2891 -2.4890
   20CHL1  H27C 1480   0.739   4.613   9.259  0.7345  0.6623 -1.1535
   21CHL1    C3 1481   0.804   1.480  10.066 -1.0569  0.0404 -0.1182
   21CHL1    H3 1482   0.843   1.582  10.083 -0.2747 -0.2426 -0.1799
   21CHL1    O3 1483   0.795   1.417  10.191 -0.1101  0.4971 -0.0132
   21CHL1   H3' 1484   0.728   1.462  10.242 -0.4838  1.6388 -1.4836
   21CHL1    C4 1485   0.664   1.476  10.013 -0.0500  0.2031  0.0983
   21CHL1   H4A 1486   0.622   1.375  10.031 -1.7397  1.3685  3.0620
   21CHL1   H4B 1487   0.602   1.528  10.089 -1.1058  0.4217 -0.9032
   21CHL1    C5 1488   0.632   1.517   9.868 -0.5918  0.4563  0.0294
   21CHL1    C6 1489   0.536   1.606   9.833 -0.6073  0.6910  0.0994
   21CHL1    H6 1490   0.468   1.647   9.909 -1.1186  2.0930 -1.1007
   21CHL1    C7 1491   0.521   1.666   9.691 -0.2587  0.3645  0.5697
   21CHL1   H7A 1492   0.415   1.674   9.659 -0.1845  2.3111  0.7779
   21CHL1   H7B 1493   0.559   1.770   9.687  1.4009 -0.2233  0.5324
   21CHL1    C8 1494   0.592   1.585   9.581 -0.4529  1.1238  0.0123
   21CHL1    H8 1495   0.545   1.485   9.565  1.4320  0.1949  0.0518
   21CHL1   C14 1496   0.603   1.665   9.455  0.5308  0.4268 -0.4732
   21CHL1   H14 1497   0.653   1.761   9.481  0.5972  0.0262  0.9182
   21CHL1   C15 1498   0.470   1.700   9.401  0.2594 -0.1719  0.0922
   21CHL1  H15A 1499   0.396   1.619   9.387  0.9700 -1.5029  3.5758
   21CHL1  H15B 1500   0.421   1.776   9.466  0.2689  0.6816 -0.8774
   21CHL1   C16 1501   0.512   1.759   9.267  0.3795 -0.4302 -0.5488
   21CHL1  H16A 1502   0.461   1.701   9.187 -1.3976  1.7100 -1.0169
   21CHL1  H16B 1503   0.481   1.861   9.239  0.4413 -0.2829 -0.0923
   21CHL1   C17 1504   0.669   1.732   9.250 -0.4942  0.9833 -0.6369
   21CHL1   H17 1505   0.730   1.820   9.279 -0.8357  1.4650 -1.3634
   21CHL1   C13 1506   0.689   1.615   9.342 -0.0269  0.2968 -0.3103
   21CHL1   C18 1507   0.621   1.489   9.282  0.9301  0.5269  0.0227
   21CHL1  H18A 1508   0.543   1.505   9.205  2.3039 -0.0949 -1.5260
   21CHL1  H18B 1509   0.696   1.419   9.238 -1.8469  0.1389 -4.3457
   21CHL1  H18C 1510   0.568   1.425   9.356 -1.1037  1.5947 -0.4940
   21CHL1   C12 1511   0.839   1.592   9.394  0.2463 -0.8835 -0.4733
   21CHL1  H12A 1512   0.916   1.552   9.324  0.0794 -1.3152 -0.4151
   21CHL1  H12B 1513   0.872   1.691   9.430  0.0891 -1.0594  0.1468
   21CHL1   C11 1514   0.834   1.497   9.516  0.4130  1.1251  0.5553
   21CHL1  H11A 1515   0.801   1.397   9.482  1.5130  0.8082  0.4052
   21CHL1  H11B 1516   0.936   1.479   9.556  0.1797 -1.6975 -0.0221
   21CHL1    C9 1517   0.734   1.547   9.628  0.1109 -0.0137 -0.6409
   21CHL1    H9 1518   0.772   1.648   9.651 -0.1671  0.3145 -1.6187
   21CHL1   C10 1519   0.737   1.465   9.765  0.0692 -0.6200 -0.4727
   21CHL1   C19 1520   0.682   1.321   9.735  0.0667  0.0613 -0.2850
   21CHL1  H19A 1521   0.586   1.321   9.678  0.1034 -0.7583 -0.3449
   21CHL1  H19B 1522   0.755   1.273   9.666  0.8849  0.1783  0.5027
   21CHL1  H19C 1523   0.664   1.262   9.826  0.5090 -1.5158 -1.2004
   21CHL1    C1 1524   0.880   1.460   9.830 -0.3087  0.1163 -0.2355
   21CHL1   H1A 1525   0.952   1.416   9.758  0.9714 -1.4769  1.9834
   21CHL1   H1B 1526   0.909   1.567   9.844 -2.5894  0.6810  0.4241
   21CHL1    C2 1527   0.893   1.400   9.971 -0.4040  0.3219 -0.3482
   21CHL1   H2A 1528   0.997   1.406  10.010 -1.2929 -0.6788  2.2792
   21CHL1   H2B 1529   0.862   1.294   9.970  0.2118  0.1325 -0.0598
   21CHL1   C20 1530   0.703   1.711   9.102  0.4850 -0.1619  0.3609
   21CHL1   H20 1531   0.650   1.625   9.056 -1.0996  1.3001 -0.5880
   21CHL1   C21 1532   0.853   1.679   9.085 -0.1831 -0.5487 -0.0248
   21CHL1  H21A 1533   0.906   1.771   9.118 -2.3717  0.4665  0.7217
   21CHL1  H21B 1534   0.872   1.663   8.977  0.3485 -1.5508  0.2081
   21CHL1  H21C 1535   0.889   1.592   9.145  3.7078  1.7137  1.0881
   21CHL1   C22 1536   0.671   1.852   9.030 -0.3997 -0.2825  0.1730
   21CHL1  H22A 1537   0.566   1.883   9.047 -0.2241  0.6785 -0.5208
   21CHL1  H22B 1538   0.731   1.934   9.074 -0.7727 -0.3877  0.8845
   21CHL1   C23 1539   0.670   1.849   8.877 -0.1948 -0.3519  1.0024
   21CHL1  H23A 1540   0.723   1.760   8.838 -2.3877 -1.1933 -0.1610
   21CHL1  H23B 1541   0.567   1.842   8.835  0.2056  1.1772 -0.2828
   21CHL1   C24 1542   0.735   1.970   8.815  0.1896  0.4964 -0.1406
   21CHL1  H24A 1543   0.680   2.056   8.860 -1.4167 -1.0051  0.8513
   21CHL1  H24B 1544   0.839   1.993   8.844 -0.7075  2.2937  1.7922
   21CHL1   C25 1545   0.728   1.978   8.659  0.3468  0.0016 -0.2290
   21CHL1   H25 1546   0.620   1.980   8.632  0.5796  2.1392 -1.0542
   21CHL1   C26 1547   0.784   2.117   8.616  0.0630  0.5456 -0.0655
   21CHL1  H26A 1548   0.790   2.119   8.505  1.6760 -1.6427 -0.0399
   21CHL1  H26B 1549   0.719   2.202   8.647 -0.1192 -0.0787  1.2923
   21CHL1  H26C 1550   0.885   2.112   8.662  0.2683 -1.5942 -0.7350
   21CHL1   C27 1551   0.795   1.862   8.587  0.4059  0.1041  0.0488
   21CHL1  H27A 1552   0.755   1.764   8.621  1.5384 -0.0649  0.8941
   21CHL1  H27B 1553   0.781   1.869   8.477 -2.3583  0.5978  0.3779
   21CHL1  H27C 1554   0.904   1.874   8.600  0.2640 -0.7901  2.1867
   22CHL1    C3 1555   0.728   2.615  10.286 -0.7056  0.3701  0.0891
   22CHL1    H3 1556   0.718   2.726  10.290  2.1021  0.6140  1.4469
   22CHL1    O3 1557   0.743   2.568  10.412 -0.4313  0.0210 -0.1242
   22CHL1   H3' 1558   0.823   2.612  10.443 -0.4078 -0.9476  1.2247
   22CHL1    C4 1559   0.593   2.564  10.232 -0.5300 -0.2814 -0.8938
   22CHL1   H4A 1560   0.603   2.454  10.242  0.5344 -0.0169  1.5500
   22CHL1   H4B 1561   0.523   2.594  10.314 -0.8558 -3.2465 -0.0538
   22CHL1    C5 1562   0.569   2.621  10.094  0.2807 -0.3603 -0.3992
   22CHL1    C6 1563   0.472   2.719  10.072  0.6459 -0.1122  0.2579
   22CHL1    H6 1564   0.406   2.749  10.155 -0.3746  0.7283 -0.8495
   22CHL1    C7 1565   0.432   2.769   9.936  0.2881  0.1676 -0.5366
   22CHL1   H7A 1566   0.323   2.762   9.917  0.0329  0.4172  0.8057
   22CHL1   H7B 1567   0.454   2.878   9.927 -1.6984  0.5761 -0.6553
   22CHL1    C8 1568   0.507   2.687   9.822  0.1553  0.1537  0.5672
   22CHL1    H8 1569   0.456   2.589   9.814  0.2918  0.1113  0.1760
   22CHL1   C14 1570   0.500   2.761   9.680 -0.1489  0.3127  0.2223
   22CHL1   H14 1571   0.536   2.861   9.713 -2.3847  0.8783  1.0553
   22CHL1   C15 1572   0.364   2.796   9.629  0.8933 -0.3606  0.5148
   22CHL1  H15A 1573   0.285   2.721   9.652 -0.6505  0.6355 -1.4512
   22CHL1  H15B 1574   0.334   2.888   9.683 -0.4875 -0.0343 -0.7853
   22CHL1   C16 1575   0.386   2.821   9.475  0.0774 -0.5272  0.5238
   22CHL1  H16A 1576   0.328   2.741   9.425 -0.9767  1.3653 -1.4196
   22CHL1  H16B 1577   0.348   2.922   9.446 -0.9612 -1.0601 -0.0139
   22CHL1   C17 1578   0.538   2.790   9.450 -0.3419  0.1631  0.7436
   22CHL1   H17 1579   0.591   2.888   9.449 -1.4856  0.7975  0.6225
   22CHL1   C13 1580   0.580   2.700   9.569 -0.1050  1.0157  0.0920
   22CHL1   C18 1581   0.531   2.555   9.544  0.4961 -0.4908 -0.1580
   22CHL1  H18A 1582   0.425   2.551   9.512  0.1253 -0.8507  1.0908
   22CHL1  H18B 1583   0.593   2.497   9.472 -0.4871 -0.6328 -0.8894
   22CHL1  H18C 1584   0.527   2.498   9.639  1.7537 -1.0361 -0.4233
   22CHL1   C12 1585   0.723   2.701   9.616 -0.2674 -0.5070  0.5310
   22CHL1  H12A 1586   0.787   2.643   9.546  1.0783  1.3170  0.1965
   22CHL1  H12B 1587   0.751   2.809   9.616 -0.9358 -0.3260  0.0828
   22CHL1   C11 1588   0.744   2.631   9.741 -0.2393  0.1139 -0.6594
   22CHL1  H11A 1589   0.729   2.523   9.722 -3.7732 -0.0046  2.3212
   22CHL1  H11B 1590   0.849   2.645   9.776 -0.6634  0.1188  0.6642
   22CHL1    C9 1591   0.656   2.671   9.861 -0.1501  0.1969 -0.7624
   22CHL1    H9 1592   0.687   2.774   9.891  2.0045 -1.0426  1.4784
   22CHL1   C10 1593   0.673   2.589   9.994  0.1772 -0.1661 -0.1253
   22CHL1   C19 1594   0.657   2.444   9.952 -0.0177 -0.4157 -0.4239
   22CHL1  H19A 1595   0.553   2.417   9.920 -0.1988  1.3369 -1.4076
   22CHL1  H19B 1596   0.730   2.410   9.876  1.2528  1.1732  0.0573
   22CHL1  H19C 1597   0.665   2.376  10.039 -0.6806 -1.6904 -1.3372
   22CHL1    C1 1598   0.813   2.617  10.042  0.2562  0.1656  0.2447
   22CHL1   H1A 1599   0.890   2.577   9.973 -0.3209  0.9680 -0.8727
   22CHL1   H1B 1600   0.830   2.727  10.046 -1.8782  0.5024  0.2553
   22CHL1    C2 1601   0.838   2.565  10.188 -0.6819 -0.7848  0.5708
   22CHL1   H2A 1602   0.935   2.598  10.233 -1.1456 -1.9792  2.5203
   22CHL1   H2B 1603   0.838   2.454  10.188  0.5625 -0.7914 -0.2181
   22CHL1   C20 1604   0.559   2.734   9.308 -0.3714 -0.1041  0.2817
   22CHL1   H20 1605   0.500   2.642   9.289  1.0825 -1.2884  1.4176
   22CHL1   C21 1606   0.710   2.700   9.297  0.1069  0.2052  0.2263
   22CHL1  H21A 1607   0.745   2.608   9.347 -1.9925 -0.1508  1.0648
   22CHL1  H21B 1608   0.770   2.780   9.346 -0.8727  0.5528  0.8624
   22CHL1  H21C 1609   0.741   2.695   9.190  1.3217  0.7518  0.5380
   22CHL1   C22 1610   0.511   2.835   9.199  0.2317 -0.1993  0.4701
   22CHL1  H22A 1611   0.404   2.860   9.216  0.5075  2.6529 -1.7969
   22CHL1  H22B 1612   0.577   2.924   9.203  0.3637 -0.3359  1.7623
   22CHL1   C23 1613   0.513   2.782   9.055  0.2208  0.7672 -0.2278
   22CHL1  H23A 1614   0.621   2.764   9.038  1.0939  3.5960  1.9344
   22CHL1  H23B 1615   0.467   2.681   9.044 -1.4853  1.3245  1.4695
   22CHL1   C24 1616   0.451   2.873   8.949 -0.4190 -0.4138 -0.4293
   22CHL1  H24A 1617   0.341   2.872   8.964 -0.3148  0.7266  0.4168
   22CHL1  H24B 1618   0.491   2.977   8.951 -1.0730 -0.1763  0.2555
   22CHL1   C25 1619   0.462   2.823   8.801  0.6396 -0.5869 -0.3201
   22CHL1   H25 1620   0.411   2.725   8.793  1.8580 -1.2631  0.1285
   22CHL1   C26 1621   0.384   2.916   8.712  0.1297  0.5744 -0.0930
   22CHL1  H26A 1622   0.396   2.885   8.606 -1.1351 -2.0042  0.4689
   22CHL1  H26B 1623   0.275   2.906   8.734 -0.4992 -0.3482 -3.3570
   22CHL1  H26C 1624   0.417   3.020   8.732  0.2226  0.3207  1.1143
   22CHL1   C27 1625   0.605   2.816   8.754 -0.4656  0.4510  0.1793
   22CHL1  H27A 1626   0.656   2.740   8.817  1.8923 -0.0721 -2.3043
   22CHL1  H27B 1627   0.622   2.791   8.647  2.0492  2.8243 -0.0056
   22CHL1  H27C 1628   0.654   2.914   8.765 -2.1926  1.3942 -0.2749
   23CHL1    C3 1629   4.505   4.098  10.289  0.2241 -0.6659 -0.1590
   23CHL1    H3 1630   4.442   4.186  10.265  1.8302  0.2873 -0.9594
   23CHL1    O3 1631   4.499   4.080  10.431  0.7314 -0.0621 -0.0657
   23CHL1   H3' 1632   4.585   4.046  10.457  1.3557  1.4989 -0.0362
   23CHL1    C4 1633   4.440   3.975  10.218  0.6397 -0.2310  0.0093
   23CHL1   H4A 1634   4.473   3.878  10.261 -0.9900 -0.6765  0.3274
   23CHL1   H4B 1635   4.331   3.976  10.240  0.5506  0.2087 -0.4688
   23CHL1    C5 1636   4.456   3.965  10.069 -0.3134  0.5168 -0.7428
   23CHL1    C6 1637   4.354   3.937   9.986  0.3068  0.9340 -0.8394
   23CHL1    H6 1638   4.254   3.907  10.020  0.4331  0.6720 -0.7050
   23CHL1    C7 1639   4.364   3.940   9.834  0.5766  0.5430  0.2400
   23CHL1   H7A 1640   4.303   3.861   9.785  1.6626 -0.4607  0.4504
   23CHL1   H7B 1641   4.318   4.035   9.801  1.4150  0.8995  0.0867
   23CHL1    C8 1642   4.512   3.929   9.784  0.4104 -0.0471  0.0618
   23CHL1    H8 1643   4.526   3.819   9.797  0.9432  0.1917  1.6066
   23CHL1   C14 1644   4.519   3.968   9.637 -0.1720 -0.0142  0.3248
   23CHL1   H14 1645   4.492   4.075   9.638  0.7277  0.2191  2.0441
   23CHL1   C15 1646   4.426   3.889   9.542  0.4878 -0.0804 -0.3200
   23CHL1  H15A 1647   4.430   3.783   9.575  1.3555 -0.0596 -0.3464
   23CHL1  H15B 1648   4.322   3.926   9.546 -0.1692 -1.6434 -2.1150
   23CHL1   C16 1649   4.496   3.920   9.402 -0.2219 -0.5649 -0.3118
   23CHL1  H16A 1650   4.519   3.827   9.345 -0.9574 -0.6595 -0.4620
   23CHL1  H16B 1651   4.435   3.983   9.334  0.6761  1.1501  0.4480
   23CHL1   C17 1652   4.624   4.002   9.431 -0.1294  0.1974  1.0375
   23CHL1   H17 1653   4.589   4.108   9.428 -1.4979 -0.2737 -2.3176
   23CHL1   C13 1654   4.660   3.962   9.571 -0.1016  0.4204 -0.2605
   23CHL1   C18 1655   4.728   3.823   9.575 -0.5519  0.2124 -0.1199
   23CHL1  H18A 1656   4.690   3.745   9.505  2.2296 -0.6758 -0.6883
   23CHL1  H18B 1657   4.836   3.826   9.549 -0.2837  0.2812  0.9943
   23CHL1  H18C 1658   4.719   3.778   9.676  1.5337  1.0306  0.4551
   23CHL1   C12 1659   4.738   4.057   9.654  0.1434 -0.6141 -0.9224
   23CHL1  H12A 1660   4.843   4.047   9.619 -0.0952  0.2185 -1.9005
   23CHL1  H12B 1661   4.700   4.161   9.648  1.0533 -0.0688  1.9757
   23CHL1   C11 1662   4.748   4.021   9.801  0.5633 -0.8905  0.1649
   23CHL1  H11A 1663   4.802   3.925   9.814  1.4358 -0.4750 -0.2915
   23CHL1  H11B 1664   4.807   4.099   9.855  0.1057  0.1529 -0.8019
   23CHL1    C9 1665   4.610   4.017   9.870  0.0358  0.3420  0.2381
   23CHL1    H9 1666   4.578   4.120   9.845  1.2462  0.0719 -2.5555
   23CHL1   C10 1667   4.598   3.996  10.026 -0.9125  0.1636 -0.2915
   23CHL1   C19 1668   4.693   3.870  10.071 -0.6019  0.1959  0.3242
   23CHL1  H19A 1669   4.798   3.899  10.051 -1.0387  0.3141 -1.9185
   23CHL1  H19B 1670   4.690   3.866  10.182 -0.7518  1.3475  0.3716
   23CHL1  H19C 1671   4.668   3.774  10.021 -0.9844  0.7677 -0.5923
   23CHL1    C1 1672   4.660   4.122  10.088  0.5161  0.2955 -0.1388
   23CHL1   H1A 1673   4.766   4.133  10.057  0.1463  1.2315 -1.0787
   23CHL1   H1B 1674   4.599   4.204  10.044 -0.1057  1.3862  2.6412
   23CHL1    C2 1675   4.649   4.132  10.235 -0.0770 -0.8516  0.6061
   23CHL1   H2A 1676   4.682   4.231  10.274  1.7442 -1.4062  0.5399
   23CHL1   H2B 1677   4.713   4.054  10.283 -0.8752 -3.0608 -1.8437
   23CHL1   C20 1678   4.740   3.997   9.326  0.2934 -0.3625  0.5426
   23CHL1   H20 1679   4.763   3.889   9.329 -3.2211 -1.1506  1.0423
   23CHL1   C21 1680   4.846   4.101   9.356 -0.5729 -0.2181 -0.1730
   23CHL1  H21A 1681   4.823   4.205   9.323 -2.7495 -0.2988  1.0222
   23CHL1  H21B 1682   4.927   4.071   9.286 -0.2908 -2.8211  1.1892
   23CHL1  H21C 1683   4.892   4.099   9.457  0.6278  2.2232 -0.6364
   23CHL1   C22 1684   4.692   4.018   9.177  0.2831  0.2763  0.5076
   23CHL1  H22A 1685   4.595   3.966   9.164 -0.2811  1.1780  1.0418
   23CHL1  H22B 1686   4.682   4.129   9.179 -0.0408  0.2817 -0.7687
   23CHL1   C23 1687   4.781   3.984   9.060  0.6769 -0.5299 -0.7068
   23CHL1  H23A 1688   4.877   4.038   9.071  0.8001 -0.8843 -0.0264
   23CHL1  H23B 1689   4.796   3.875   9.076 -1.6223 -0.7966 -0.1380
   23CHL1   C24 1690   4.725   4.009   8.923 -0.4475  0.1636 -0.0668
   23CHL1  H24A 1691   4.653   3.928   8.897 -1.2087  1.5167 -2.3055
   23CHL1  H24B 1692   4.669   4.105   8.918 -0.3341  0.2928  1.0014
   23CHL1   C25 1693   4.818   4.013   8.804  0.3569 -0.1128  0.0851
   23CHL1   H25 1694   4.874   3.917   8.799  2.0203  0.9479 -2.2921
   23CHL1   C26 1695   4.747   4.038   8.672 -0.5292 -0.2988  0.8063
   23CHL1  H26A 1696   4.820   4.044   8.588 -1.0856 -1.4270  0.2249
   23CHL1  H26B 1697   4.683   3.951   8.646  0.1823 -0.3491 -0.8562
   23CHL1  H26C 1698   4.685   4.130   8.673 -1.7206 -1.0810  0.1342
   23CHL1   C27 1699   4.929   4.116   8.817 -0.3421  0.0680  0.3467
   23CHL1  H27A 1700   4.982   4.118   8.914 -0.5117  0.6591  0.4313
   23CHL1  H27B 1701   5.006   4.096   8.739  2.1462 -0.3834  2.8640
   23CHL1  H27C 1702   4.906   4.224   8.808 -2.6399 -0.2721  1.7105
   24CHL1    C3 1703   5.321   5.300  10.227  0.0458  0.5835  0.4904
   24CHL1    H3 1704   5.283   5.403  10.208  0.6189  0.8999  1.0351
   24CHL1    O3 1705   5.337   5.296  10.367 -0.1003  0.4171 -0.3787
   24CHL1   H3' 1706   5.287   5.367  10.410 -0.8893 -1.0865  1.2413
   24CHL1    C4 1707   5.231   5.191  10.166 -0.1236 -0.3152  0.3328
   24CHL1   H4A 1708   5.282   5.095  10.191  0.8239  0.1962  0.3905
   24CHL1   H4B 1709   5.131   5.189  10.213 -2.0385 -1.1772 -3.5390
   24CHL1    C5 1710   5.223   5.203  10.014 -0.9829  0.2112 -0.4081
   24CHL1    C6 1711   5.108   5.212   9.957  0.4413  0.5158  0.5718
   24CHL1    H6 1712   5.015   5.201  10.014  0.2537 -0.8471  0.0018
   24CHL1    C7 1713   5.085   5.238   9.811 -0.0375  0.1094  0.5325
   24CHL1   H7A 1714   4.992   5.189   9.776  0.0916  0.1919  0.0702
   24CHL1   H7B 1715   5.067   5.346   9.792 -0.6990  0.3207  2.2584
   24CHL1    C8 1716   5.211   5.204   9.723 -0.4964  0.3810  0.3343
   24CHL1    H8 1717   5.225   5.094   9.729 -0.5887  0.1782 -2.5434
   24CHL1   C14 1718   5.195   5.236   9.573  0.5418 -0.4501  0.9111
   24CHL1   H14 1719   5.185   5.347   9.564 -1.1926 -0.6389  0.4211
   24CHL1   C15 1720   5.075   5.180   9.497  0.5930  0.0848 -0.5391
   24CHL1  H15A 1721   5.052   5.077   9.534  2.0907  0.2553  0.9208
   24CHL1  H15B 1722   4.977   5.231   9.511  1.9661  2.1238  2.0426
   24CHL1   C16 1723   5.115   5.192   9.352  0.9363 -0.4533  0.6506
   24CHL1  H16A 1724   5.108   5.088   9.316  1.7596  0.6861 -3.0515
   24CHL1  H16B 1725   5.051   5.249   9.281  1.5290 -0.7796 -0.1505
   24CHL1   C17 1726   5.268   5.250   9.354  0.0800  0.3892  0.3456
   24CHL1   H17 1727   5.259   5.360   9.361  0.0137  0.5888 -2.4735
   24CHL1   C13 1728   5.316   5.203   9.489 -0.0822 -0.3083  0.0789
   24CHL1   C18 1729   5.357   5.054   9.487  0.8588 -0.1667  0.4126
   24CHL1  H18A 1730   5.268   4.999   9.450  0.2074  0.8741  0.4239
   24CHL1  H18B 1731   5.443   5.037   9.419 -0.1450  2.8646 -1.7586
   24CHL1  H18C 1732   5.385   5.014   9.587  0.3781 -2.3295 -0.2926
   24CHL1   C12 1733   5.433   5.288   9.554  0.5243 -0.1418  0.2590
   24CHL1  H12A 1734   5.522   5.256   9.495 -0.8489 -2.2921 -0.7154
   24CHL1  H12B 1735   5.410   5.396   9.548 -1.0158 -0.5950 -4.1662
   24CHL1   C11 1736   5.464   5.247   9.697  0.1016 -0.5017 -0.4559
   24CHL1  H11A 1737   5.504   5.144   9.696  0.2924 -0.4186 -1.1319
   24CHL1  H11B 1738   5.541   5.313   9.742  0.7407 -0.9257 -0.9160
   24CHL1    C9 1739   5.340   5.260   9.787  0.6656  0.3341 -0.1602
   24CHL1    H9 1740   5.313   5.368   9.791  1.7869  0.5628  2.0380
   24CHL1   C10 1741   5.358   5.211   9.938 -0.4286 -0.0039  0.4790
   24CHL1   C19 1742   5.421   5.071   9.940  0.0779  0.5588  0.3665
   24CHL1  H19A 1743   5.421   5.022  10.039 -0.8506 -1.5842 -0.6596
   24CHL1  H19B 1744   5.361   5.012   9.867  1.2437  0.3638 -0.4477
   24CHL1  H19C 1745   5.525   5.081   9.903  0.5173  0.9963  1.7010
   24CHL1    C1 1746   5.458   5.306  10.011  0.7801  0.1082  0.0535
   24CHL1   H1A 1747   5.556   5.278   9.966  1.1415  0.5327  0.5648
   24CHL1   H1B 1748   5.443   5.412   9.981  3.5781  0.2961 -0.8896
   24CHL1    C2 1749   5.462   5.286  10.169  0.3300 -0.1081  0.0637
   24CHL1   H2A 1750   5.527   5.365  10.215 -0.7984  1.5444 -1.1079
   24CHL1   H2B 1751   5.501   5.186  10.196 -0.3429 -0.6032 -0.7981
   24CHL1   C20 1752   5.352   5.221   9.225 -0.7398  0.1034 -0.2351
   24CHL1   H20 1753   5.404   5.123   9.232 -1.6552 -0.4281 -0.7922
   24CHL1   C21 1754   5.455   5.342   9.199  0.1083  0.2328 -0.2276
   24CHL1  H21A 1755   5.514   5.350   9.293  2.7571 -0.1096 -1.8095
   24CHL1  H21B 1756   5.395   5.434   9.180  0.1737  0.3474  0.1204
   24CHL1  H21C 1757   5.511   5.324   9.105  0.7627 -2.7570  0.6724
   24CHL1   C22 1758   5.258   5.194   9.095  0.1682 -0.4170  0.3368
   24CHL1  H22A 1759   5.213   5.093   9.107 -1.2695  0.1462 -0.1734
   24CHL1  H22B 1760   5.183   5.276   9.093 -0.3571 -0.9171 -0.5671
   24CHL1   C23 1761   5.330   5.187   8.959  0.1218  0.1292 -0.1902
   24CHL1  H23A 1762   5.372   5.288   8.942 -1.5686  1.2211  1.9672
   24CHL1  H23B 1763   5.417   5.117   8.968  0.7172  0.8784 -0.0656
   24CHL1   C24 1764   5.244   5.131   8.847 -0.0075  0.0922 -0.7144
   24CHL1  H24A 1765   5.194   5.042   8.892  1.2443 -1.3416 -2.0839
   24CHL1  H24B 1766   5.163   5.205   8.832  0.6660  0.7979 -0.8678
   24CHL1   C25 1767   5.306   5.095   8.712 -0.6596  0.1046  0.1962
   24CHL1   H25 1768   5.346   5.182   8.656  0.7810 -0.4288  0.3565
   24CHL1   C26 1769   5.435   5.011   8.721  0.0496 -0.9538 -0.0541
   24CHL1  H26A 1770   5.419   4.910   8.765  0.2767 -0.8428  0.2863
   24CHL1  H26B 1771   5.472   4.993   8.618 -1.2081 -0.0974 -0.6768
   24CHL1  H26C 1772   5.514   5.061   8.781 -1.9245  0.6281  1.3011
   24CHL1   C27 1773   5.197   5.008   8.628  1.1519  0.5240  0.7183
   24CHL1  H27A 1774   5.239   4.969   8.532  1.9372 -0.6141  1.4988
   24CHL1  H27B 1775   5.163   4.920   8.687  0.1547 -0.3481 -1.1133
   24CHL1  H27C 1776   5.112   5.076   8.609  0.1023 -0.7411  0.8597
   25CHL1    C3 1777   6.493   6.176  10.289 -0.2409  0.5896  0.3773
   25CHL1    H3 1778   6.452   6.278  10.307 -0.6535  0.3812  0.6316
   25CHL1    O3 1779   6.486   6.103  10.409 -0.1977  0.3445  0.5105
   25CHL1   H3' 1780   6.537   6.022  10.397  1.8178  1.5828  0.5658
   25CHL1    C4 1781   6.421   6.093  10.179  0.5134 -0.1790 -1.2279
   25CHL1   H4A 1782   6.450   5.986  10.184 -0.0849 -0.3056 -0.2158
   25CHL1   H4B 1783   6.316   6.089  10.215  1.3180 -2.8204  0.9891
   25CHL1    C5 1784   6.437   6.145  10.033 -0.0988  0.8981  0.6200
   25CHL1    C6 1785   6.325   6.163   9.957  0.4069 -0.3710 -0.1152
   25CHL1    H6 1786   6.227   6.136   9.999 -1.0584  2.9296 -1.2850
   25CHL1    C7 1787   6.326   6.196   9.810 -0.0382 -0.2660 -0.1614
   25CHL1   H7A 1788   6.270   6.136   9.734  0.1868 -0.1393 -0.4304
   25CHL1   H7B 1789   6.273   6.293   9.806  0.2024 -0.1789 -2.0395
   25CHL1    C8 1790   6.473   6.214   9.759  0.3146  0.5333  0.1071
   25CHL1    H8 1791   6.502   6.112   9.726  2.3474  1.6850 -1.7884
   25CHL1   C14 1792   6.471   6.301   9.637 -0.2871  0.3276 -0.1690
   25CHL1   H14 1793   6.446   6.405   9.667  2.2327  1.4135 -1.6288
   25CHL1   C15 1794   6.365   6.266   9.533  0.1282  0.4102 -0.1194
   25CHL1  H15A 1795   6.360   6.156   9.519 -0.0334  0.4261 -0.1892
   25CHL1  H15B 1796   6.264   6.297   9.567 -0.7464 -1.2423 -1.1348
   25CHL1   C16 1797   6.411   6.342   9.408 -0.8321 -0.6525 -0.2352
   25CHL1  H16A 1798   6.424   6.270   9.325 -1.3417  0.3136 -1.1606
   25CHL1  H16B 1799   6.340   6.424   9.383 -0.1164 -0.1091 -0.4849
   25CHL1   C17 1800   6.548   6.404   9.444 -0.2039 -0.5943 -0.2153
   25CHL1   H17 1801   6.536   6.507   9.484  0.0890 -0.5980 -0.1113
   25CHL1   C13 1802   6.599   6.319   9.558 -0.4057 -0.2174  0.3332
   25CHL1   C18 1803   6.642   6.177   9.507  0.1021 -0.3826  0.3892
   25CHL1  H18A 1804   6.566   6.125   9.446  0.7962 -0.6024 -0.3030
   25CHL1  H18B 1805   6.740   6.183   9.455 -0.7747 -1.7023 -1.4872
   25CHL1  H18C 1806   6.661   6.109   9.592 -1.3810  0.2569  1.2375
   25CHL1   C12 1807   6.704   6.380   9.656  0.0028  0.5052  0.7494
   25CHL1  H12A 1808   6.808   6.380   9.618 -0.3683  1.8966 -0.3619
   25CHL1  H12B 1809   6.665   6.479   9.688  2.1096  1.3238  0.8188
   25CHL1   C11 1810   6.702   6.292   9.783  0.0687  0.2323  0.0911
   25CHL1  H11A 1811   6.745   6.196   9.749  0.7117  1.3189 -2.2848
   25CHL1  H11B 1812   6.777   6.325   9.858  0.5176 -1.7401  0.5366
   25CHL1    C9 1813   6.567   6.262   9.862 -0.5784 -0.3277  0.4307
   25CHL1    H9 1814   6.528   6.361   9.892  1.8130  0.9031 -0.3900
   25CHL1   C10 1815   6.585   6.173   9.988 -0.5001  0.4065  0.0721
   25CHL1   C19 1816   6.664   6.044   9.953  0.1331 -0.1201 -0.0537
   25CHL1  H19A 1817   6.668   5.973  10.038  0.5630  1.1906  1.0444
   25CHL1  H19B 1818   6.614   5.993   9.868 -1.8507 -1.9406  2.1324
   25CHL1  H19C 1819   6.766   6.075   9.923  0.4219 -1.5868 -0.5812
   25CHL1    C1 1820   6.659   6.255  10.105  0.2296 -0.1100  0.2143
   25CHL1   H1A 1821   6.767   6.236  10.090 -0.2513 -1.4244 -1.6825
   25CHL1   H1B 1822   6.634   6.364  10.101 -0.1664 -0.2078  0.0426
   25CHL1    C2 1823   6.644   6.194  10.251 -0.8767 -0.2098  0.3526
   25CHL1   H2A 1824   6.705   6.248  10.326 -0.1591 -1.2015  0.4934
   25CHL1   H2B 1825   6.682   6.089  10.250  2.0212  0.7757  1.4110
   25CHL1   C20 1826   6.639   6.422   9.321 -0.1001  0.0835  0.0182
   25CHL1   H20 1827   6.644   6.327   9.263 -1.1015  0.5122 -0.7808
   25CHL1   C21 1828   6.780   6.459   9.347 -0.0664 -1.3724 -0.1206
   25CHL1  H21A 1829   6.784   6.556   9.403 -2.2305 -1.6913  0.6283
   25CHL1  H21B 1830   6.841   6.472   9.256 -0.7300  0.5470 -0.3124
   25CHL1  H21C 1831   6.821   6.377   9.409 -0.8943 -1.3006  0.5428
   25CHL1   C22 1832   6.584   6.532   9.225 -0.1280 -0.4453  0.4870
   25CHL1  H22A 1833   6.474   6.517   9.223 -0.3948  1.3450  0.5145
   25CHL1  H22B 1834   6.597   6.636   9.263 -0.4197  0.2614 -1.2638
   25CHL1   C23 1835   6.636   6.528   9.077 -0.0679  0.2724 -0.5609
   25CHL1  H23A 1836   6.746   6.545   9.069 -0.2463  0.9394 -1.6524
   25CHL1  H23B 1837   6.612   6.426   9.038 -1.2260 -0.4317  1.8756
   25CHL1   C24 1838   6.575   6.633   8.991  0.8109 -0.0619 -0.1924
   25CHL1  H24A 1839   6.467   6.607   8.982  1.0513 -0.8565 -0.7934
   25CHL1  H24B 1840   6.560   6.727   9.047 -0.5343  0.1289 -0.8540
   25CHL1   C25 1841   6.629   6.654   8.848  0.3719  0.3130 -1.0543
   25CHL1   H25 1842   6.736   6.685   8.845  0.7150 -0.7593 -0.2635
   25CHL1   C26 1843   6.618   6.523   8.765 -0.5146 -0.2373 -0.3363
   25CHL1  H26A 1844   6.515   6.481   8.773 -0.0291 -1.1270  1.6079
   25CHL1  H26B 1845   6.646   6.543   8.660 -0.0013 -1.0403 -0.3599
   25CHL1  H26C 1846   6.694   6.449   8.797  0.7076  1.1987  0.1526
   25CHL1   C27 1847   6.550   6.769   8.781 -0.0008  0.6416 -0.1350
   25CHL1  H27A 1848   6.442   6.750   8.763  0.3866 -1.1081 -0.7203
   25CHL1  H27B 1849   6.561   6.853   8.853  1.4743 -0.2189  0.6876
   25CHL1  H27C 1850   6.600   6.804   8.688 -1.2252  0.7731 -0.7436
   26CHL1    C3 1851   1.687   2.152  10.251  0.4306  0.7812 -0.1768
   26CHL1    H3 1852   1.797   2.147  10.254  0.5047  1.1580 -1.8874
   26CHL1    O3 1853   1.626   2.149  10.378  0.4029  0.0260  0.5361
   26CHL1   H3' 1854   1.657   2.225  10.428 -3.8082  0.8871  2.0308
   26CHL1    C4 1855   1.661   2.287  10.179  0.2109  0.0498 -0.7446
   26CHL1   H4A 1856   1.553   2.309  10.187 -0.3773 -2.8414 -0.2359
   26CHL1   H4B 1857   1.715   2.367  10.234  0.1137  0.1896 -0.8502
   26CHL1    C5 1858   1.693   2.292  10.033  0.1531 -0.4215 -0.1792
   26CHL1    C6 1859   1.782   2.381   9.992  0.7086 -0.0248 -1.0437
   26CHL1    H6 1860   1.828   2.456  10.057  0.4977  0.7283 -1.7511
   26CHL1    C7 1861   1.810   2.400   9.852 -0.4265  0.9249  1.0649
   26CHL1   H7A 1862   1.798   2.509   9.832 -1.7243  0.6606  0.3493
   26CHL1   H7B 1863   1.910   2.356   9.830 -2.5015 -2.4070 -2.3642
   26CHL1    C8 1864   1.719   2.329   9.752  0.2683 -0.0187 -0.5774
   26CHL1    H8 1865   1.624   2.387   9.743  0.2968  0.0002 -0.7769
   26CHL1   C14 1866   1.787   2.319   9.622 -0.4317  0.0590 -0.6985
   26CHL1   H14 1867   1.878   2.259   9.643 -0.7190  0.3612  1.5579
   26CHL1   C15 1868   1.854   2.446   9.564  0.3673  0.1869  0.8244
   26CHL1  H15A 1869   1.790   2.535   9.583  0.7520  0.7499 -0.4683
   26CHL1  H15B 1870   1.954   2.473   9.604  0.2540  1.3839  0.3227
   26CHL1   C16 1871   1.863   2.420   9.412  0.3180  0.2376  0.3170
   26CHL1  H16A 1872   1.804   2.496   9.357 -0.9468 -0.6467  0.4242
   26CHL1  H16B 1873   1.972   2.411   9.391  0.0863 -1.3759 -0.2491
   26CHL1   C17 1874   1.795   2.278   9.389 -0.5808  0.7060 -0.6503
   26CHL1   H17 1875   1.869   2.196   9.401 -1.1449 -0.0995 -2.5672
   26CHL1   C13 1876   1.705   2.262   9.512  0.6407 -0.1211  0.1906
   26CHL1   C18 1877   1.572   2.341   9.488 -0.6289  0.1491 -0.1534
   26CHL1  H18A 1878   1.599   2.446   9.462  1.8806 -0.4474 -0.0688
   26CHL1  H18B 1879   1.511   2.290   9.411  0.5083 -0.6545 -0.5438
   26CHL1  H18C 1880   1.505   2.343   9.576  2.5669  0.4877  2.3506
   26CHL1   C12 1881   1.675   2.110   9.560  0.2264  0.6604  0.3503
   26CHL1  H12A 1882   1.602   2.065   9.491  1.2029  1.9595 -1.5742
   26CHL1  H12B 1883   1.764   2.044   9.563 -1.5267 -1.7550  0.7832
   26CHL1   C11 1884   1.605   2.099   9.699 -0.2542 -0.1557  0.7696
   26CHL1  H11A 1885   1.505   2.136   9.670  0.7418 -1.7950 -5.3656
   26CHL1  H11B 1886   1.600   1.991   9.724  0.3804 -0.1786  0.8062
   26CHL1    C9 1887   1.676   2.184   9.808  0.0628 -1.3387 -0.4481
   26CHL1    H9 1888   1.775   2.134   9.820  1.1007  0.0388 -2.8383
   26CHL1   C10 1889   1.625   2.183   9.953 -0.1137 -0.2344 -0.4520
   26CHL1   C19 1890   1.466   2.207   9.941  0.2587 -0.1706  0.0781
   26CHL1  H19A 1891   1.403   2.117   9.927 -1.5911  1.1340 -0.1599
   26CHL1  H19B 1892   1.427   2.259  10.031 -0.0705 -0.1481 -0.0811
   26CHL1  H19C 1893   1.449   2.273   9.853  1.2919 -1.7239 -1.3177
   26CHL1    C1 1894   1.657   2.044  10.019 -0.6026 -0.9461 -0.3922
   26CHL1   H1A 1895   1.611   1.961   9.961  1.1611 -0.9367 -1.8573
   26CHL1   H1B 1896   1.768   2.035  10.020 -0.6235 -1.3136 -0.9927
   26CHL1    C2 1897   1.628   2.035  10.166 -0.4923  0.0999  0.4367
   26CHL1   H2A 1898   1.663   1.937  10.204  2.4778  0.4567 -1.2415
   26CHL1   H2B 1899   1.518   2.041  10.174 -0.5432 -1.5816  1.3018
   26CHL1   C20 1900   1.736   2.264   9.250 -0.1983 -0.6372  0.8352
   26CHL1   H20 1901   1.652   2.336   9.243  1.6783  2.0886  4.8051
   26CHL1   C21 1902   1.670   2.117   9.232 -0.1458  0.1629  0.3559
   26CHL1  H21A 1903   1.750   2.042   9.252  0.4409  1.0896  1.6016
   26CHL1  H21B 1904   1.625   2.100   9.132 -2.9088  0.3953  1.5217
   26CHL1  H21C 1905   1.576   2.111   9.290 -1.5635 -1.2811 -2.0232
   26CHL1   C22 1906   1.837   2.273   9.133 -0.0410 -0.0927 -0.1484
   26CHL1  H22A 1907   1.881   2.372   9.154 -0.1346  0.1526 -1.0885
   26CHL1  H22B 1908   1.915   2.196   9.150 -0.3369 -0.2543  0.5053
   26CHL1   C23 1909   1.788   2.268   8.985 -0.9230 -0.7949 -0.5820
   26CHL1  H23A 1910   1.733   2.173   8.969  0.8958 -1.8692 -0.5462
   26CHL1  H23B 1911   1.724   2.358   8.977  0.0564  0.0794  1.0132
   26CHL1   C24 1912   1.915   2.287   8.895 -0.0872  0.1138  0.1462
   26CHL1  H24A 1913   1.953   2.391   8.910  0.2550 -0.0256  0.2481
   26CHL1  H24B 1914   1.999   2.222   8.929  1.1745  2.4076  1.5255
   26CHL1   C25 1915   1.897   2.274   8.742  0.3367  0.5814  0.3120
   26CHL1   H25 1916   1.830   2.352   8.700  2.4260  3.4161  2.0335
   26CHL1   C26 1917   2.026   2.288   8.658 -0.3581  0.1753  0.1318
   26CHL1  H26A 1918   2.023   2.249   8.554  1.7570 -0.5534  0.3055
   26CHL1  H26B 1919   2.066   2.392   8.650  1.4015 -0.4296  0.8036
   26CHL1  H26C 1920   2.101   2.226   8.711 -1.2139 -1.9734 -1.1121
   26CHL1   C27 1921   1.824   2.138   8.708 -0.1115 -0.7303  0.3799
   26CHL1  H27A 1922   1.845   2.119   8.601  0.7171 -1.7148  0.7008
   26CHL1  H27B 1923   1.870   2.053   8.763  3.5344  1.6031  1.1106
   26CHL1  H27C 1924   1.717   2.150   8.736 -0.9711 -1.6857 -2.3208
   27CHL1    C3 1925   0.319   6.262  10.328 -0.8096  0.3080  0.5244
   27CHL1    H3 1926   0.287   6.157  10.314 -0.3354  0.1824  0.4031
   27CHL1    O3 1927   0.330   6.307  10.457 -0.6480  0.0397  0.0280
   27CHL1   H3' 1928   0.377   6.390  10.466 -2.7366  1.3393 -0.7950
   27CHL1    C4 1929   0.470   6.261  10.279  0.0714  0.6568 -1.2173
   27CHL1   H4A 1930   0.512   6.363  10.294  1.7087 -0.2636  0.8529
   27CHL1   H4B 1931   0.531   6.193  10.343  0.1167  0.0106 -1.9462
   27CHL1    C5 1932   0.484   6.243  10.134  0.0483 -0.0310  0.2739
   27CHL1    C6 1933   0.564   6.144  10.092 -0.7428 -0.0487 -0.1126
   27CHL1    H6 1934   0.616   6.078  10.164  1.0536 -1.0182 -2.2480
   27CHL1    C7 1935   0.590   6.109   9.949 -0.6573 -0.4127  0.3095
   27CHL1   H7A 1936   0.699   6.101   9.928 -0.6809  1.2982 -0.6210
   27CHL1   H7B 1937   0.538   6.014   9.926 -1.1608 -0.4823  1.7315
   27CHL1    C8 1938   0.533   6.223   9.851 -0.3595 -0.0223  0.6811
   27CHL1    H8 1939   0.601   6.311   9.859 -1.4012  0.7121  1.7209
   27CHL1   C14 1940   0.534   6.176   9.708  0.2030  0.1164  0.2468
   27CHL1   H14 1941   0.459   6.094   9.705 -1.1382  1.3699 -2.6481
   27CHL1   C15 1942   0.660   6.115   9.647 -0.6583  0.3030  0.1462
   27CHL1  H15A 1943   0.748   6.179   9.672 -0.2738 -0.2067  0.0893
   27CHL1  H15B 1944   0.671   6.008   9.673  0.0414  1.0677  3.2955
   27CHL1   C16 1945   0.639   6.119   9.492 -0.4901  0.6107 -0.6102
   27CHL1  H16A 1946   0.719   6.174   9.438 -0.3361 -0.1731 -1.1822
   27CHL1  H16B 1947   0.621   6.019   9.449 -1.1607  0.0085  1.0217
   27CHL1   C17 1948   0.506   6.191   9.478 -0.1533  0.1360  0.0947
   27CHL1   H17 1949   0.439   6.103   9.492 -1.7749  1.0988 -1.4690
   27CHL1   C13 1950   0.482   6.278   9.607  0.2734  0.0036 -0.0793
   27CHL1   C18 1951   0.563   6.412   9.590 -0.1322  0.8286  0.1377
   27CHL1  H18A 1952   0.564   6.447   9.695 -1.2604 -0.5333  0.6051
   27CHL1  H18B 1953   0.671   6.396   9.568 -0.3289  0.6937 -0.7489
   27CHL1  H18C 1954   0.509   6.484   9.524  0.3704  0.6859 -0.4377
   27CHL1   C12 1955   0.335   6.304   9.635  0.3944 -0.1272  0.3601
   27CHL1  H12A 1956   0.282   6.373   9.566  0.9996 -1.9686 -1.9889
   27CHL1  H12B 1957   0.277   6.210   9.641  1.3447 -0.6797  0.9868
   27CHL1   C11 1958   0.321   6.359   9.784  0.0381  0.0294  0.4807
   27CHL1  H11A 1959   0.357   6.464   9.788  1.3530 -0.3847 -0.2248
   27CHL1  H11B 1960   0.211   6.350   9.795 -0.2485  1.1904 -1.2315
   27CHL1    C9 1961   0.391   6.273   9.892 -0.6498  0.0769 -0.1240
   27CHL1    H9 1962   0.334   6.177   9.894  1.8764 -1.4781  0.0398
   27CHL1   C10 1963   0.397   6.327  10.035 -0.6164 -0.1811  0.4481
   27CHL1   C19 1964   0.453   6.476  10.030 -0.6253  0.2449 -0.3539
   27CHL1  H19A 1965   0.444   6.515  10.134  0.1531 -1.1168  0.2517
   27CHL1  H19B 1966   0.559   6.470   9.996 -0.0370  1.5951  1.1431
   27CHL1  H19C 1967   0.386   6.535   9.965  1.2293  2.2694 -0.4948
   27CHL1    C1 1968   0.245   6.328  10.087  0.5784  0.1702  0.7573
   27CHL1   H1A 1969   0.199   6.414  10.033 -0.9735  0.2465  2.1654
   27CHL1   H1B 1970   0.197   6.230  10.070 -0.9930  1.2695 -1.4211
   27CHL1    C2 1971   0.236   6.350  10.241  0.0933 -0.4572  0.3706
   27CHL1   H2A 1972   0.129   6.337  10.267 -0.3771  1.6107 -0.4160
   27CHL1   H2B 1973   0.269   6.453  10.268 -1.5526 -0.2184  1.5124
   27CHL1   C20 1974   0.469   6.248   9.338  0.6288  0.2627 -0.2993
   27CHL1   H20 1975   0.410   6.341   9.352  2.1672  1.2927 -0.5898
   27CHL1   C21 1976   0.373   6.148   9.268 -0.2488  0.4013  0.1506
   27CHL1  H21A 1977   0.288   6.144   9.339 -0.2569  1.7915  0.2260
   27CHL1  H21B 1978   0.414   6.045   9.259  1.9865  1.2974 -0.2063
   27CHL1  H21C 1979   0.339   6.184   9.168 -0.8785 -2.8506 -0.8711
   27CHL1   C22 1980   0.605   6.286   9.258 -0.0611 -0.0133  0.2929
   27CHL1  H22A 1981   0.664   6.347   9.330 -1.8406  1.4713  0.5132
   27CHL1  H22B 1982   0.657   6.188   9.246 -0.3821 -0.1967  0.3816
   27CHL1   C23 1983   0.581   6.351   9.123  0.0995 -0.0522 -0.5620
   27CHL1  H23A 1984   0.498   6.299   9.071  2.1489 -1.7380 -2.2308
   27CHL1  H23B 1985   0.556   6.458   9.137  1.7022 -0.0151  2.5593
   27CHL1   C24 1986   0.704   6.346   9.030  0.3205 -0.3668 -0.2895
   27CHL1  H24A 1987   0.795   6.378   9.084 -0.8582  1.6570  0.5587
   27CHL1  H24B 1988   0.727   6.239   9.011  1.1804 -0.4264  1.0717
   27CHL1   C25 1989   0.690   6.431   8.901 -0.0471 -0.7987 -0.6540
   27CHL1   H25 1990   0.661   6.533   8.936 -0.0433 -0.4612 -1.6328
   27CHL1   C26 1991   0.817   6.430   8.823  0.9641  0.1717  0.0503
   27CHL1  H26A 1992   0.837   6.328   8.783 -2.4907 -0.9253  0.9725
   27CHL1  H26B 1993   0.808   6.511   8.749 -3.6538  0.0701  0.4044
   27CHL1  H26C 1994   0.899   6.466   8.889  0.9098  2.2094 -0.9866
   27CHL1   C27 1995   0.575   6.389   8.810 -0.1683 -0.2329 -0.6839
   27CHL1  H27A 1996   0.582   6.284   8.775 -3.3270 -0.9517  0.6786
   27CHL1  H27B 1997   0.486   6.382   8.876  0.3989 -1.9070 -0.0681
   27CHL1  H27C 1998   0.543   6.455   8.727  0.9667  0.2999 -0.7094
   28CHL1    C3 1999   6.661   4.713   9.990 -0.0039  0.0240 -0.7282
   28CHL1    H3 2000   6.554   4.743  10.000 -0.4020 -0.4333 -3.1909
   28CHL1    O3 2001   6.709   4.673  10.119  0.2644  0.6579  0.4133
   28CHL1   H3' 2002   6.778   4.608  10.105 -2.8924 -2.3550 -2.1073
   28CHL1    C4 2003   6.684   4.594   9.889  0.1880 -0.0368 -0.5135
   28CHL1   H4A 2004   6.788   4.555   9.896  0.6430  1.3177  0.3614
   28CHL1   H4B 2005   6.612   4.516   9.922 -1.3550  2.0542  1.1032
   28CHL1    C5 2006   6.655   4.639   9.751 -0.3908  0.1478 -0.4591
   28CHL1    C6 2007   6.562   4.580   9.675 -0.6414 -0.1132  0.1466
   28CHL1    H6 2008   6.508   4.490   9.709  0.9213 -1.9377 -2.0809
   28CHL1    C7 2009   6.536   4.622   9.533  0.1395  0.2007 -0.4054
   28CHL1   H7A 2010   6.511   4.536   9.467  0.2740  0.2817 -0.5613
   28CHL1   H7B 2011   6.446   4.686   9.531  0.6905  0.9684 -1.0715
   28CHL1    C8 2012   6.651   4.701   9.472 -0.6113  0.0283 -0.0080
   28CHL1    H8 2013   6.733   4.630   9.448 -1.6484 -1.6542  1.3373
   28CHL1   C14 2014   6.589   4.769   9.347 -0.1580  0.2448 -0.7342
   28CHL1   H14 2015   6.514   4.843   9.383  1.2656  1.1528  0.4308
   28CHL1   C15 2016   6.506   4.677   9.249  0.3219 -0.1221 -0.2736
   28CHL1  H15A 2017   6.561   4.581   9.241 -1.5447 -1.1402 -1.1444
   28CHL1  H15B 2018   6.400   4.662   9.277  0.1987  1.4212  0.0978
   28CHL1   C16 2019   6.530   4.751   9.114  0.2565  0.5831  0.4560
   28CHL1  H16A 2020   6.590   4.691   9.042 -0.5523  0.8159 -0.4017
   28CHL1  H16B 2021   6.432   4.774   9.068 -0.2454  0.5535  1.4800
   28CHL1   C17 2022   6.613   4.875   9.136  0.0452 -0.0715 -0.1533
   28CHL1   H17 2023   6.532   4.946   9.163  0.8617  0.5601  0.6387
   28CHL1   C13 2024   6.688   4.846   9.266 -0.6537  0.3850 -0.0698
   28CHL1   C18 2025   6.816   4.758   9.237  1.0270  0.0904 -0.0223
   28CHL1  H18A 2026   6.888   4.805   9.167  0.9242 -0.5242 -0.5444
   28CHL1  H18B 2027   6.879   4.729   9.324  1.4092  0.5881 -0.1314
   28CHL1  H18C 2028   6.788   4.662   9.189  1.8137 -0.6037  0.8864
   28CHL1   C12 2029   6.727   4.960   9.358 -0.7000  0.2186  0.2006
   28CHL1  H12A 2030   6.817   5.015   9.324 -0.0105  0.5955  2.5840
   28CHL1  H12B 2031   6.641   5.030   9.366 -0.6934  0.1247  1.1475
   28CHL1   C11 2032   6.771   4.921   9.502  0.4815 -0.6031  0.7858
   28CHL1  H11A 2033   6.868   4.872   9.479  1.5437  2.0213 -0.4824
   28CHL1  H11B 2034   6.773   5.014   9.564 -0.3954 -1.0946  1.5626
   28CHL1    C9 2035   6.688   4.811   9.565  0.0059 -0.8062 -0.3625
   28CHL1    H9 2036   6.582   4.842   9.581  0.1528  0.2724 -1.3833
   28CHL1   C10 2037   6.739   4.759   9.701  0.3708 -0.7706  0.3106
   28CHL1   C19 2038   6.884   4.725   9.679  0.3618 -0.3431 -0.1839
   28CHL1  H19A 2039   6.901   4.680   9.579 -0.2021  1.5593 -1.1487
   28CHL1  H19B 2040   6.948   4.816   9.676  0.4386 -0.4548 -2.3574
   28CHL1  H19C 2041   6.925   4.657   9.757 -1.6420  0.4656  1.5978
   28CHL1    C1 2042   6.717   4.876   9.807 -0.4505 -0.4084 -0.4408
   28CHL1   H1A 2043   6.770   4.971   9.783  0.9042 -1.2132 -0.6586
   28CHL1   H1B 2044   6.608   4.897   9.800 -0.4188 -0.2980 -0.5797
   28CHL1    C2 2045   6.747   4.833   9.953 -0.1013  0.5942 -1.0986
   28CHL1   H2A 2046   6.731   4.909  10.032  0.9366  0.5677 -0.8671
   28CHL1   H2B 2047   6.852   4.798   9.954 -0.4203 -0.4523 -2.2395
   28CHL1   C20 2048   6.684   4.920   9.011  0.5728 -0.1115 -0.1451
   28CHL1   H20 2049   6.754   4.840   8.976  0.4213  0.1635 -1.0828
   28CHL1   C21 2050   6.766   5.042   9.044  0.3891 -0.0962  0.2766
   28CHL1  H21A 2051   6.856   5.018   9.105  1.7174  3.2579 -0.2447
   28CHL1  H21B 2052   6.713   5.122   9.100 -0.6467 -0.5993  0.0317
   28CHL1  H21C 2053   6.796   5.091   8.948  2.2806 -0.5739  0.6020
   28CHL1   C22 2054   6.583   4.948   8.898  0.9574 -0.3642  0.4585
   28CHL1  H22A 2055   6.544   4.852   8.857  0.5093 -0.7692  1.8010
   28CHL1  H22B 2056   6.502   5.008   8.947  0.4038 -1.8109  1.3405
   28CHL1   C23 2057   6.635   5.024   8.771 -0.1051 -0.2489  0.4557
   28CHL1  H23A 2058   6.633   5.130   8.803 -2.0890 -0.3810  0.8259
   28CHL1  H23B 2059   6.741   4.995   8.755 -0.2129 -0.6876  0.5342
   28CHL1   C24 2060   6.539   5.003   8.653  0.0795  0.1219 -0.4923
   28CHL1  H24A 2061   6.531   4.895   8.628  0.8131  0.4943 -2.4198
   28CHL1  H24B 2062   6.443   5.038   8.697  0.7313 -0.5357  1.4920
   28CHL1   C25 2063   6.578   5.085   8.529 -0.4717 -0.3589 -0.1050
   28CHL1   H25 2064   6.677   5.050   8.496  0.9711  1.7388  1.8109
   28CHL1   C26 2065   6.467   5.051   8.422 -0.2993  0.4585 -0.2043
   28CHL1  H26A 2066   6.482   5.109   8.329 -0.9196 -1.7800 -1.7553
   28CHL1  H26B 2067   6.451   4.943   8.400  3.3123 -0.1874  0.0447
   28CHL1  H26C 2068   6.376   5.089   8.473  1.0366  2.8589  0.4886
   28CHL1   C27 2069   6.586   5.241   8.558  0.4951  0.3602 -0.1718
   28CHL1  H27A 2070   6.612   5.289   8.461  0.2407 -1.1137 -0.9709
   28CHL1  H27B 2071   6.489   5.281   8.595  0.4050  0.2289 -0.2662
   28CHL1  H27C 2072   6.675   5.262   8.621  2.7537  1.0581 -3.4485
   29CHL1    C3 2073   1.059   2.875   6.509  0.2960 -0.4074 -0.4603
   29CHL1    H3 2074   0.975   2.806   6.486 -0.0577 -0.6343  1.4033
   29CHL1    O3 2075   1.132   2.911   6.393 -0.4364  0.2081  0.2524
   29CHL1   H3' 2076   1.224   2.893   6.415  0.1785  1.9256 -0.7470
   29CHL1    C4 2077   1.007   3.003   6.579  0.1269 -0.0194  0.4262
   29CHL1   H4A 2078   1.090   3.076   6.583 -2.0562  2.6451 -0.7012
   29CHL1   H4B 2079   0.929   3.046   6.511  1.5887  2.8757  0.5239
   29CHL1    C5 2080   0.953   2.990   6.715 -0.4232 -0.1267  0.2191
   29CHL1    C6 2081   0.832   3.034   6.745 -0.6196  0.0310  0.0442
   29CHL1    H6 2082   0.777   3.078   6.661  2.9649 -0.3535 -2.6440
   29CHL1    C7 2083   0.758   3.039   6.880  0.3572 -0.7575 -0.0549
   29CHL1   H7A 2084   0.715   3.139   6.901  0.9063 -0.0607 -2.1149
   29CHL1   H7B 2085   0.677   2.964   6.880 -0.0980 -0.2626  0.4456
   29CHL1    C8 2086   0.856   2.998   6.997  0.0062  0.1744 -0.4413
   29CHL1    H8 2087   0.927   3.081   7.015 -0.8452  0.9597 -0.6731
   29CHL1   C14 2088   0.779   2.954   7.123  0.1853  0.4430  0.1213
   29CHL1   H14 2089   0.719   2.869   7.084  2.3553 -1.0728 -0.0714
   29CHL1   C15 2090   0.681   3.049   7.181 -0.3073  0.2968 -0.3529
   29CHL1  H15A 2091   0.705   3.158   7.175  0.2945  0.1674 -0.3142
   29CHL1  H15B 2092   0.581   3.030   7.135 -0.0458 -0.0522 -0.7896
   29CHL1   C16 2093   0.677   3.012   7.329  0.0616  0.1163  0.2073
   29CHL1  H16A 2094   0.722   3.090   7.394 -0.5983 -1.2921  2.4350
   29CHL1  H16B 2095   0.575   2.984   7.363 -0.5411  0.8903 -0.9275
   29CHL1   C17 2096   0.765   2.884   7.347  0.0180 -0.3152  0.2757
   29CHL1   H17 2097   0.706   2.801   7.302 -0.3690  0.4955 -0.7315
   29CHL1   C13 2098   0.873   2.905   7.235  0.5834 -0.2113 -0.3805
   29CHL1   C18 2099   0.969   3.015   7.284  0.4828 -0.1103  0.6206
   29CHL1  H18A 2100   1.051   3.039   7.213 -0.0838  1.0803  0.3558
   29CHL1  H18B 2101   0.915   3.111   7.300 -0.3346 -0.2287 -1.2810
   29CHL1  H18C 2102   1.024   2.977   7.373  1.3233 -0.8289 -0.1957
   29CHL1   C12 2103   0.954   2.781   7.192 -0.4019  0.1698  0.5873
   29CHL1  H12A 2104   1.024   2.761   7.276  0.0680 -1.3430 -0.1510
   29CHL1  H12B 2105   0.903   2.683   7.178  0.6596 -0.3036 -0.0147
   29CHL1   C11 2106   1.039   2.812   7.058  0.3555 -0.4345  0.0038
   29CHL1  H11A 2107   1.114   2.885   7.095  1.8913 -1.1134 -1.7069
   29CHL1  H11B 2108   1.084   2.716   7.025  0.7960 -0.1536 -0.2086
   29CHL1    C9 2109   0.948   2.883   6.949 -0.9518  0.1056 -0.2292
   29CHL1    H9 2110   0.870   2.806   6.930 -2.1265  0.1812  3.7279
   29CHL1   C10 2111   1.031   2.913   6.823 -0.1265 -0.2933  0.6535
   29CHL1   C19 2112   1.147   2.993   6.868  0.5160 -0.0784  0.1424
   29CHL1  H19A 2113   1.216   3.017   6.785 -0.4363  2.7826  0.0983
   29CHL1  H19B 2114   1.126   3.083   6.930 -0.5830  1.4139 -2.3154
   29CHL1  H19C 2115   1.219   2.931   6.925 -0.0845 -0.0392  0.9543
   29CHL1    C1 2116   1.087   2.786   6.754 -0.0187 -0.3973 -0.2613
   29CHL1   H1A 2117   1.160   2.732   6.818 -1.1551 -0.4881  1.0050
   29CHL1   H1B 2118   1.002   2.718   6.732 -0.4428 -0.1336  0.5202
   29CHL1    C2 2119   1.149   2.812   6.612 -0.3044  0.3433  0.6558
   29CHL1   H2A 2120   1.179   2.709   6.581 -1.6772 -0.2294  1.1877
   29CHL1   H2B 2121   1.244   2.869   6.624  0.2640 -0.8906  2.2063
   29CHL1   C20 2122   0.806   2.850   7.492 -0.5205 -0.8714 -0.1557
   29CHL1   H20 2123   0.875   2.931   7.522 -1.1645  0.1759 -1.4638
   29CHL1   C21 2124   0.874   2.715   7.504  0.6158 -1.0215  0.1292
   29CHL1  H21A 2125   0.976   2.723   7.459  0.4918 -2.4433 -0.4318
   29CHL1  H21B 2126   0.809   2.654   7.438 -0.1851  0.3466 -0.3845
   29CHL1  H21C 2127   0.876   2.671   7.606  0.8557 -3.4519 -0.9060
   29CHL1   C22 2128   0.673   2.861   7.579  0.0460 -0.0121  0.3795
   29CHL1  H22A 2129   0.640   2.967   7.581 -1.1380 -0.3589  0.1444
   29CHL1  H22B 2130   0.598   2.789   7.539 -1.1529  1.2427  0.2989
   29CHL1   C23 2131   0.683   2.815   7.729  0.6606  0.1392  0.0018
   29CHL1  H23A 2132   0.725   2.713   7.745 -1.7435 -1.0567 -0.9546
   29CHL1  H23B 2133   0.754   2.888   7.772  1.9256 -1.5749  0.8818
   29CHL1   C24 2134   0.546   2.827   7.804  0.2311 -0.4513  0.2622
   29CHL1  H24A 2135   0.501   2.928   7.795 -0.1657 -0.4892  1.6599
   29CHL1  H24B 2136   0.471   2.756   7.764  0.2025  0.8881 -2.1783
   29CHL1   C25 2137   0.557   2.793   7.951  0.1729 -0.6336 -0.6724
   29CHL1   H25 2138   0.593   2.688   7.956  0.0594 -0.6558 -0.3006
   29CHL1   C26 2139   0.647   2.885   8.033 -0.9228 -0.2552  0.5593
   29CHL1  H26A 2140   0.609   2.987   8.013 -1.0127 -0.0692  1.6378
   29CHL1  H26B 2141   0.641   2.845   8.136  1.5821 -1.5669  0.2370
   29CHL1  H26C 2142   0.753   2.881   7.998 -0.3930 -0.1234  2.1207
   29CHL1   C27 2143   0.420   2.791   8.016  0.0328  0.0850 -0.1610
   29CHL1  H27A 2144   0.423   2.769   8.125 -2.2564 -0.7858 -0.2455
   29CHL1  H27B 2145   0.367   2.887   7.996 -0.8798 -0.2615  0.5327
   29CHL1  H27C 2146   0.358   2.715   7.964 -0.0839  1.7372 -2.4955
   30CHL1    C3 2147   5.484   2.168   7.271  0.1720 -0.3512  0.1139
   30CHL1    H3 2148   5.555   2.247   7.305 -1.0832  0.5821  0.6335
   30CHL1    O3 2149   5.486   2.125   7.135  0.3969 -0.2694  0.1526
   30CHL1   H3' 2150   5.451   2.207   7.098  0.6855  0.8893  2.3229
   30CHL1    C4 2151   5.498   2.040   7.357  0.1759  0.6974 -0.2131
   30CHL1   H4A 2152   5.414   1.974   7.326  0.2905  0.2986  0.3258
   30CHL1   H4B 2153   5.594   1.989   7.335  1.6922  2.8584  1.1838
   30CHL1    C5 2154   5.484   2.073   7.502 -0.3289  0.2143  0.0486
   30CHL1    C6 2155   5.589   2.058   7.583  0.6849 -0.4262  0.1676
   30CHL1    H6 2156   5.683   2.013   7.548  0.8128  0.3257 -0.4803
   30CHL1    C7 2157   5.580   2.070   7.731  0.0164 -0.2161 -0.6854
   30CHL1   H7A 2158   5.636   1.991   7.787 -2.0939 -0.0559  1.7445
   30CHL1   H7B 2159   5.636   2.160   7.764  1.3713 -1.5691  0.8287
   30CHL1    C8 2160   5.430   2.082   7.784 -0.1592  0.2435 -0.0629
   30CHL1    H8 2161   5.383   1.981   7.787 -0.2001  0.2718  0.2807
   30CHL1   C14 2162   5.435   2.129   7.930  0.8286  0.0224  0.2839
   30CHL1   H14 2163   5.482   2.229   7.922 -0.4518  0.8043  2.2449
   30CHL1   C15 2164   5.507   2.047   8.040  0.5779 -0.4921  0.1447
   30CHL1  H15A 2165   5.477   1.941   8.050 -0.6331 -0.0591  1.2558
   30CHL1  H15B 2166   5.615   2.061   8.020  0.5365 -0.6339 -0.1705
   30CHL1   C16 2167   5.462   2.112   8.171  0.2378  0.1938 -0.3422
   30CHL1  H16A 2168   5.444   2.029   8.242 -0.7897  0.4429 -0.3064
   30CHL1  H16B 2169   5.541   2.177   8.216 -1.5453  1.5789  0.8998
   30CHL1   C17 2170   5.334   2.199   8.137 -0.2170  0.0773  0.1361
   30CHL1   H17 2171   5.384   2.297   8.119 -0.0157 -0.2970 -1.3818
   30CHL1   C13 2172   5.294   2.162   7.997  0.0359  0.0914 -0.6444
   30CHL1   C18 2173   5.208   2.035   7.999  0.4420 -0.7391  0.3200
   30CHL1  H18A 2174   5.241   1.949   8.061 -0.6209  0.2666  2.3229
   30CHL1  H18B 2175   5.106   2.064   8.034  1.4531  2.2133  0.9603
   30CHL1  H18C 2176   5.195   1.983   7.902  0.3848  0.2817 -0.2237
   30CHL1   C12 2177   5.227   2.264   7.912 -0.2279  0.3090 -0.3211
   30CHL1  H12A 2178   5.121   2.273   7.943  0.3312  2.5868  1.0167
   30CHL1  H12B 2179   5.285   2.356   7.935  0.2416 -0.3648  1.2949
   30CHL1   C11 2180   5.220   2.230   7.759 -0.4807  0.1975 -0.2348
   30CHL1  H11A 2181   5.164   2.134   7.757 -0.1203 -0.0271  0.3132
   30CHL1  H11B 2182   5.165   2.306   7.699  1.3584  1.5164 -0.2888
   30CHL1    C9 2183   5.358   2.184   7.702 -0.3527 -0.2217  0.6251
   30CHL1    H9 2184   5.426   2.272   7.703 -1.6520  0.8540 -1.8370
   30CHL1   C10 2185   5.352   2.139   7.549  0.2893 -0.3668  0.9987
   30CHL1   C19 2186   5.234   2.036   7.543  0.4669 -0.1357 -0.1133
   30CHL1  H19A 2187   5.137   2.089   7.552  0.4816 -0.1495  0.1169
   30CHL1  H19B 2188   5.222   1.987   7.444  2.2368 -2.7497  0.9094
   30CHL1  H19C 2189   5.244   1.951   7.613 -0.1504  0.0754  0.2302
   30CHL1    C1 2190   5.325   2.262   7.456  0.2886  0.0887 -0.0762
   30CHL1   H1A 2191   5.222   2.301   7.472 -0.2651 -2.0999  2.0748
   30CHL1   H1B 2192   5.399   2.339   7.487 -0.8805  0.0749  2.9862
   30CHL1    C2 2193   5.343   2.228   7.301  0.8892  0.5477 -0.3105
   30CHL1   H2A 2194   5.323   2.320   7.241  0.0950  0.8770  0.4621
   30CHL1   H2B 2195   5.272   2.149   7.270  0.1340  0.6656  1.0986
   30CHL1   C20 2196   5.230   2.215   8.245 -0.0041 -0.7722  0.4141
   30CHL1   H20 2197   5.141   2.268   8.204 -0.7063 -0.9839  1.6537
   30CHL1   C21 2198   5.295   2.309   8.347  0.4575  0.2870 -0.0514
   30CHL1  H21A 2199   5.216   2.372   8.393 -0.9048 -0.9467 -0.6706
   30CHL1  H21B 2200   5.359   2.386   8.300 -0.7322  1.1849 -0.2287
   30CHL1  H21C 2201   5.344   2.244   8.423 -0.0945  3.2667  3.0092
   30CHL1   C22 2202   5.184   2.088   8.319  0.5955  0.5638 -0.6410
   30CHL1  H22A 2203   5.124   2.031   8.245  1.3858 -1.2728  0.1030
   30CHL1  H22B 2204   5.275   2.038   8.359  0.7019  0.0491 -1.5373
   30CHL1   C23 2205   5.073   2.118   8.434  0.3803 -0.2473 -0.3872
   30CHL1  H23A 2206   5.060   2.017   8.480  3.3617  0.1427  1.3786
   30CHL1  H23B 2207   5.123   2.173   8.516 -0.1621  0.7671 -0.7340
   30CHL1   C24 2208   4.947   2.177   8.371  0.1119 -0.1448 -0.0260
   30CHL1  H24A 2209   4.965   2.274   8.320  2.8270 -0.4076  0.3526
   30CHL1  H24B 2210   4.927   2.096   8.297 -0.2771 -1.5635  1.5920
   30CHL1   C25 2211   4.839   2.195   8.469  0.0982 -0.4466  0.0438
   30CHL1   H25 2212   4.840   2.102   8.530 -0.2980 -0.2367  0.3664
   30CHL1   C26 2213   4.854   2.316   8.567  0.2474 -0.2070  0.3915
   30CHL1  H26A 2214   4.954   2.316   8.616  0.2750  0.6939  0.3303
   30CHL1  H26B 2215   4.832   2.408   8.510 -1.5348  0.2395  1.7424
   30CHL1  H26C 2216   4.777   2.302   8.646 -1.2720  1.4935 -0.7418
   30CHL1   C27 2217   4.699   2.195   8.395  0.3353 -0.0575 -0.1211
   30CHL1  H27A 2218   4.690   2.289   8.337 -1.8197 -1.3475 -1.9324
   30CHL1  H27B 2219   4.688   2.107   8.328  0.4946  2.0203 -2.9922
   30CHL1  H27C 2220   4.613   2.197   8.464  0.5436 -0.5782  0.1544
   31CHL1    C3 2221   5.063   3.946   6.761 -0.3872  0.4981  1.0090
   31CHL1    H3 2222   5.094   4.046   6.797  0.2974  0.8425 -0.5000
   31CHL1    O3 2223   5.030   3.950   6.624  0.1247 -0.1844  0.4435
   31CHL1   H3' 2224   4.976   3.872   6.611 -0.0717  0.4395 -3.0310
   31CHL1    C4 2225   5.182   3.853   6.784  0.8382  0.5562 -0.3281
   31CHL1   H4A 2226   5.178   3.753   6.737  0.6206  0.1931  0.4460
   31CHL1   H4B 2227   5.267   3.909   6.740  1.1015 -1.4100 -2.4296
   31CHL1    C5 2228   5.215   3.836   6.935  0.5389 -0.0590  0.0088
   31CHL1    C6 2229   5.341   3.862   6.974 -0.6138 -0.6791 -1.1114
   31CHL1    H6 2230   5.413   3.890   6.896  0.5635  0.3930  0.3581
   31CHL1    C7 2231   5.391   3.836   7.115 -0.8793  0.0272 -0.5234
   31CHL1   H7A 2232   5.485   3.777   7.109 -0.4248  0.9355 -3.3373
   31CHL1   H7B 2233   5.428   3.932   7.157 -1.0587  0.4471 -1.3252
   31CHL1    C8 2234   5.282   3.760   7.192  0.6772  0.2172  0.0836
   31CHL1    H8 2235   5.292   3.652   7.166  0.3311  0.3517 -0.6378
   31CHL1   C14 2236   5.313   3.777   7.341  0.2988  0.2896  0.1493
   31CHL1   H14 2237   5.301   3.886   7.361 -0.4502 -0.1301  2.0973
   31CHL1   C15 2238   5.456   3.757   7.385  0.0332 -0.3064 -0.5704
   31CHL1  H15A 2239   5.494   3.665   7.336 -0.9388 -0.4361 -1.1009
   31CHL1  H15B 2240   5.526   3.840   7.360 -0.3907 -0.6090 -2.8373
   31CHL1   C16 2241   5.442   3.745   7.538 -0.4560 -0.0768  0.0315
   31CHL1  H16A 2242   5.493   3.652   7.572 -1.0657 -1.1684 -1.9430
   31CHL1  H16B 2243   5.481   3.826   7.603  2.8504 -1.4426 -0.1842
   31CHL1   C17 2244   5.288   3.732   7.575  0.2115  0.6508  0.5056
   31CHL1   H17 2245   5.250   3.836   7.585 -0.8269  0.5254 -1.9024
   31CHL1   C13 2246   5.226   3.699   7.439  0.8781 -0.0707  0.3425
   31CHL1   C18 2247   5.233   3.549   7.404 -0.0652  0.0652 -0.1548
   31CHL1  H18A 2248   5.237   3.529   7.295 -1.0455  2.4673 -0.6731
   31CHL1  H18B 2249   5.323   3.500   7.448 -1.7744 -2.3550  0.7213
   31CHL1  H18C 2250   5.156   3.481   7.444 -0.6550  0.8687  0.0829
   31CHL1   C12 2251   5.079   3.750   7.406  0.0905 -0.2068 -0.7610
   31CHL1  H12A 2252   5.005   3.706   7.476  0.9264 -0.1289  0.1760
   31CHL1  H12B 2253   5.082   3.861   7.418  1.5200 -0.2818 -0.3273
   31CHL1   C11 2254   5.039   3.731   7.260  0.3721  0.4369 -0.0418
   31CHL1  H11A 2255   5.029   3.621   7.249 -0.9347  0.7349 -2.0496
   31CHL1  H11B 2256   4.940   3.783   7.258  0.4519  0.5591 -0.6975
   31CHL1    C9 2257   5.141   3.806   7.165  0.5592 -0.2975 -0.3674
   31CHL1    H9 2258   5.130   3.911   7.199 -3.6175 -0.9388  0.5259
   31CHL1   C10 2259   5.097   3.796   7.018  0.0768 -0.6597 -0.7000
   31CHL1   C19 2260   5.060   3.645   6.987 -0.1988 -0.5558  0.3553
   31CHL1  H19A 2261   5.154   3.587   6.999 -0.2099 -0.5161  0.6297
   31CHL1  H19B 2262   4.984   3.600   7.054  0.4046 -2.5963 -0.2794
   31CHL1  H19C 2263   5.021   3.637   6.883  1.2558 -1.1968 -0.1576
   31CHL1    C1 2264   4.974   3.886   6.983  0.0024  0.2436 -0.4372
   31CHL1   H1A 2265   4.884   3.851   7.037  0.8753 -0.3351  0.6662
   31CHL1   H1B 2266   4.984   3.979   7.043  0.7756 -0.4103  0.4659
   31CHL1    C2 2267   4.938   3.911   6.836  0.3719 -0.3118  1.0836
   31CHL1   H2A 2268   4.861   3.989   6.821 -0.6528 -1.4462  0.3807
   31CHL1   H2B 2269   4.899   3.813   6.801 -1.7317  0.6503  0.6515
   31CHL1   C20 2270   5.267   3.659   7.708 -0.5341  0.4171 -1.2148
   31CHL1   H20 2271   5.319   3.560   7.701  2.8615  1.9501  0.9899
   31CHL1   C21 2272   5.120   3.637   7.741  0.0725 -0.2387  0.3116
   31CHL1  H21A 2273   5.072   3.732   7.774  2.4173 -0.0907  3.5233
   31CHL1  H21B 2274   5.110   3.572   7.830  0.5890  1.2499  1.4825
   31CHL1  H21C 2275   5.065   3.587   7.658 -1.4278 -0.7801  1.6122
   31CHL1   C22 2276   5.317   3.735   7.829 -0.1104 -0.3921  0.8725
   31CHL1  H22A 2277   5.420   3.775   7.821  0.3233 -1.2405  1.9405
   31CHL1  H22B 2278   5.258   3.826   7.853 -0.7363 -0.2248 -1.2055
   31CHL1   C23 2279   5.328   3.659   7.962  1.0295 -0.0208  0.3105
   31CHL1  H23A 2280   5.234   3.672   8.021  1.3932  2.4452  0.3945
   31CHL1  H23B 2281   5.352   3.555   7.932  1.5121 -0.6415  2.7199
   31CHL1   C24 2282   5.448   3.714   8.044  0.2060 -0.0119  0.0804
   31CHL1  H24A 2283   5.540   3.698   7.985  0.4750  0.4783  0.3612
   31CHL1  H24B 2284   5.429   3.823   8.059 -0.2605  0.0123 -0.6678
   31CHL1   C25 2285   5.477   3.646   8.180 -0.0386 -1.1009 -0.0720
   31CHL1   H25 2286   5.566   3.700   8.221  1.0593 -2.2391 -0.9273
   31CHL1   C26 2287   5.358   3.662   8.275  0.5888  0.3763  0.7089
   31CHL1  H26A 2288   5.276   3.596   8.238 -0.2737  1.3989  0.7825
   31CHL1  H26B 2289   5.384   3.639   8.381  1.5929  0.9452  0.5968
   31CHL1  H26C 2290   5.311   3.762   8.268  1.0157  0.4606 -1.0667
   31CHL1   C27 2291   5.519   3.500   8.181  0.3988  0.6906 -0.4082
   31CHL1  H27A 2292   5.447   3.434   8.129 -2.7135  1.4702  2.6941
   31CHL1  H27B 2293   5.508   3.454   8.282 -2.0480  1.4921 -0.2876
   31CHL1  H27C 2294   5.620   3.483   8.138  0.6042 -2.8033  1.2674
   32CHL1    C3 2295   5.740   2.301   6.893  0.2374  0.1616  0.3083
   32CHL1    H3 2296   5.644   2.271   6.941 -0.4773  1.7108 -0.1046
   32CHL1    O3 2297   5.714   2.354   6.768  0.5941  0.5789  0.6771
   32CHL1   H3' 2298   5.729   2.449   6.776  0.4769  0.6466  0.1262
   32CHL1    C4 2299   5.809   2.413   6.975  0.3112  0.0223  0.4537
   32CHL1   H4A 2300   5.898   2.437   6.913 -0.2657 -1.0296 -0.8127
   32CHL1   H4B 2301   5.739   2.499   6.984  2.5051  1.9040  0.1727
   32CHL1    C5 2302   5.860   2.365   7.111 -0.0757 -0.1300 -0.5794
   32CHL1    C6 2303   5.815   2.426   7.225 -0.0314  0.1001 -0.3603
   32CHL1    H6 2304   5.745   2.510   7.215 -0.0604  0.1731  0.4863
   32CHL1    C7 2305   5.849   2.394   7.366  0.0462  0.2377 -0.1318
   32CHL1   H7A 2306   5.901   2.476   7.421  0.6852  1.6551 -2.7779
   32CHL1   H7B 2307   5.758   2.363   7.421  1.1359  0.7131  2.0208
   32CHL1    C8 2308   5.969   2.289   7.366  0.3372 -0.2350 -0.0049
   32CHL1    H8 2309   6.057   2.354   7.345  0.9578 -1.2069 -0.4579
   32CHL1   C14 2310   5.971   2.217   7.504 -0.2469  0.5845 -0.3440
   32CHL1   H14 2311   5.869   2.178   7.517 -0.6914  1.1044 -2.1489
   32CHL1   C15 2312   5.986   2.299   7.631 -0.7019  0.0871  0.6926
   32CHL1  H15A 2313   6.079   2.359   7.621 -0.2565 -0.5176  1.1498
   32CHL1  H15B 2314   5.907   2.374   7.652 -0.2188  0.8473 -0.1922
   32CHL1   C16 2315   6.007   2.193   7.742 -0.0167  0.3178  0.0640
   32CHL1  H16A 2316   6.080   2.225   7.819  1.8635 -2.2466 -0.5922
   32CHL1  H16B 2317   5.907   2.182   7.788  0.0731  0.6444  0.3355
   32CHL1   C17 2318   6.035   2.061   7.666  0.6707 -0.1058  0.7609
   32CHL1   H17 2319   5.937   2.008   7.668  1.1812 -1.1145 -0.7381
   32CHL1   C13 2320   6.070   2.101   7.514  0.1028 -0.0710  0.0708
   32CHL1   C18 2321   6.211   2.164   7.506 -0.0174  0.3168  0.6080
   32CHL1  H18A 2322   6.249   2.214   7.597  3.0174  1.5333 -1.2444
   32CHL1  H18B 2323   6.284   2.082   7.489  0.8168  1.7383 -3.2169
   32CHL1  H18C 2324   6.224   2.231   7.418  0.2880 -0.4259  0.0873
   32CHL1   C12 2325   6.046   1.996   7.402  0.0174  0.3071  0.1047
   32CHL1  H12A 2326   6.126   1.921   7.415 -1.9383 -2.0030 -0.7176
   32CHL1  H12B 2327   5.949   1.944   7.412 -0.0162  1.0674  4.4587
   32CHL1   C11 2328   6.063   2.068   7.270  0.0892 -1.0479  0.0952
   32CHL1  H11A 2329   6.168   2.101   7.256  0.0149 -0.7240  0.2829
   32CHL1  H11B 2330   6.038   1.996   7.190  0.3390 -1.7511  0.6431
   32CHL1    C9 2331   5.956   2.183   7.260 -0.8396  0.1452  0.0077
   32CHL1    H9 2332   5.855   2.139   7.276 -0.7967 -0.2854 -0.8962
   32CHL1   C10 2333   5.946   2.238   7.110  0.2867  0.0590  0.0687
   32CHL1   C19 2334   6.082   2.284   7.061  0.0766  0.0580 -0.4980
   32CHL1  H19A 2335   6.061   2.332   6.963  1.6979 -3.7220 -2.7958
   32CHL1  H19B 2336   6.140   2.350   7.130  1.3592 -1.3568 -0.2071
   32CHL1  H19C 2337   6.146   2.196   7.041  0.1619  0.4949 -2.2667
   32CHL1    C1 2338   5.884   2.128   7.011 -0.8752  0.6677  0.3478
   32CHL1   H1A 2339   5.954   2.042   7.002  1.6991  2.5750  1.5469
   32CHL1   H1B 2340   5.796   2.082   7.060 -2.0235  1.9097 -0.5408
   32CHL1    C2 2341   5.834   2.183   6.879 -0.0938  0.4387 -0.2942
   32CHL1   H2A 2342   5.777   2.104   6.827 -0.4468  0.9336 -0.6566
   32CHL1   H2B 2343   5.918   2.206   6.810  1.2583  1.5318  1.6819
   32CHL1   C20 2344   6.132   1.974   7.746  0.4877 -0.0195 -0.2124
   32CHL1   H20 2345   6.232   2.022   7.748  1.4130 -1.8977  2.8220
   32CHL1   C21 2346   6.152   1.838   7.669  0.7764 -0.3474  0.6616
   32CHL1  H21A 2347   6.054   1.787   7.657 -0.3385  1.7089  0.7677
   32CHL1  H21B 2348   6.220   1.770   7.724  0.6135 -0.2278  1.0175
   32CHL1  H21C 2349   6.195   1.850   7.568  0.2792  0.6936  0.5648
   32CHL1   C22 2350   6.101   1.941   7.888 -0.1014 -0.2150  0.6039
   32CHL1  H22A 2351   6.061   2.030   7.941  2.1190  1.1021  0.1581
   32CHL1  H22B 2352   6.024   1.861   7.889  0.7394 -1.0628 -0.9283
   32CHL1   C23 2353   6.220   1.904   7.978 -0.1208  0.0870 -1.0933
   32CHL1  H23A 2354   6.269   1.813   7.937 -0.4502 -0.5400 -0.1169
   32CHL1  H23B 2355   6.289   1.991   7.982  2.2094 -1.8146  2.1170
   32CHL1   C24 2356   6.176   1.871   8.120  0.2875 -1.3843  0.2366
   32CHL1  H24A 2357   6.116   1.957   8.156  2.1325 -0.1508  0.4061
   32CHL1  H24B 2358   6.112   1.780   8.123 -1.6777 -0.0736 -1.0185
   32CHL1   C25 2359   6.297   1.848   8.214 -0.4477  0.1248  0.6280
   32CHL1   H25 2360   6.362   1.938   8.217  0.1890 -0.3461  1.0879
   32CHL1   C26 2361   6.253   1.824   8.364 -0.2308 -0.1443  0.1667
   32CHL1  H26A 2362   6.349   1.822   8.420 -0.8947 -0.0866  1.3346
   32CHL1  H26B 2363   6.189   1.906   8.404  1.3422  1.4104 -0.4154
   32CHL1  H26C 2364   6.211   1.726   8.395 -0.3882  0.6405  2.5700
   32CHL1   C27 2365   6.385   1.733   8.174  0.3726 -0.2593 -0.9027
   32CHL1  H27A 2366   6.438   1.699   8.265 -1.6237 -0.7385  0.0980
   32CHL1  H27B 2367   6.321   1.647   8.144 -0.3546  0.6166 -1.8759
   32CHL1  H27C 2368   6.456   1.746   8.089  0.0290 -1.2000 -1.3405
   33CHL1    C3 2369   0.588   2.576   6.674  0.0555 -0.5822 -0.1888
   33CHL1    H3 2370   0.606   2.474   6.713  0.5701 -0.6057 -0.4811
   33CHL1    O3 2371   0.650   2.580   6.549 -0.1197  0.0515 -0.0264
   33CHL1   H3' 2372   0.743   2.599   6.561  0.5039 -1.7656 -1.7687
   33CHL1    C4 2373   0.441   2.605   6.655  0.1416  0.9919  0.2257
   33CHL1   H4A 2374   0.432   2.700   6.598  0.9183 -0.1377 -1.8765
   33CHL1   H4B 2375   0.395   2.531   6.586  2.5772  0.0741 -0.4673
   33CHL1    C5 2376   0.361   2.619   6.784  0.0854  0.3152 -0.2935
   33CHL1    C6 2377   0.247   2.547   6.800 -0.1798 -0.7281 -0.6831
   33CHL1    H6 2378   0.200   2.488   6.719 -1.6961 -0.8443  0.2700
   33CHL1    C7 2379   0.174   2.560   6.932 -0.7167  0.7142  0.4895
   33CHL1   H7A 2380   0.072   2.597   6.910 -0.0918  0.2109 -3.5947
   33CHL1   H7B 2381   0.169   2.459   6.979 -1.3087  0.4306 -0.1701
   33CHL1    C8 2382   0.227   2.658   7.032  0.4715 -0.3274 -0.2756
   33CHL1    H8 2383   0.190   2.756   6.995 -1.2299 -1.0724 -0.6077
   33CHL1   C14 2384   0.166   2.628   7.171 -0.2312 -0.5341 -0.3879
   33CHL1   H14 2385   0.207   2.530   7.204 -1.5680 -1.1837 -0.6614
   33CHL1   C15 2386   0.013   2.613   7.184  0.0591  0.5513  0.2149
   33CHL1  H15A 2387  -0.047   2.695   7.139 -0.6684  0.2413  0.6189
   33CHL1  H15B 2388  -0.023   2.517   7.142 -1.3441  1.0917  0.1485
   33CHL1   C16 2389  -0.013   2.617   7.333  1.1087  0.1608 -0.1637
   33CHL1  H16A 2390  -0.096   2.689   7.347 -0.6522 -1.4948 -1.8076
   33CHL1  H16B 2391  -0.035   2.517   7.377  0.3809  0.5881  0.4586
   33CHL1   C17 2392   0.116   2.671   7.395 -0.0978  0.0432  0.0632
   33CHL1   H17 2393   0.170   2.585   7.441 -1.0246 -0.5520  0.0587
   33CHL1   C13 2394   0.200   2.728   7.276  0.1135 -1.0821 -0.5120
   33CHL1   C18 2395   0.143   2.863   7.237  0.2258 -0.7253  0.0181
   33CHL1  H18A 2396   0.183   2.935   7.311  0.7889  0.3491 -1.3152
   33CHL1  H18B 2397   0.179   2.895   7.137  0.5289  0.1916  0.4163
   33CHL1  H18C 2398   0.032   2.865   7.245  0.2604 -0.7435  0.5693
   33CHL1   C12 2399   0.348   2.737   7.294 -0.0919  0.0489 -0.1523
   33CHL1  H12A 2400   0.366   2.828   7.356 -2.8038 -2.1058  3.9957
   33CHL1  H12B 2401   0.387   2.650   7.351  0.2830  0.6433  0.5190
   33CHL1   C11 2402   0.427   2.744   7.163  0.2558  0.3065  0.4414
   33CHL1  H11A 2403   0.428   2.851   7.133  2.7345 -0.0907 -1.0823
   33CHL1  H11B 2404   0.534   2.718   7.179  0.0099 -0.5534  0.7113
   33CHL1    C9 2405   0.374   2.666   7.040 -0.5287  0.5302  0.2559
   33CHL1    H9 2406   0.406   2.562   7.063 -2.6601 -0.2021  0.0090
   33CHL1   C10 2407   0.428   2.699   6.898 -0.3436 -0.3467  0.7692
   33CHL1   C19 2408   0.417   2.850   6.876  0.4345 -0.2185 -0.4631
   33CHL1  H19A 2409   0.311   2.881   6.883  0.5409  0.4878 -1.6757
   33CHL1  H19B 2410   0.474   2.906   6.953  0.1181 -0.5317  0.0003
   33CHL1  H19C 2411   0.452   2.873   6.773  0.5081  0.5313 -0.2719
   33CHL1    C1 2412   0.582   2.670   6.899 -0.1547 -0.1608 -0.5155
   33CHL1   H1A 2413   0.639   2.729   6.974  0.1244 -0.9798 -0.0734
   33CHL1   H1B 2414   0.591   2.564   6.934  0.9405  0.0390 -0.1695
   33CHL1    C2 2415   0.655   2.672   6.765  0.3152 -0.1891 -1.0574
   33CHL1   H2A 2416   0.760   2.642   6.788 -0.3841 -0.3215  2.2381
   33CHL1   H2B 2417   0.658   2.771   6.715  1.3026  1.2641  1.7608
   33CHL1   C20 2418   0.095   2.765   7.510  0.1595 -0.1060 -0.2810
   33CHL1   H20 2419   0.050   2.860   7.472 -0.5923 -0.5050 -0.4102
   33CHL1   C21 2420   0.223   2.797   7.592 -0.6011 -0.7054 -0.0172
   33CHL1  H21A 2421   0.287   2.706   7.591  0.9115  0.3269  1.5432
   33CHL1  H21B 2422   0.208   2.825   7.698  2.2494  0.2727  0.1436
   33CHL1  H21C 2423   0.283   2.879   7.549 -0.0615 -0.8160  0.5171
   33CHL1   C22 2424  -0.014   2.701   7.613  0.0424 -0.4487 -0.1121
   33CHL1  H22A 2425  -0.017   2.774   7.697 -0.7470  1.4281 -1.7609
   33CHL1  H22B 2426  -0.115   2.710   7.568 -0.6169 -1.2252  1.1534
   33CHL1   C23 2427   0.021   2.560   7.668 -1.1492 -0.5338 -0.3593
   33CHL1  H23A 2428   0.005   2.479   7.593  0.2876 -1.4611  0.3216
   33CHL1  H23B 2429   0.130   2.569   7.686 -1.3479  1.8896 -0.0966
   33CHL1   C24 2430  -0.050   2.512   7.799 -0.7073 -0.1130 -0.2796
   33CHL1  H24A 2431  -0.155   2.547   7.790 -0.5437  0.7898  1.1678
   33CHL1  H24B 2432  -0.044   2.402   7.814 -1.4247 -0.1011  0.1028
   33CHL1   C25 2433  -0.006   2.584   7.931 -0.1666 -0.0665 -1.4508
   33CHL1   H25 2434  -0.016   2.693   7.912 -0.8514  0.1190 -0.0711
   33CHL1   C26 2435  -0.115   2.560   8.038  0.2081 -0.5347  0.4885
   33CHL1  H26A 2436  -0.205   2.613   7.998  1.4294  2.0554  1.0460
   33CHL1  H26B 2437  -0.144   2.454   8.050  2.8006 -1.5486 -1.7232
   33CHL1  H26C 2438  -0.095   2.600   8.140 -0.9733 -1.3120  1.0460
   33CHL1   C27 2439   0.134   2.539   7.972 -0.4210 -0.0365  0.0727
   33CHL1  H27A 2440   0.209   2.572   7.897 -2.6939  1.2225 -1.6964
   33CHL1  H27B 2441   0.160   2.583   8.071  1.6532 -0.2627 -0.3572
   33CHL1  H27C 2442   0.154   2.429   7.977  1.4500  0.2382 -1.1243
   34CHL1    C3 2443   1.249   0.672   7.071 -0.3718 -0.8325  0.0089
   34CHL1    H3 2444   1.159   0.731   7.046  0.5292  0.5673  0.0481
   34CHL1    O3 2445   1.305   0.638   6.941  0.1554 -0.6063 -0.4542
   34CHL1   H3' 2446   1.361   0.563   6.959  0.4656 -0.3596 -0.3837
   34CHL1    C4 2447   1.351   0.760   7.144 -0.0314 -0.2676 -0.3886
   34CHL1   H4A 2448   1.446   0.702   7.144 -0.2255 -0.5945 -1.3233
   34CHL1   H4B 2449   1.374   0.849   7.082  0.9683 -0.3120 -0.0962
   34CHL1    C5 2450   1.300   0.794   7.283 -0.0576 -0.3626 -0.5214
   34CHL1    C6 2451   1.291   0.920   7.317 -0.2045 -0.5090  0.3600
   34CHL1    H6 2452   1.316   0.990   7.237  1.4138  0.7752  1.9605
   34CHL1    C7 2453   1.256   0.965   7.461  0.1843 -0.6490  0.3683
   34CHL1   H7A 2454   1.321   1.049   7.491 -1.9086  1.3986 -0.6697
   34CHL1   H7B 2455   1.152   1.005   7.462  0.6747  0.8729 -2.7797
   34CHL1    C8 2456   1.264   0.852   7.566 -0.9492 -0.5132  0.9496
   34CHL1    H8 2457   1.368   0.841   7.603  0.0113  2.1455 -0.7661
   34CHL1   C14 2458   1.175   0.879   7.686  0.2673 -0.3188  0.0669
   34CHL1   H14 2459   1.069   0.880   7.655  0.0843  0.1557  0.6878
   34CHL1   C15 2460   1.198   1.006   7.763  0.1955 -0.0891 -0.2525
   34CHL1  H15A 2461   1.306   1.024   7.778  0.1932 -0.1156 -0.2029
   34CHL1  H15B 2462   1.159   1.094   7.707  1.6369  1.3669  0.9767
   34CHL1   C16 2463   1.122   0.991   7.896 -0.6040 -0.2662 -0.0090
   34CHL1  H16A 2464   1.195   1.019   7.975 -0.9296 -1.8702  0.8644
   34CHL1  H16B 2465   1.040   1.066   7.891  0.5923  0.9159 -3.8536
   34CHL1   C17 2466   1.085   0.838   7.898  0.3375 -0.0733  0.1590
   34CHL1   H17 2467   0.989   0.844   7.842 -0.5176  0.3299  1.6305
   34CHL1   C13 2468   1.178   0.770   7.794 -0.7744 -0.0532  0.4992
   34CHL1   C18 2469   1.310   0.756   7.864 -0.1886  0.2787 -0.0749
   34CHL1  H18A 2470   1.397   0.746   7.794  0.6555 -0.7657  1.0999
   34CHL1  H18B 2471   1.340   0.841   7.928  1.1583  0.2282 -0.6242
   34CHL1  H18C 2472   1.304   0.670   7.934  1.5967  0.6531  0.5755
   34CHL1   C12 2473   1.133   0.637   7.735  0.2562  0.7028  0.0761
   34CHL1  H12A 2474   1.141   0.563   7.818  3.1380  0.6953 -0.1454
   34CHL1  H12B 2475   1.028   0.645   7.700  0.3809  0.0066 -0.4649
   34CHL1   C11 2476   1.212   0.603   7.609 -0.5419 -0.6909 -0.0142
   34CHL1  H11A 2477   1.316   0.571   7.632 -0.5315  0.9798  2.5537
   34CHL1  H11B 2478   1.164   0.511   7.568  0.5648 -0.7849 -1.1054
   34CHL1    C9 2479   1.213   0.717   7.511  0.0300 -0.5617  1.2111
   34CHL1    H9 2480   1.106   0.734   7.487 -0.0949 -0.8988  1.5444
   34CHL1   C10 2481   1.273   0.678   7.371 -0.6449  1.2799  0.0939
   34CHL1   C19 2482   1.398   0.597   7.391 -0.4502  1.0030 -0.4956
   34CHL1  H19A 2483   1.368   0.506   7.446  3.0008  0.2170  0.2222
   34CHL1  H19B 2484   1.458   0.570   7.301 -0.7554  0.2486 -0.4746
   34CHL1  H19C 2485   1.463   0.657   7.459  1.0280  0.4250 -1.3627
   34CHL1    C1 2486   1.169   0.591   7.293  0.1792 -0.0660 -0.0417
   34CHL1   H1A 2487   1.148   0.496   7.346  0.3282 -0.9986 -1.6231
   34CHL1   H1B 2488   1.075   0.650   7.289 -0.3661 -0.6294  3.2481
   34CHL1    C2 2489   1.211   0.545   7.147  0.0904 -0.0064  0.2798
   34CHL1   H2A 2490   1.124   0.493   7.101 -0.6912  1.4308  0.1189
   34CHL1   H2B 2491   1.299   0.479   7.163 -1.4485 -1.7598  1.7956
   34CHL1   C20 2492   1.052   0.775   8.035 -0.2893 -0.2678  0.0900
   34CHL1   H20 2493   1.145   0.719   8.061  0.9162  0.8534 -1.7088
   34CHL1   C21 2494   0.929   0.687   8.010  0.1844 -0.0303 -0.1132
   34CHL1  H21A 2495   0.893   0.626   8.095  1.6373 -2.2976 -1.0735
   34CHL1  H21B 2496   0.954   0.621   7.924 -1.4229  0.3054 -0.8540
   34CHL1  H21C 2497   0.845   0.756   7.986 -0.7655 -1.9412 -2.4665
   34CHL1   C22 2498   1.033   0.879   8.146 -0.7583  0.8081 -0.6440
   34CHL1  H22A 2499   1.115   0.954   8.151 -0.1915  0.1026  0.7734
   34CHL1  H22B 2500   0.941   0.935   8.117  0.2303  2.0103 -1.5561
   34CHL1   C23 2501   1.004   0.824   8.284 -0.0190  0.1899  0.1549
   34CHL1  H23A 2502   0.919   0.754   8.268  0.1287  0.0709 -0.0928
   34CHL1  H23B 2503   1.098   0.784   8.326 -1.1235 -0.2781  2.2502
   34CHL1   C24 2504   0.960   0.931   8.391 -0.0685  0.3281 -0.3142
   34CHL1  H24A 2505   1.027   0.925   8.480  0.1860  2.3084 -0.3526
   34CHL1  H24B 2506   0.973   1.032   8.347  1.8135  0.6527  0.8977
   34CHL1   C25 2507   0.814   0.908   8.434  0.0873  0.5584 -0.1635
   34CHL1   H25 2508   0.796   0.799   8.448  1.6016 -0.0856 -2.9451
   34CHL1   C26 2509   0.772   0.988   8.562 -0.3907  0.2727 -0.5047
   34CHL1  H26A 2510   0.851   0.970   8.638  0.4432 -0.9381 -1.6278
   34CHL1  H26B 2511   0.763   1.093   8.527 -4.3744  0.2547  0.2092
   34CHL1  H26C 2512   0.669   0.955   8.590 -0.6808  0.3955 -1.4010
   34CHL1   C27 2513   0.715   0.952   8.327 -0.2614  0.4114  0.4316
   34CHL1  H27A 2514   0.737   1.056   8.296  1.8680 -0.0285  0.3548
   34CHL1  H27B 2515   0.741   0.885   8.242 -0.7846  0.2934  0.3625
   34CHL1  H27C 2516   0.607   0.942   8.351 -0.2687 -1.5456 -0.3451
   35CHL1    C3 2517   4.487   2.021   7.268  0.3048 -0.3355 -0.4200
   35CHL1    H3 2518   4.575   1.961   7.298  0.4771  0.0120 -0.2288
   35CHL1    O3 2519   4.490   2.028   7.127 -0.8333 -0.0848  0.4774
   35CHL1   H3' 2520   4.508   2.120   7.107  0.7869 -0.4149  0.3450
   35CHL1    C4 2521   4.365   1.942   7.308 -0.7861  0.0406 -0.5847
   35CHL1   H4A 2522   4.283   2.001   7.260 -0.3366  0.0914 -1.2908
   35CHL1   H4B 2523   4.375   1.847   7.252  1.0324 -1.3092  1.9603
   35CHL1    C5 2524   4.355   1.927   7.460 -0.6845 -0.3893  0.1822
   35CHL1    C6 2525   4.354   1.807   7.519  0.1993 -0.5849  0.2479
   35CHL1    H6 2526   4.347   1.713   7.462  0.4935 -0.0591 -0.6726
   35CHL1    C7 2527   4.331   1.787   7.665 -0.2744  0.0508  0.3137
   35CHL1   H7A 2528   4.258   1.709   7.695  0.9451 -1.1346  0.2438
   35CHL1   H7B 2529   4.430   1.759   7.706 -0.0146  1.6587  0.8314
   35CHL1    C8 2530   4.290   1.920   7.738 -0.2096  0.0765  0.1126
   35CHL1    H8 2531   4.185   1.951   7.719 -0.9142 -0.8970  2.3063
   35CHL1   C14 2532   4.316   1.904   7.884  0.0122  0.0204  0.6306
   35CHL1   H14 2533   4.426   1.894   7.895  0.0019 -1.0344 -0.1722
   35CHL1   C15 2534   4.255   1.780   7.943  0.2813 -0.5332  0.0200
   35CHL1  H15A 2535   4.149   1.767   7.913  0.3011  0.6904 -0.6115
   35CHL1  H15B 2536   4.307   1.684   7.922  0.6727  0.0477 -1.7575
   35CHL1   C16 2537   4.256   1.810   8.097  0.0498 -0.4308  0.2782
   35CHL1  H16A 2538   4.150   1.804   8.130 -0.2485 -0.1183 -0.5897
   35CHL1  H16B 2539   4.316   1.740   8.158 -0.3469 -0.6433  0.4289
   35CHL1   C17 2540   4.310   1.962   8.112 -0.0247 -0.4088 -0.3569
   35CHL1   H17 2541   4.420   1.957   8.126  0.1488 -1.4959 -1.9306
   35CHL1   C13 2542   4.290   2.029   7.970 -0.0272  0.1997 -1.1664
   35CHL1   C18 2543   4.141   2.086   7.957 -0.3143  0.2915 -0.3180
   35CHL1  H18A 2544   4.121   2.165   8.033 -3.7263  0.0228 -0.8778
   35CHL1  H18B 2545   4.106   2.129   7.861 -2.8770  0.5661  0.7014
   35CHL1  H18C 2546   4.072   2.005   7.987 -0.0032 -0.6274 -2.0328
   35CHL1   C12 2547   4.391   2.139   7.924  0.1984 -1.2767  0.0405
   35CHL1  H12A 2548   4.364   2.226   7.988  0.0088 -1.0269 -0.3782
   35CHL1  H12B 2549   4.499   2.112   7.927  1.0194  1.3144 -3.0529
   35CHL1   C11 2550   4.370   2.166   7.772 -0.7226 -0.2082  0.3880
   35CHL1  H11A 2551   4.276   2.224   7.762 -1.0463 -1.0325 -1.8115
   35CHL1  H11B 2552   4.455   2.227   7.734 -0.9755 -0.4636 -0.6157
   35CHL1    C9 2553   4.385   2.040   7.692  0.2100  0.7714 -0.1931
   35CHL1    H9 2554   4.486   1.997   7.709 -0.9368 -1.3446  1.5085
   35CHL1   C10 2555   4.367   2.059   7.538  0.8762  0.2390 -0.0993
   35CHL1   C19 2556   4.241   2.142   7.515 -0.0979  0.0209 -1.1462
   35CHL1  H19A 2557   4.160   2.108   7.582  0.7991  2.5661  1.2925
   35CHL1  H19B 2558   4.271   2.244   7.547 -0.5864 -0.5189  1.0735
   35CHL1  H19C 2559   4.209   2.145   7.408 -0.5454  0.9782 -0.9864
   35CHL1    C1 2560   4.489   2.140   7.486  0.4215 -0.5171 -0.0831
   35CHL1   H1A 2561   4.501   2.241   7.530 -2.4170 -0.1280 -0.1144
   35CHL1   H1B 2562   4.575   2.081   7.524  1.1469  0.5244 -0.0917
   35CHL1    C2 2563   4.485   2.156   7.333 -0.0622  0.2284 -0.3043
   35CHL1   H2A 2564   4.578   2.214   7.317  0.2933  0.5910  2.6986
   35CHL1   H2B 2565   4.397   2.208   7.288 -1.2380 -1.3933  0.0753
   35CHL1   C20 2566   4.256   2.037   8.237 -0.6790 -0.2530  0.4015
   35CHL1   H20 2567   4.150   2.062   8.217 -0.4868  0.5145  0.3396
   35CHL1   C21 2568   4.330   2.174   8.249  0.1284  1.3013 -0.1828
   35CHL1  H21A 2569   4.319   2.221   8.349  1.3160  2.5730 -0.6344
   35CHL1  H21B 2570   4.279   2.252   8.189 -0.8111  1.6622  1.0728
   35CHL1  H21C 2571   4.437   2.167   8.219  0.5381 -1.3570  1.7407
   35CHL1   C22 2572   4.256   1.954   8.368  0.0529  0.4300  0.3824
   35CHL1  H22A 2573   4.211   1.853   8.359 -0.6902  0.8526 -0.6540
   35CHL1  H22B 2574   4.362   1.931   8.393 -0.1741 -0.8873  0.1548
   35CHL1   C23 2575   4.201   2.028   8.493  0.4306  0.7691 -0.1826
   35CHL1  H23A 2576   4.261   2.119   8.519 -0.1562  1.1120 -0.0198
   35CHL1  H23B 2577   4.101   2.060   8.459  0.2183 -0.2375 -0.5141
   35CHL1   C24 2578   4.195   1.944   8.619  0.3918 -0.5311 -0.2096
   35CHL1  H24A 2579   4.138   1.857   8.581  0.1113  0.0243 -1.0671
   35CHL1  H24B 2580   4.298   1.907   8.638  0.7365  1.1734  1.4523
   35CHL1   C25 2581   4.151   2.004   8.752 -0.0635 -0.8850  0.2527
   35CHL1   H25 2582   4.232   2.074   8.781 -1.4952  1.2901 -0.8210
   35CHL1   C26 2583   4.017   2.063   8.737 -0.3245  0.8220  0.0556
   35CHL1  H26A 2584   3.968   2.106   8.827 -0.1037 -0.4097  0.7679
   35CHL1  H26B 2585   4.023   2.137   8.655  0.5044  0.8560  0.1420
   35CHL1  H26C 2586   3.954   1.982   8.693 -1.7707  2.1299 -0.3252
   35CHL1   C27 2587   4.142   1.901   8.866  0.2598 -0.2215 -0.2466
   35CHL1  H27A 2588   4.244   1.863   8.888  0.4102  0.0074 -0.5385
   35CHL1  H27B 2589   4.086   1.812   8.828 -0.7497 -1.2591  3.5010
   35CHL1  H27C 2590   4.074   1.938   8.945 -1.3581 -0.5808 -1.4273
   36CHL1    C3 2591   5.298   1.480   7.170 -0.1680  0.2827  0.1428
   36CHL1    H3 2592   5.335   1.376   7.184 -0.7130 -0.2246 -2.0348
   36CHL1    O3 2593   5.283   1.492   7.028  0.7387 -0.1859 -0.2492
   36CHL1   H3' 2594   5.249   1.579   7.008  1.5941 -0.0255 -1.0372
   36CHL1    C4 2595   5.166   1.505   7.240  0.3783  0.6705 -0.0889
   36CHL1   H4A 2596   5.132   1.607   7.210 -2.8071 -0.1454  0.5463
   36CHL1   H4B 2597   5.092   1.437   7.191  0.6836 -1.5219  2.4173
   36CHL1    C5 2598   5.179   1.485   7.392 -0.8123  0.0131  0.6092
   36CHL1    C6 2599   5.091   1.408   7.458 -0.0787 -0.4697  0.3443
   36CHL1    H6 2600   5.016   1.356   7.397  1.8232  0.5378 -3.0225
   36CHL1    C7 2601   5.096   1.383   7.603 -0.1810  0.2636  0.2573
   36CHL1   H7A 2602   4.994   1.383   7.647 -0.2737  2.1620  0.0881
   36CHL1   H7B 2603   5.136   1.282   7.626  2.3511  1.2747  0.4736
   36CHL1    C8 2604   5.184   1.481   7.682 -0.4211  0.4832 -0.2678
   36CHL1    H8 2605   5.132   1.580   7.686  0.5219  1.1076 -2.5635
   36CHL1   C14 2606   5.220   1.437   7.819  0.7315 -0.0461  0.2058
   36CHL1   H14 2607   5.265   1.335   7.820  1.5762  0.3276  2.6136
   36CHL1   C15 2608   5.094   1.401   7.895  0.3166 -0.2252 -0.3444
   36CHL1  H15A 2609   5.006   1.469   7.888 -0.1289 -0.8901 -1.2846
   36CHL1  H15B 2610   5.063   1.296   7.875  1.8283 -0.7047 -0.2419
   36CHL1   C16 2611   5.141   1.409   8.041 -0.1057 -0.7407 -0.4807
   36CHL1  H16A 2612   5.093   1.491   8.097  1.3383  1.3198 -2.1934
   36CHL1  H16B 2613   5.130   1.316   8.101  0.3635 -1.2853 -1.2251
   36CHL1   C17 2614   5.290   1.449   8.036  0.3150 -0.0305  0.3199
   36CHL1   H17 2615   5.342   1.351   8.022 -0.7552 -0.4040 -1.2161
   36CHL1   C13 2616   5.301   1.528   7.905 -0.2677  0.0240 -0.2212
   36CHL1   C18 2617   5.231   1.664   7.936 -0.0681 -0.3173 -0.1707
   36CHL1  H18A 2618   5.223   1.719   7.840 -1.4530 -1.1262 -0.5237
   36CHL1  H18B 2619   5.126   1.659   7.970 -0.4055 -1.4770 -1.3699
   36CHL1  H18C 2620   5.284   1.733   8.006 -1.2440  0.0008  0.4235
   36CHL1   C12 2621   5.430   1.541   7.833  0.1141  0.1658 -0.2061
   36CHL1  H12A 2622   5.495   1.611   7.889 -1.1469  1.3665 -0.2334
   36CHL1  H12B 2623   5.476   1.440   7.819  0.6190  0.5083 -1.0978
   36CHL1   C11 2624   5.417   1.591   7.690  0.9009 -0.4217 -0.5251
   36CHL1  H11A 2625   5.377   1.694   7.696  0.5674 -0.7152  3.4523
   36CHL1  H11B 2626   5.515   1.606   7.639  0.4797  1.4601 -0.8367
   36CHL1    C9 2627   5.322   1.501   7.606  0.3576  0.2344  0.2546
   36CHL1    H9 2628   5.370   1.401   7.605  4.5633  2.1726 -1.1033
   36CHL1   C10 2629   5.303   1.547   7.457  0.6327 -0.2302  0.1298
   36CHL1   C19 2630   5.271   1.697   7.461 -0.1319  0.3390 -0.2717
   36CHL1  H19A 2631   5.192   1.714   7.537 -1.8998 -0.5450 -1.8882
   36CHL1  H19B 2632   5.369   1.747   7.482  0.2768 -0.7318  0.4234
   36CHL1  H19C 2633   5.239   1.734   7.361  2.5812 -2.5929 -2.3355
   36CHL1    C1 2634   5.428   1.520   7.376 -0.4654 -0.3772  0.5361
   36CHL1   H1A 2635   5.511   1.586   7.411 -0.6272 -0.1268  0.4505
   36CHL1   H1B 2636   5.467   1.417   7.383  0.2487 -0.2403 -1.1354
   36CHL1    C2 2637   5.413   1.557   7.226 -0.0406 -0.6155  0.1314
   36CHL1   H2A 2638   5.504   1.535   7.165 -0.7028  0.4457 -1.2494
   36CHL1   H2B 2639   5.393   1.666   7.217 -2.1266 -1.2572 -3.7633
   36CHL1   C20 2640   5.340   1.505   8.167 -0.6657 -0.3807 -0.4251
   36CHL1   H20 2641   5.292   1.603   8.189  3.8275  1.8421  0.2526
   36CHL1   C21 2642   5.491   1.539   8.158 -0.6935  0.3643 -0.1233
   36CHL1  H21A 2643   5.509   1.628   8.094  1.4489 -1.3108 -1.9352
   36CHL1  H21B 2644   5.553   1.464   8.104  0.4609  1.3045 -0.1234
   36CHL1  H21C 2645   5.531   1.553   8.261  1.6060  0.9549 -1.0710
   36CHL1   C22 2646   5.298   1.428   8.293 -0.0583  0.3815 -0.0230
   36CHL1  H22A 2647   5.334   1.485   8.381 -1.9615 -0.1529  1.1389
   36CHL1  H22B 2648   5.187   1.436   8.295 -0.0070  1.1815 -0.3061
   36CHL1   C23 2649   5.354   1.286   8.309 -0.1496 -0.9186  0.0701
   36CHL1  H23A 2650   5.328   1.229   8.217  0.3152  1.7711 -1.7969
   36CHL1  H23B 2651   5.465   1.289   8.311 -0.0965  0.9285 -2.4980
   36CHL1   C24 2652   5.309   1.214   8.442  0.2858 -0.2216  0.0698
   36CHL1  H24A 2653   5.360   1.237   8.537 -3.9698 -1.7532  2.8871
   36CHL1  H24B 2654   5.201   1.229   8.462 -0.0737 -1.5209 -0.7869
   36CHL1   C25 2655   5.301   1.059   8.432  0.5030 -0.6076 -0.6545
   36CHL1   H25 2656   5.254   1.025   8.337  0.2846  0.2558 -0.8625
   36CHL1   C26 2657   5.443   1.005   8.438 -0.1811  0.1166 -0.5568
   36CHL1  H26A 2658   5.493   1.053   8.525 -0.7972  0.6617 -0.4885
   36CHL1  H26B 2659   5.442   0.895   8.446 -1.3683  0.0874 -1.0041
   36CHL1  H26C 2660   5.500   1.036   8.348  1.2309  1.7273  0.8570
   36CHL1   C27 2661   5.208   0.995   8.540 -0.0311  0.6117  0.2836
   36CHL1  H27A 2662   5.105   1.019   8.508 -1.3315 -2.0255  2.2345
   36CHL1  H27B 2663   5.212   0.884   8.537  0.2928  0.6120  0.6369
   36CHL1  H27C 2664   5.235   1.032   8.641 -2.2412  0.3009  1.0045
   37CHL1    C3 2665   1.602   3.205   6.878  0.5144  0.5105  0.7941
   37CHL1    H3 2666   1.599   3.313   6.902  0.6902  1.0140 -1.3938
   37CHL1    O3 2667   1.609   3.186   6.738 -0.3508  0.2832 -0.5314
   37CHL1   H3' 2668   1.684   3.128   6.722  1.4974  1.9049  1.9229
   37CHL1    C4 2669   1.731   3.140   6.935  0.1123  0.2224  0.1545
   37CHL1   H4A 2670   1.742   3.032   6.913  0.6311  0.1623  0.6705
   37CHL1   H4B 2671   1.821   3.182   6.885 -1.0722  0.6997 -1.6113
   37CHL1    C5 2672   1.728   3.153   7.091  0.6919  1.2130  0.2155
   37CHL1    C6 2673   1.838   3.208   7.153 -0.8419  0.0370  0.2062
   37CHL1    H6 2674   1.929   3.241   7.101  0.1877 -1.7093  0.8641
   37CHL1    C7 2675   1.837   3.233   7.299  0.2243  0.4285 -0.4869
   37CHL1   H7A 2676   1.940   3.218   7.338 -0.0321 -0.5198 -0.1625
   37CHL1   H7B 2677   1.820   3.343   7.305 -0.4802  0.4452 -2.6242
   37CHL1    C8 2678   1.730   3.149   7.381 -0.2284  0.4076 -0.0909
   37CHL1    H8 2679   1.762   3.043   7.385 -2.4367 -0.3216 -0.9886
   37CHL1   C14 2680   1.713   3.208   7.523  0.3051 -0.0231  0.4020
   37CHL1   H14 2681   1.672   3.310   7.508  2.0336  0.7695  0.8716
   37CHL1   C15 2682   1.836   3.229   7.609  0.7693  0.6998 -0.5638
   37CHL1  H15A 2683   1.897   3.136   7.610 -0.3517 -0.0422  1.1586
   37CHL1  H15B 2684   1.902   3.317   7.593  0.8241  0.7825  0.0777
   37CHL1   C16 2685   1.780   3.243   7.756 -0.1360 -0.1306  0.2890
   37CHL1  H16A 2686   1.836   3.177   7.826 -0.1146  2.2090  2.5651
   37CHL1  H16B 2687   1.792   3.345   7.798  1.4078 -1.2214  2.6426
   37CHL1   C17 2688   1.630   3.204   7.741 -0.1688 -0.0128 -0.0507
   37CHL1   H17 2689   1.578   3.299   7.716 -1.1391 -0.6790 -0.5798
   37CHL1   C13 2690   1.609   3.135   7.607 -0.2761  0.0584 -0.4990
   37CHL1   C18 2691   1.652   2.989   7.639  0.0678 -0.1121  0.3426
   37CHL1  H18A 2692   1.562   2.927   7.657 -1.1117  1.7488  0.9638
   37CHL1  H18B 2693   1.696   2.943   7.548 -0.9374  3.4587 -2.0774
   37CHL1  H18C 2694   1.726   2.988   7.722  0.8311  1.3980 -0.3007
   37CHL1   C12 2695   1.472   3.142   7.538 -0.2607  0.4168  0.2088
   37CHL1  H12A 2696   1.410   3.073   7.600  0.7957  0.6124  1.5122
   37CHL1  H12B 2697   1.433   3.246   7.545  2.1549  1.2868  1.4541
   37CHL1   C11 2698   1.483   3.091   7.395 -0.4209 -0.6028  0.4010
   37CHL1  H11A 2699   1.509   2.983   7.393  2.6747  0.1415 -1.0547
   37CHL1  H11B 2700   1.386   3.103   7.342  0.2114 -0.2204 -0.6861
   37CHL1    C9 2701   1.595   3.152   7.309  0.0793  0.2199  0.3520
   37CHL1    H9 2702   1.579   3.261   7.301  1.5160  0.5633  1.8184
   37CHL1   C10 2703   1.600   3.104   7.158  0.3773  0.0482 -0.4621
   37CHL1   C19 2704   1.621   2.947   7.161  0.1449  0.5049  0.5862
   37CHL1  H19A 2705   1.705   2.909   7.222 -0.2177 -3.7595 -1.4029
   37CHL1  H19B 2706   1.526   2.900   7.196 -0.4981  1.8464  0.6739
   37CHL1  H19C 2707   1.641   2.907   7.059  1.8228  0.8248  0.7748
   37CHL1    C1 2708   1.468   3.140   7.083 -0.8509 -0.0859 -0.1423
   37CHL1   H1A 2709   1.385   3.076   7.120 -1.8393  1.4031  0.2211
   37CHL1   H1B 2710   1.441   3.243   7.114 -1.8814 -0.6301  0.7920
   37CHL1    C2 2711   1.478   3.127   6.933 -0.3754  0.4249  0.4904
   37CHL1   H2A 2712   1.394   3.183   6.886  0.4273  2.1711  1.1001
   37CHL1   H2B 2713   1.484   3.019   6.907  0.6018  0.6543 -0.2521
   37CHL1   C20 2714   1.554   3.146   7.867 -0.0810 -0.1362  0.7454
   37CHL1   H20 2715   1.479   3.071   7.831 -0.1627 -0.2388  1.1309
   37CHL1   C21 2716   1.474   3.258   7.934  0.2529  0.8497  0.0627
   37CHL1  H21A 2717   1.540   3.323   7.994  0.3158  0.6606  0.1997
   37CHL1  H21B 2718   1.389   3.216   7.991 -0.1025 -0.3706 -1.3296
   37CHL1  H21C 2719   1.418   3.313   7.856 -0.6155  0.0515  0.1121
   37CHL1   C22 2720   1.643   3.069   7.970  0.6658  0.1882 -1.4277
   37CHL1  H22A 2721   1.695   2.985   7.919  0.0206 -0.2990 -1.2855
   37CHL1  H22B 2722   1.710   3.145   8.015  0.6963 -1.2412  1.0281
   37CHL1   C23 2723   1.551   3.016   8.084 -0.5970  0.1313  0.2074
   37CHL1  H23A 2724   1.529   3.092   8.162  2.2763  0.6484  0.5796
   37CHL1  H23B 2725   1.445   2.995   8.056 -0.5153  0.2555 -0.1893
   37CHL1   C24 2726   1.611   2.890   8.153 -0.2456  0.0632  0.2019
   37CHL1  H24A 2727   1.627   2.812   8.075 -3.0705  0.2857 -0.6619
   37CHL1  H24B 2728   1.709   2.919   8.197  0.2411  1.2220 -1.5556
   37CHL1   C25 2729   1.546   2.821   8.279  0.1382  0.4762 -0.2160
   37CHL1   H25 2730   1.606   2.729   8.298  0.5782  1.1770  1.8720
   37CHL1   C26 2731   1.549   2.913   8.400 -0.9594 -0.1424  0.5654
   37CHL1  H26A 2732   1.490   3.006   8.384 -0.1455  0.2328 -0.2790
   37CHL1  H26B 2733   1.512   2.871   8.496 -0.5203  0.7366  1.1306
   37CHL1  H26C 2734   1.654   2.940   8.422 -1.2072  2.5572 -1.2365
   37CHL1   C27 2735   1.407   2.778   8.232  0.1570  0.4690 -0.1625
   37CHL1  H27A 2736   1.351   2.871   8.208  0.0915 -0.0523 -2.1046
   37CHL1  H27B 2737   1.423   2.716   8.141 -0.0753 -0.3844  0.3753
   37CHL1  H27C 2738   1.359   2.719   8.313  1.1048  1.7016  1.3358
   38CHL1    C3 2739   5.224   4.327   6.708  0.4230 -0.8657  0.1314
   38CHL1    H3 2740   5.121   4.285   6.699  0.6341 -0.5248 -5.7441
   38CHL1    O3 2741   5.261   4.351   6.572 -0.1505 -0.5652  0.2401
   38CHL1   H3' 2742   5.234   4.274   6.522 -0.2710 -0.0608 -0.4817
   38CHL1    C4 2743   5.220   4.460   6.780 -0.1598  0.1886 -0.1713
   38CHL1   H4A 2744   5.318   4.508   6.757  0.3929 -0.4030  0.9026
   38CHL1   H4B 2745   5.136   4.523   6.744  0.5096  1.3663  0.2883
   38CHL1    C5 2746   5.198   4.447   6.927 -0.0994  0.8401  0.0415
   38CHL1    C6 2747   5.104   4.518   6.994  0.0150 -0.3560  0.2982
   38CHL1    H6 2748   5.041   4.591   6.942  0.2676 -1.1836 -1.1827
   38CHL1    C7 2749   5.086   4.520   7.141  0.1472  0.5419 -0.3524
   38CHL1   H7A 2750   5.075   4.624   7.177 -2.9756  0.5892 -1.2910
   38CHL1   H7B 2751   4.990   4.468   7.159  0.0003 -0.7003 -4.2038
   38CHL1    C8 2752   5.199   4.442   7.222 -1.1958  0.0058 -0.4996
   38CHL1    H8 2753   5.288   4.508   7.234  1.5190 -3.2329 -1.6661
   38CHL1   C14 2754   5.151   4.398   7.361  0.5978  1.0099 -1.0151
   38CHL1   H14 2755   5.078   4.317   7.341  2.6747 -0.9669 -0.7250
   38CHL1   C15 2756   5.074   4.501   7.440  0.7188 -0.3964 -0.1168
   38CHL1  H15A 2757   5.116   4.602   7.420  0.8043 -0.3108  0.4904
   38CHL1  H15B 2758   4.966   4.497   7.411  0.9017  0.1586 -0.8896
   38CHL1   C16 2759   5.095   4.463   7.587  0.4205 -0.1465 -0.4328
   38CHL1  H16A 2760   5.141   4.545   7.645  1.5372  0.0176 -1.5257
   38CHL1  H16B 2761   5.006   4.431   7.645  0.0197 -0.1140 -1.0284
   38CHL1   C17 2762   5.199   4.337   7.586  0.8197 -0.3218  0.1613
   38CHL1   H17 2763   5.137   4.245   7.573 -1.3515  0.9200  1.4318
   38CHL1   C13 2764   5.269   4.344   7.445 -0.8958  0.1706  0.1338
   38CHL1   C18 2765   5.389   4.434   7.449  0.0756  0.4273 -0.5389
   38CHL1  H18A 2766   5.436   4.455   7.351 -3.9848 -0.9259 -2.9146
   38CHL1  H18B 2767   5.369   4.528   7.505  1.9260  0.6797 -0.2682
   38CHL1  H18C 2768   5.468   4.387   7.511  0.1267  1.4553  0.1866
   38CHL1   C12 2769   5.312   4.216   7.380 -0.1265  0.1835  0.8083
   38CHL1  H12A 2770   5.402   4.177   7.433  2.5693  1.8568 -2.4029
   38CHL1  H12B 2771   5.231   4.139   7.379 -1.6955  1.7973 -2.5956
   38CHL1   C11 2772   5.346   4.229   7.224 -0.1474 -0.2651  1.0255
   38CHL1  H11A 2773   5.441   4.285   7.219 -0.1511 -0.3270  0.0184
   38CHL1  H11B 2774   5.366   4.127   7.185  1.7545  0.6402 -0.4589
   38CHL1    C9 2775   5.243   4.319   7.140 -0.4273  0.3945 -0.7723
   38CHL1    H9 2776   5.156   4.251   7.126 -1.4392  1.2196  1.3196
   38CHL1   C10 2777   5.293   4.352   6.992  0.6802 -0.5276 -0.6319
   38CHL1   C19 2778   5.439   4.398   6.992  0.4544 -0.5404  1.0402
   38CHL1  H19A 2779   5.469   4.435   6.892 -0.5221 -0.8747  0.6093
   38CHL1  H19B 2780   5.448   4.477   7.069 -0.9087  0.1797  0.4734
   38CHL1  H19C 2781   5.503   4.319   7.035 -0.2562 -0.9561  1.3465
   38CHL1    C1 2782   5.295   4.220   6.925 -0.2002  0.2940  1.1040
   38CHL1   H1A 2783   5.366   4.154   6.980  1.1667 -0.3399 -1.3454
   38CHL1   H1B 2784   5.191   4.182   6.932  0.1183 -0.8001  0.0547
   38CHL1    C2 2785   5.322   4.233   6.775  0.4005 -0.2736 -0.6806
   38CHL1   H2A 2786   5.320   4.134   6.726  1.0082 -0.9555  0.6586
   38CHL1   H2B 2787   5.426   4.268   6.754  0.1970  0.8891  0.2014
   38CHL1   C20 2788   5.279   4.313   7.715  0.1418  0.5868 -0.0767
   38CHL1   H20 2789   5.354   4.395   7.720 -0.6506  1.3698 -0.7465
   38CHL1   C21 2790   5.339   4.171   7.718 -0.0402 -0.9207  0.3089
   38CHL1  H21A 2791   5.335   4.137   7.824  1.8087 -1.4771  0.2243
   38CHL1  H21B 2792   5.447   4.176   7.692 -0.3454 -1.9365 -1.2080
   38CHL1  H21C 2793   5.304   4.098   7.643  0.2256 -1.0246  0.2842
   38CHL1   C22 2794   5.200   4.337   7.845 -0.1359 -0.8888  0.4558
   38CHL1  H22A 2795   5.129   4.422   7.838 -1.8182 -2.2634  0.3225
   38CHL1  H22B 2796   5.131   4.251   7.861 -0.2367 -0.7335  0.8684
   38CHL1   C23 2797   5.280   4.362   7.974  0.3474  0.2935  0.4963
   38CHL1  H23A 2798   5.214   4.393   8.058 -1.3655 -0.6610 -0.4453
   38CHL1  H23B 2799   5.339   4.272   8.003 -0.1127  0.5041  2.1065
   38CHL1   C24 2800   5.382   4.479   7.965 -0.4966 -0.4544 -0.0116
   38CHL1  H24A 2801   5.468   4.456   7.898  1.3743  0.8054  1.9019
   38CHL1  H24B 2802   5.329   4.567   7.921  1.0796  1.8193  2.4659
   38CHL1   C25 2803   5.441   4.516   8.105  0.6967  0.0313 -0.6316
   38CHL1   H25 2804   5.491   4.430   8.155 -1.4995 -0.7770  0.2780
   38CHL1   C26 2805   5.553   4.628   8.089 -0.4132  0.3085  0.5212
   38CHL1  H26A 2806   5.641   4.593   8.030  1.2304  0.4604  2.7995
   38CHL1  H26B 2807   5.511   4.721   8.046 -0.1058  0.1105 -0.2128
   38CHL1  H26C 2808   5.597   4.651   8.189 -3.0259 -1.1070  2.0647
   38CHL1   C27 2809   5.324   4.560   8.198  0.4962  0.0784  0.2001
   38CHL1  H27A 2810   5.244   4.609   8.139 -0.0362 -0.2524  0.6467
   38CHL1  H27B 2811   5.281   4.481   8.262 -1.2445  1.1118  0.3472
   38CHL1  H27C 2812   5.371   4.626   8.274 -2.2885  1.7652  0.5521
   39CHL1    C3 2813   4.613   3.733   6.897 -0.1900  0.1585 -0.5526
   39CHL1    H3 2814   4.710   3.781   6.923 -2.4681  5.4054 -1.0708
   39CHL1    O3 2815   4.607   3.728   6.754  0.6119  0.3074  0.4052
   39CHL1   H3' 2816   4.527   3.773   6.727  0.0323 -2.1000 -2.1470
   39CHL1    C4 2817   4.600   3.589   6.957  0.2521 -0.1803  0.4500
   39CHL1   H4A 2818   4.507   3.539   6.923  0.7661 -0.4352 -0.5973
   39CHL1   H4B 2819   4.682   3.523   6.922  0.6210  0.9691 -0.9131
   39CHL1    C5 2820   4.618   3.605   7.113  0.0104  0.6339  0.2357
   39CHL1    C6 2821   4.720   3.537   7.175  0.3734 -0.0332  0.8963
   39CHL1    H6 2822   4.785   3.472   7.116  1.1489  1.5251  0.0073
   39CHL1    C7 2823   4.738   3.549   7.318  0.6194  0.4091  0.3074
   39CHL1   H7A 2824   4.773   3.450   7.353  1.9995  0.7943  0.0548
   39CHL1   H7B 2825   4.817   3.626   7.331  1.5550 -0.2816 -1.0640
   39CHL1    C8 2826   4.618   3.595   7.391  0.2632  0.0835 -0.2628
   39CHL1    H8 2827   4.541   3.515   7.387  0.7167 -0.4037  0.6001
   39CHL1   C14 2828   4.651   3.614   7.538  0.0506 -0.2146  0.2272
   39CHL1   H14 2829   4.725   3.696   7.538 -1.4311  1.1380 -0.6804
   39CHL1   C15 2830   4.723   3.500   7.620 -0.2504  0.5135 -0.8950
   39CHL1  H15A 2831   4.672   3.403   7.599 -0.4672  0.2949  0.5415
   39CHL1  H15B 2832   4.833   3.492   7.607  0.3451  1.3449  2.8708
   39CHL1   C16 2833   4.690   3.542   7.764 -0.4957  0.0252  0.2150
   39CHL1  H16A 2834   4.634   3.464   7.821 -1.6640 -0.9717 -2.2487
   39CHL1  H16B 2835   4.787   3.564   7.814  1.2986 -2.7493 -1.9698
   39CHL1   C17 2836   4.609   3.671   7.764  0.3361  0.4531  0.0888
   39CHL1   H17 2837   4.681   3.753   7.746 -1.2068  2.0906  1.2248
   39CHL1   C13 2838   4.531   3.658   7.627 -0.3634  0.3587 -0.2616
   39CHL1   C18 2839   4.413   3.556   7.638  0.5721  0.1573 -0.3459
   39CHL1  H18A 2840   4.443   3.464   7.692  1.5948  0.8648  0.3255
   39CHL1  H18B 2841   4.340   3.603   7.707  0.7046 -1.1619  0.6957
   39CHL1  H18C 2842   4.360   3.523   7.546  2.0961  3.8958 -2.6664
   39CHL1   C12 2843   4.481   3.796   7.568 -0.8488 -0.8073  0.0116
   39CHL1  H12A 2844   4.398   3.838   7.629 -0.7069  0.2995 -0.5435
   39CHL1  H12B 2845   4.563   3.871   7.564 -0.0937 -1.7478 -4.4577
   39CHL1   C11 2846   4.440   3.775   7.420 -1.0036  0.0271  0.2998
   39CHL1  H11A 2847   4.362   3.695   7.424  1.1047 -2.0795  0.1642
   39CHL1  H11B 2848   4.404   3.871   7.378 -1.5064 -0.3115 -0.0533
   39CHL1    C9 2849   4.556   3.717   7.327  0.5280 -0.1895  0.4333
   39CHL1    H9 2850   4.629   3.800   7.333  0.9516 -0.4816 -0.5203
   39CHL1   C10 2851   4.523   3.701   7.181 -0.1192 -0.1742  0.0279
   39CHL1   C19 2852   4.379   3.640   7.172 -0.2092 -0.2378  0.6309
   39CHL1  H19A 2853   4.367   3.541   7.221  2.0924 -1.2874 -0.8292
   39CHL1  H19B 2854   4.306   3.716   7.207 -0.3915  1.4138 -3.0578
   39CHL1  H19C 2855   4.364   3.630   7.062  0.3717  2.9036  0.2193
   39CHL1    C1 2856   4.532   3.837   7.107 -0.2856 -0.3953 -0.1848
   39CHL1   H1A 2857   4.452   3.903   7.147  0.7898  0.0476  1.2836
   39CHL1   H1B 2858   4.625   3.891   7.136 -1.3615 -0.1710  3.0799
   39CHL1    C2 2859   4.520   3.832   6.956 -0.5391  0.0554  1.2093
   39CHL1   H2A 2860   4.564   3.927   6.918  1.2632 -1.6620 -1.1283
   39CHL1   H2B 2861   4.415   3.811   6.929 -0.3815  2.0160 -1.0716
   39CHL1   C20 2862   4.524   3.706   7.891  0.4071 -0.0106 -0.0507
   39CHL1   H20 2863   4.442   3.775   7.863  2.2010  2.1488 -0.2029
   39CHL1   C21 2864   4.613   3.783   7.990  0.1077  0.3237 -0.0379
   39CHL1  H21A 2865   4.690   3.716   8.035  0.1086  1.0316  1.0318
   39CHL1  H21B 2866   4.549   3.821   8.072  0.1844  0.2167  0.0705
   39CHL1  H21C 2867   4.676   3.867   7.951  0.2616 -1.2797 -3.3895
   39CHL1   C22 2868   4.461   3.586   7.971 -0.3316 -0.4323  0.4380
   39CHL1  H22A 2869   4.404   3.525   7.898  1.8304 -0.8763 -0.9144
   39CHL1  H22B 2870   4.552   3.531   8.004  0.5053 -0.8353 -2.4528
   39CHL1   C23 2871   4.369   3.619   8.090  0.0993  0.4908 -0.6404
   39CHL1  H23A 2872   4.433   3.678   8.159 -1.6277 -0.0619  1.4894
   39CHL1  H23B 2873   4.283   3.680   8.053 -1.6794 -1.8218 -0.4106
   39CHL1   C24 2874   4.318   3.490   8.163  0.1343  0.5238 -0.1574
   39CHL1  H24A 2875   4.265   3.423   8.091 -0.7837 -1.0187  1.8916
   39CHL1  H24B 2876   4.399   3.429   8.208  0.6029  1.9213  0.9206
   39CHL1   C25 2877   4.214   3.506   8.278  0.1298  0.4002 -0.8230
   39CHL1   H25 2878   4.129   3.563   8.236 -0.1095  0.2618 -0.5254
   39CHL1   C26 2879   4.180   3.369   8.332 -0.3361 -0.2648 -0.1813
   39CHL1  H26A 2880   4.265   3.321   8.387 -1.1348 -0.1120  1.2186
   39CHL1  H26B 2881   4.099   3.361   8.408 -0.7268 -2.4187 -0.7694
   39CHL1  H26C 2882   4.153   3.310   8.242  1.3300  0.9618 -1.5198
   39CHL1   C27 2883   4.263   3.590   8.400  0.2784 -0.9475 -0.0519
   39CHL1  H27A 2884   4.350   3.545   8.453  0.5883  0.0292  0.2842
   39CHL1  H27B 2885   4.298   3.691   8.369  1.5066 -1.0319  1.0163
   39CHL1  H27C 2886   4.176   3.605   8.468 -0.2330  2.5171 -1.3432
   40CHL1    C3 2887   0.393   2.114   7.004 -0.5950  0.5259 -0.9180
   40CHL1    H3 2888   0.353   2.015   7.033  0.5210 -0.2736 -2.0488
   40CHL1    O3 2889   0.379   2.121   6.863 -0.1702  0.2782 -0.2737
   40CHL1   H3' 2890   0.464   2.148   6.827 -0.8029 -1.5010 -3.2923
   40CHL1    C4 2891   0.334   2.233   7.074 -0.0546  0.1073 -0.3856
   40CHL1   H4A 2892   0.366   2.327   7.024  1.4563  0.6840  1.6003
   40CHL1   H4B 2893   0.225   2.237   7.053 -0.4862  0.3950  1.7568
   40CHL1    C5 2894   0.347   2.253   7.221  0.2955  0.2431 -0.3541
   40CHL1    C6 2895   0.244   2.255   7.307  0.5002  0.4826 -0.0160
   40CHL1    H6 2896   0.142   2.247   7.265  0.6547 -3.3646  0.2071
   40CHL1    C7 2897   0.251   2.265   7.459  0.3705 -0.2724  0.4668
   40CHL1   H7A 2898   0.183   2.346   7.493  1.7289  0.5858  1.1885
   40CHL1   H7B 2899   0.207   2.169   7.495 -0.4702 -0.8096 -1.9013
   40CHL1    C8 2900   0.393   2.288   7.506  0.1198  0.0830 -0.1762
   40CHL1    H8 2901   0.414   2.397   7.507  1.6362 -0.1768  3.4762
   40CHL1   C14 2902   0.402   2.240   7.650 -0.9265  0.6799  0.2682
   40CHL1   H14 2903   0.388   2.130   7.649  1.9075  0.2662  0.6367
   40CHL1   C15 2904   0.302   2.295   7.748  0.1467  0.2964  0.3717
   40CHL1  H15A 2905   0.290   2.404   7.733 -0.6345  0.0360 -0.9569
   40CHL1  H15B 2906   0.203   2.246   7.735  0.7156 -0.6529 -0.4784
   40CHL1   C16 2907   0.368   2.267   7.885  0.4758 -0.1108 -0.3373
   40CHL1  H16A 2908   0.380   2.362   7.942  0.2122 -1.1229  1.4344
   40CHL1  H16B 2909   0.309   2.199   7.950 -0.2091 -1.6288 -2.4827
   40CHL1   C17 2910   0.515   2.211   7.854  0.4024 -0.0835 -0.4701
   40CHL1   H17 2911   0.496   2.101   7.845 -0.1706 -0.0169 -0.0926
   40CHL1   C13 2912   0.540   2.255   7.708 -0.6835 -0.2048  0.7422
   40CHL1   C18 2913   0.581   2.404   7.717  0.5555  0.4249  0.2825
   40CHL1  H18A 2914   0.515   2.466   7.781  1.6926  1.3164  0.6148
   40CHL1  H18B 2915   0.684   2.425   7.752  0.2316 -0.5694  1.8843
   40CHL1  H18C 2916   0.575   2.446   7.615  1.4452 -0.6377 -0.2166
   40CHL1   C12 2917   0.644   2.181   7.626  0.4515 -0.3790 -0.3065
   40CHL1  H12A 2918   0.750   2.180   7.661  1.0751  2.9119 -1.8495
   40CHL1  H12B 2919   0.621   2.073   7.627  1.1353 -0.5314  2.1083
   40CHL1   C11 2920   0.646   2.230   7.479  0.2113 -0.0688  0.1871
   40CHL1  H11A 2921   0.692   2.330   7.467 -0.1873 -0.1060 -1.8029
   40CHL1  H11B 2922   0.712   2.159   7.425 -0.5259 -0.7734  0.2009
   40CHL1    C9 2923   0.499   2.214   7.416  0.3066  0.0541  0.7831
   40CHL1    H9 2924   0.469   2.109   7.434  0.3272  0.1857  1.5942
   40CHL1   C10 2925   0.493   2.243   7.268 -0.3297  0.2314  0.3888
   40CHL1   C19 2926   0.567   2.379   7.233  0.4455 -0.7095  0.3653
   40CHL1  H19A 2927   0.678   2.373   7.225  0.4102  0.2605 -0.9742
   40CHL1  H19B 2928   0.533   2.409   7.132  1.1408  3.2379  1.2057
   40CHL1  H19C 2929   0.538   2.464   7.298  1.0700 -0.7001  0.6390
   40CHL1    C1 2930   0.566   2.127   7.186 -0.0953 -1.0468  0.7357
   40CHL1   H1A 2931   0.675   2.136   7.201 -0.1829 -0.2269  0.8825
   40CHL1   H1B 2932   0.526   2.032   7.228  1.8237 -1.0825  2.5206
   40CHL1    C2 2933   0.546   2.118   7.039  0.6416  0.3458 -0.0883
   40CHL1   H2A 2934   0.579   2.016   7.009  4.0131  1.0091  1.0635
   40CHL1   H2B 2935   0.595   2.201   6.984 -1.5004  1.9274  0.3456
   40CHL1   C20 2936   0.624   2.231   7.958  0.4056 -1.2227  0.1517
   40CHL1   H20 2937   0.723   2.233   7.906 -0.5026  0.2787 -1.5807
   40CHL1   C21 2938   0.621   2.113   8.050 -0.4124  0.2111  0.2209
   40CHL1  H21A 2939   0.681   2.125   8.143 -1.4845 -1.2153  1.1239
   40CHL1  H21B 2940   0.659   2.021   8.001 -2.1247  0.3286 -1.3652
   40CHL1  H21C 2941   0.517   2.092   8.084 -0.0963  1.2088  1.8967
   40CHL1   C22 2942   0.614   2.360   8.052  0.1631 -0.5643  0.2504
   40CHL1  H22A 2943   0.555   2.443   8.008  1.5981  0.6671  0.6229
   40CHL1  H22B 2944   0.555   2.336   8.143  0.9739 -0.5565  0.7824
   40CHL1   C23 2945   0.764   2.394   8.089 -0.0135 -0.3345  0.0864
   40CHL1  H23A 2946   0.825   2.303   8.105 -1.3587 -1.6891 -2.1449
   40CHL1  H23B 2947   0.794   2.436   7.990  0.5372 -1.6658 -0.3132
   40CHL1   C24 2948   0.751   2.495   8.203  0.3795 -0.5591 -0.0172
   40CHL1  H24A 2949   0.674   2.571   8.181  1.0282 -0.2935 -1.4592
   40CHL1  H24B 2950   0.713   2.449   8.296  0.8462  2.4911  1.7378
   40CHL1   C25 2951   0.885   2.566   8.250  0.7878 -0.2173 -0.3065
   40CHL1   H25 2952   0.925   2.616   8.159 -1.8138  0.6371 -1.0260
   40CHL1   C26 2953   0.854   2.673   8.355  0.2061 -0.4485 -0.3569
   40CHL1  H26A 2954   0.783   2.752   8.324  0.6688 -0.0522 -0.4103
   40CHL1  H26B 2955   0.809   2.635   8.450 -1.1242 -1.3189 -1.3131
   40CHL1  H26C 2956   0.949   2.725   8.376 -0.4935  0.3575  0.8941
   40CHL1   C27 2957   0.986   2.466   8.299 -0.0924  0.5547  0.1613
   40CHL1  H27A 2958   1.000   2.386   8.224  0.1064  1.1072 -0.3952
   40CHL1  H27B 2959   1.085   2.512   8.319  1.7648 -3.2113 -0.0474
   40CHL1  H27C 2960   0.941   2.416   8.387 -3.1806 -1.7999 -2.6242
   41CHL1    C3 2961   1.437   2.007   6.936  0.0064 -0.0386  0.2615
   41CHL1    H3 2962   1.336   2.052   6.939 -0.5917 -1.3791  0.4506
   41CHL1    O3 2963   1.489   2.014   6.801 -0.2701  0.2999 -0.1173
   41CHL1   H3' 2964   1.428   1.967   6.744 -0.2452 -0.5102  0.5193
   41CHL1    C4 2965   1.524   2.086   7.031  0.1650 -0.2295 -0.0940
   41CHL1   H4A 2966   1.629   2.055   7.010  0.1711 -0.2487 -0.0344
   41CHL1   H4B 2967   1.529   2.195   7.012 -4.3052 -0.0010 -0.3846
   41CHL1    C5 2968   1.491   2.045   7.178  0.3308  0.1000  0.1748
   41CHL1    C6 2969   1.445   2.139   7.264 -1.0964 -0.4862 -0.2899
   41CHL1    H6 2970   1.434   2.243   7.229  4.4993  1.1187  2.0509
   41CHL1    C7 2971   1.411   2.117   7.410 -0.8819 -0.2383  0.3923
   41CHL1   H7A 2972   1.464   2.189   7.475 -0.1397 -0.5854  0.1804
   41CHL1   H7B 2973   1.302   2.114   7.434 -1.2381 -0.9100 -1.2166
   41CHL1    C8 2974   1.464   1.981   7.452  0.5014  0.5312 -0.1191
   41CHL1    H8 2975   1.573   1.994   7.469  0.4920 -0.0331  0.3936
   41CHL1   C14 2976   1.409   1.939   7.594  0.5078 -0.1572  0.8415
   41CHL1   H14 2977   1.301   1.916   7.580  0.4085  0.4374  0.5839
   41CHL1   C15 2978   1.434   2.045   7.706  0.5129 -0.0788 -0.3279
   41CHL1  H15A 2979   1.541   2.074   7.697  1.0279 -1.3518  1.3509
   41CHL1  H15B 2980   1.377   2.140   7.711  2.1262  0.8417  1.3466
   41CHL1   C16 2981   1.408   1.969   7.840  0.3721 -0.0256 -0.0863
   41CHL1  H16A 2982   1.499   1.971   7.903  0.2530 -0.1555  0.0903
   41CHL1  H16B 2983   1.310   1.999   7.883 -0.2370  1.7436 -2.5689
   41CHL1   C17 2984   1.408   1.819   7.797  0.0034 -0.2163  0.0618
   41CHL1   H17 2985   1.303   1.785   7.795  0.5261 -2.0496  1.8652
   41CHL1   C13 2986   1.464   1.807   7.656 -0.1812  0.3229 -0.0229
   41CHL1   C18 2987   1.616   1.818   7.665 -0.0781  0.0225 -0.1793
   41CHL1  H18A 2988   1.666   1.839   7.568  0.0588 -0.8498 -0.3044
   41CHL1  H18B 2989   1.641   1.901   7.734  0.6106  1.2163 -1.8496
   41CHL1  H18C 2990   1.660   1.723   7.703  2.9994  0.8211 -1.6408
   41CHL1   C12 2991   1.407   1.699   7.562  0.2013  1.1024  0.4670
   41CHL1  H12A 2992   1.441   1.604   7.608  1.4282  0.6402 -1.3101
   41CHL1  H12B 2993   1.297   1.686   7.565  0.0913  1.4597 -1.1749
   41CHL1   C11 2994   1.453   1.722   7.418  0.1625 -0.0338 -0.3499
   41CHL1  H11A 2995   1.559   1.691   7.408  0.0849 -0.2443 -0.5351
   41CHL1  H11B 2996   1.394   1.656   7.352 -0.0909 -0.8300  0.6616
   41CHL1    C9 2997   1.435   1.864   7.362  0.6851 -0.1451  0.3956
   41CHL1    H9 2998   1.325   1.870   7.350  0.5419  0.8361  1.9946
   41CHL1   C10 2999   1.496   1.894   7.221  0.5458 -1.2120  0.7272
   41CHL1   C19 3000   1.645   1.843   7.215  0.7896  0.0602 -0.1523
   41CHL1  H19A 3001   1.646   1.734   7.236 -2.6486  0.1461  0.8638
   41CHL1  H19B 3002   1.684   1.856   7.112 -0.1596  1.4836 -0.3576
   41CHL1  H19C 3003   1.711   1.891   7.290  0.4591  2.5130 -1.3519
   41CHL1    C1 3004   1.403   1.832   7.118  0.0831  1.0914 -1.0391
   41CHL1   H1A 3005   1.404   1.721   7.130  0.7706  1.2747  0.8264
   41CHL1   H1B 3006   1.297   1.859   7.137  0.3907  1.5976 -0.0067
   41CHL1    C2 3007   1.428   1.857   6.967 -0.4992 -0.0046 -0.2399
   41CHL1   H2A 3008   1.342   1.817   6.909 -0.8204  0.7267 -0.2714
   41CHL1   H2B 3009   1.523   1.802   6.951  0.2640  0.7989  1.3925
   41CHL1   C20 3010   1.473   1.721   7.903 -0.0594 -0.2927 -0.1062
   41CHL1   H20 3011   1.582   1.738   7.914 -0.0793 -1.4806  2.5050
   41CHL1   C21 3012   1.451   1.573   7.857  0.1558 -0.2664 -0.2529
   41CHL1  H21A 3013   1.347   1.554   7.824 -0.4183 -0.8377  1.8487
   41CHL1  H21B 3014   1.470   1.509   7.946 -0.2774  0.8846  0.6877
   41CHL1  H21C 3015   1.536   1.547   7.791  0.6393  0.7818 -0.0598
   41CHL1   C22 3016   1.405   1.758   8.042 -0.1630  0.3371 -0.6041
   41CHL1  H22A 3017   1.434   1.862   8.069  1.6195 -0.1397 -0.6048
   41CHL1  H22B 3018   1.295   1.748   8.039 -0.2587  1.6943 -1.9209
   41CHL1   C23 3019   1.461   1.675   8.164 -0.4897  0.4833 -0.3758
   41CHL1  H23A 3020   1.452   1.566   8.143  1.0076 -0.1387  2.0389
   41CHL1  H23B 3021   1.571   1.692   8.172 -0.0871 -2.0839 -0.0605
   41CHL1   C24 3022   1.386   1.697   8.294  0.3718 -0.1932  0.4045
   41CHL1  H24A 3023   1.368   1.807   8.294 -2.2590 -0.6041  0.2363
   41CHL1  H24B 3024   1.284   1.653   8.294 -1.2883  3.4446  0.7426
   41CHL1   C25 3025   1.439   1.655   8.435 -0.3776 -0.1641  0.1851
   41CHL1   H25 3026   1.541   1.691   8.462 -0.6361  0.0022  0.9419
   41CHL1   C26 3027   1.332   1.705   8.536 -0.0395  0.2910 -0.4711
   41CHL1  H26A 3028   1.321   1.814   8.518 -3.0369 -0.2351 -2.1588
   41CHL1  H26B 3029   1.232   1.666   8.506  0.1762  0.6319 -1.6457
   41CHL1  H26C 3030   1.355   1.671   8.639 -2.5225 -0.0120  0.0180
   41CHL1   C27 3031   1.449   1.501   8.442  0.2298 -0.0137  0.1945
   41CHL1  H27A 3032   1.461   1.479   8.550 -0.6949 -2.4971 -0.1601
   41CHL1  H27B 3033   1.358   1.445   8.411  1.0509 -0.6597 -1.0979
   41CHL1  H27C 3034   1.535   1.458   8.387  0.7832 -1.0075  1.8237
   42CHL1    C3 3035   2.426   6.039   7.008  0.1281  0.1863 -0.4938
   42CHL1    H3 3036   2.528   6.028   7.049 -0.8804  1.6734  2.6195
   42CHL1    O3 3037   2.429   6.056   6.861 -0.1392  0.3162 -0.1817
   42CHL1   H3' 3038   2.338   6.061   6.833  0.1028  0.8117 -0.8786
   42CHL1    C4 3039   2.348   5.909   7.050 -0.5341 -0.0499 -0.3117
   42CHL1   H4A 3040   2.241   5.910   7.020 -0.5584 -0.5683 -0.2507
   42CHL1   H4B 3041   2.395   5.817   7.009  2.0959  1.9053 -1.8291
   42CHL1    C5 3042   2.354   5.900   7.201 -0.0469  0.1162  0.4724
   42CHL1    C6 3043   2.404   5.794   7.258 -0.0609 -0.4460 -0.7999
   42CHL1    H6 3044   2.447   5.710   7.201 -2.9243 -1.9745 -0.7835
   42CHL1    C7 3045   2.405   5.770   7.408 -0.2707  0.6417 -0.9268
   42CHL1   H7A 3046   2.379   5.666   7.437 -2.0664  0.6816 -2.3239
   42CHL1   H7B 3047   2.510   5.788   7.440 -0.4787  1.9752 -0.9732
   42CHL1    C8 3048   2.327   5.873   7.491 -0.6686  0.8016 -0.4076
   42CHL1    H8 3049   2.222   5.837   7.484 -0.0722 -0.8055 -1.3891
   42CHL1   C14 3050   2.376   5.883   7.630  0.4757  0.2961 -0.0739
   42CHL1   H14 3051   2.479   5.925   7.627  0.1990  1.1166  1.6477
   42CHL1   C15 3052   2.385   5.751   7.712 -0.6433 -1.0503  0.4588
   42CHL1  H15A 3053   2.284   5.705   7.714 -1.2451  0.2329  2.8754
   42CHL1  H15B 3054   2.459   5.677   7.676  1.1279  0.6172  0.5887
   42CHL1   C16 3055   2.424   5.799   7.856  0.1961  0.0118  0.2758
   42CHL1  H16A 3056   2.386   5.733   7.937 -1.8417  2.1149  1.0812
   42CHL1  H16B 3057   2.533   5.781   7.865  0.3413  0.8328  0.1513
   42CHL1   C17 3058   2.381   5.949   7.860 -0.5528 -0.7011  1.0232
   42CHL1   H17 3059   2.472   6.009   7.842 -1.7985  1.5868  2.1679
   42CHL1   C13 3060   2.306   5.974   7.727  0.7085  0.5484  0.8489
   42CHL1   C18 3061   2.152   5.931   7.741 -0.4428  0.4961  0.0399
   42CHL1  H18A 3062   2.095   6.010   7.794 -2.9385 -0.8183 -0.6018
   42CHL1  H18B 3063   2.119   5.913   7.637  0.0405 -1.5869  0.2398
   42CHL1  H18C 3064   2.149   5.833   7.793 -1.1208  1.1640  1.3023
   42CHL1   C12 3065   2.312   6.120   7.680  0.0129 -0.1372  0.1938
   42CHL1  H12A 3066   2.243   6.186   7.737  0.6765 -0.0758  0.9278
   42CHL1  H12B 3067   2.417   6.155   7.685  0.3112 -1.0158  0.1124
   42CHL1   C11 3068   2.269   6.129   7.529  0.4858 -0.3651 -0.3540
   42CHL1  H11A 3069   2.162   6.103   7.519  0.5759 -1.5708  1.5709
   42CHL1  H11B 3070   2.277   6.235   7.497  0.7562  0.4987  2.4262
   42CHL1    C9 3071   2.338   6.021   7.432 -0.2917 -0.7433  0.8474
   42CHL1    H9 3072   2.447   6.043   7.430 -0.8698  2.3725 -0.4903
   42CHL1   C10 3073   2.303   6.024   7.282 -0.6932  0.2019 -0.0127
   42CHL1   C19 3074   2.145   6.042   7.264 -0.8060 -0.4557 -0.0627
   42CHL1  H19A 3075   2.100   5.959   7.322 -0.8908 -0.8664 -0.7039
   42CHL1  H19B 3076   2.109   6.141   7.299 -0.7294 -0.2200 -0.6393
   42CHL1  H19C 3077   2.114   6.033   7.157  0.2022 -3.9227 -0.1456
   42CHL1    C1 3078   2.371   6.152   7.226 -0.2434  0.8145 -0.2426
   42CHL1   H1A 3079   2.332   6.245   7.273  1.9986  1.2837  0.7873
   42CHL1   H1B 3080   2.479   6.157   7.254 -0.6017  0.2033  1.2826
   42CHL1    C2 3081   2.362   6.162   7.075  0.2702  0.1814 -0.2416
   42CHL1   H2A 3082   2.399   6.261   7.040 -0.3047  0.1717 -0.8838
   42CHL1   H2B 3083   2.257   6.151   7.040  0.7992 -1.6678 -1.2726
   42CHL1   C20 3084   2.328   5.999   8.000 -0.3769  0.2235 -0.1448
   42CHL1   H20 3085   2.274   6.091   7.970 -2.3276 -0.9740 -0.3768
   42CHL1   C21 3086   2.449   6.036   8.089  0.6708  0.6857 -0.1372
   42CHL1  H21A 3087   2.496   6.127   8.045  0.4308 -0.3420 -2.6077
   42CHL1  H21B 3088   2.520   5.952   8.106 -0.1179  0.3294  1.4061
   42CHL1  H21C 3089   2.409   6.062   8.189 -1.3205 -0.1602 -0.6932
   42CHL1   C22 3090   2.232   5.915   8.079  0.6740 -1.0442  0.2828
   42CHL1  H22A 3091   2.172   5.849   8.012 -1.1077 -0.7899  1.5884
   42CHL1  H22B 3092   2.289   5.855   8.152 -0.2002  0.7113  2.4392
   42CHL1   C23 3093   2.127   5.992   8.168  0.3365  0.2847 -0.2182
   42CHL1  H23A 3094   2.180   6.078   8.214  0.9331  1.1885 -2.5143
   42CHL1  H23B 3095   2.047   6.028   8.101 -2.0448  4.2701  4.4908
   42CHL1   C24 3096   2.059   5.908   8.268  0.4645 -0.1461 -0.2604
   42CHL1  H24A 3097   2.042   5.805   8.229 -0.5948 -0.5243  1.1551
   42CHL1  H24B 3098   2.133   5.880   8.347  0.5968 -1.2236 -0.7527
   42CHL1   C25 3099   1.938   5.977   8.324  0.6312  0.0670 -0.2796
   42CHL1   H25 3100   1.967   6.084   8.323  1.8970 -0.2707 -1.8805
   42CHL1   C26 3101   1.804   5.962   8.246  0.2101  0.5652 -0.7535
   42CHL1  H26A 3102   1.750   5.866   8.261 -0.7009  1.0684 -0.8196
   42CHL1  H26B 3103   1.737   6.037   8.292  1.3318  1.1183 -0.0023
   42CHL1  H26C 3104   1.829   5.991   8.141  0.1788 -0.4522 -1.0479
   42CHL1   C27 3105   1.928   5.957   8.476  0.1254  0.1802  0.0216
   42CHL1  H27A 3106   1.897   5.853   8.496  0.2262 -0.2194 -1.8106
   42CHL1  H27B 3107   1.858   6.029   8.522 -0.4953 -0.4272  0.0266
   42CHL1  H27C 3108   2.029   5.983   8.516  0.3030 -2.0711  1.1189
   43CHL1    C3 3109   2.439   3.422   6.948 -0.6446  0.3779 -0.5218
   43CHL1    H3 3110   2.372   3.500   6.989  1.0832  0.8611  1.4980
   43CHL1    O3 3111   2.484   3.454   6.818 -0.0158  0.2971  0.1720
   43CHL1   H3' 3112   2.574   3.419   6.813 -0.3806 -0.2736 -3.9891
   43CHL1    C4 3113   2.557   3.422   7.056  0.8822  0.3927 -0.6774
   43CHL1   H4A 3114   2.633   3.345   7.031  1.3501 -0.8219  4.0901
   43CHL1   H4B 3115   2.613   3.518   7.056 -1.5938  1.8802 -0.7678
   43CHL1    C5 3116   2.523   3.374   7.198 -0.0590 -0.8394  0.6783
   43CHL1    C6 3117   2.548   3.458   7.307  0.6634  0.0655 -0.2030
   43CHL1    H6 3118   2.609   3.549   7.299  0.7605 -0.0113 -0.3480
   43CHL1    C7 3119   2.517   3.426   7.452  0.1233 -0.8629  0.0934
   43CHL1   H7A 3120   2.601   3.439   7.523  1.8536 -1.6103 -1.7485
   43CHL1   H7B 3121   2.438   3.492   7.494  0.3791 -0.0613 -0.6692
   43CHL1    C8 3122   2.473   3.278   7.460  0.3290 -0.0421  0.1606
   43CHL1    H8 3123   2.572   3.231   7.445  1.5204  2.4523 -0.0280
   43CHL1   C14 3124   2.422   3.250   7.598  0.3889  0.0676  0.1168
   43CHL1   H14 3125   2.333   3.315   7.612  1.1211  0.5972  2.6509
   43CHL1   C15 3126   2.510   3.293   7.718 -0.0697 -0.4442 -0.4463
   43CHL1  H15A 3127   2.614   3.262   7.693 -0.2110 -1.4388  0.1885
   43CHL1  H15B 3128   2.517   3.403   7.738 -2.0582 -0.4637  0.5294
   43CHL1   C16 3129   2.458   3.211   7.836 -0.6990  0.0143 -0.3462
   43CHL1  H16A 3130   2.533   3.133   7.862 -0.1968 -0.4744 -3.1510
   43CHL1  H16B 3131   2.423   3.276   7.919  2.5615  2.7622 -1.0532
   43CHL1   C17 3132   2.335   3.134   7.771 -0.1779 -0.1541 -0.5702
   43CHL1   H17 3133   2.253   3.207   7.759 -1.1969 -1.3123 -0.7037
   43CHL1   C13 3134   2.378   3.110   7.619  0.3047  0.3936 -0.1952
   43CHL1   C18 3135   2.496   3.008   7.612 -0.1017 -0.5138 -0.4760
   43CHL1  H18A 3136   2.454   2.907   7.633 -2.2370  0.2517 -0.9584
   43CHL1  H18B 3137   2.550   3.004   7.515  0.6555  0.4689 -0.1035
   43CHL1  H18C 3138   2.568   3.026   7.695  0.4900  1.3604 -1.3565
   43CHL1   C12 3139   2.262   3.079   7.523  0.3309  0.2574  0.0713
   43CHL1  H12A 3140   2.236   2.971   7.521  0.3079  0.2817 -1.1172
   43CHL1  H12B 3141   2.168   3.128   7.557 -0.2702 -0.2422 -0.8723
   43CHL1   C11 3142   2.307   3.095   7.376 -0.3201 -0.0173  0.4597
   43CHL1  H11A 3143   2.379   3.013   7.353 -1.6223 -0.4664 -2.1523
   43CHL1  H11B 3144   2.214   3.085   7.317 -0.4444 -0.5514  0.7409
   43CHL1    C9 3145   2.372   3.239   7.351  0.2052 -0.0883 -0.0010
   43CHL1    H9 3146   2.291   3.315   7.349 -0.5577 -0.8179  1.8859
   43CHL1   C10 3147   2.439   3.249   7.210  0.3460 -0.1234 -0.1589
   43CHL1   C19 3148   2.520   3.124   7.173  0.2270 -0.7059  0.4264
   43CHL1  H19A 3149   2.595   3.110   7.253 -0.6712 -0.3544  1.3521
   43CHL1  H19B 3150   2.463   3.030   7.160 -1.0268  0.1321 -0.2530
   43CHL1  H19C 3151   2.589   3.142   7.088 -1.5954  2.0623 -0.5623
   43CHL1    C1 3152   2.329   3.257   7.102 -0.1187  0.1876 -0.8423
   43CHL1   H1A 3153   2.278   3.159   7.110 -0.8508  0.4737 -1.9430
   43CHL1   H1B 3154   2.261   3.343   7.121 -1.2348 -1.2231  1.8189
   43CHL1    C2 3155   2.379   3.282   6.958 -0.4768  1.1140  0.6571
   43CHL1   H2A 3156   2.307   3.262   6.875 -1.1311  2.7274  0.8142
   43CHL1   H2B 3157   2.466   3.215   6.940 -0.4236  1.2794  0.2876
   43CHL1   C20 3158   2.286   3.015   7.858 -0.3520 -1.0404 -0.9104
   43CHL1   H20 3159   2.357   2.930   7.852 -0.6012 -1.4339  1.2455
   43CHL1   C21 3160   2.151   2.958   7.808 -0.0876  0.2532 -1.1025
   43CHL1  H21A 3161   2.182   2.907   7.714 -0.6244  1.1594 -1.7748
   43CHL1  H21B 3162   2.073   3.032   7.783 -0.4258 -0.3315 -1.7972
   43CHL1  H21C 3163   2.106   2.898   7.890  0.0742  0.5634 -0.7881
   43CHL1   C22 3164   2.268   3.047   8.003  0.3820 -0.1434 -0.8820
   43CHL1  H22A 3165   2.240   2.950   8.050 -0.8418 -0.1641 -1.6146
   43CHL1  H22B 3166   2.364   3.076   8.051  0.0242  1.0617 -0.8706
   43CHL1   C23 3167   2.158   3.152   8.033 -0.2661 -0.1743 -0.1063
   43CHL1  H23A 3168   2.200   3.248   7.994 -0.4593  0.2643  0.7478
   43CHL1  H23B 3169   2.063   3.116   7.989 -1.0607  1.8658 -0.1382
   43CHL1   C24 3170   2.148   3.201   8.181 -0.6747 -0.0134  0.2306
   43CHL1  H24A 3171   2.247   3.235   8.218 -1.3329  1.8022  0.3583
   43CHL1  H24B 3172   2.096   3.298   8.198 -1.9218 -0.8809  1.4508
   43CHL1   C25 3173   2.107   3.088   8.278 -0.5331 -0.6722  0.3503
   43CHL1   H25 3174   2.163   2.994   8.260  1.4430  0.6996 -0.8224
   43CHL1   C26 3175   2.139   3.139   8.423 -0.2645  0.6238  0.1496
   43CHL1  H26A 3176   2.248   3.154   8.432  0.0380 -1.1643 -0.4200
   43CHL1  H26B 3177   2.084   3.232   8.450  0.5121  0.8894  0.8285
   43CHL1  H26C 3178   2.105   3.065   8.498  0.5212  1.0576  0.9371
   43CHL1   C27 3179   1.955   3.065   8.270  0.6601 -0.2053 -0.2259
   43CHL1  H27A 3180   1.908   3.165   8.257 -1.2662 -0.7739  2.1225
   43CHL1  H27B 3181   1.937   2.997   8.184 -2.1503 -1.2558  1.1439
   43CHL1  H27C 3182   1.922   3.006   8.358 -2.6166  0.1114 -1.1835
   44CHL1    C3 3183   2.474   1.869   6.717 -0.4083 -0.1845  0.5952
   44CHL1    H3 3184   2.363   1.877   6.717 -0.5366 -1.6496 -1.4858
   44CHL1    O3 3185   2.504   1.814   6.587  0.1707  0.2922  0.3965
   44CHL1   H3' 3186   2.597   1.789   6.587  0.3175  0.7279  2.1655
   44CHL1    C4 3187   2.537   2.005   6.742 -0.3395 -0.6321  0.2593
   44CHL1   H4A 3188   2.647   2.001   6.727 -0.0362 -0.7243  2.4086
   44CHL1   H4B 3189   2.496   2.072   6.663  0.9697  0.3722  0.4226
   44CHL1    C5 3190   2.514   2.057   6.887  0.3044  0.6283  0.6560
   44CHL1    C6 3191   2.464   2.179   6.909 -0.7244  0.1647  0.1382
   44CHL1    H6 3192   2.463   2.258   6.833  2.4597 -0.7211 -0.9441
   44CHL1    C7 3193   2.421   2.227   7.047  0.2770 -0.1541  0.1312
   44CHL1   H7A 3194   2.465   2.329   7.057  0.7378 -0.3405 -0.0225
   44CHL1   H7B 3195   2.310   2.233   7.049  0.3464  1.0253  2.9934
   44CHL1    C8 3196   2.459   2.140   7.166  0.3135 -0.0594  1.1739
   44CHL1    H8 3197   2.565   2.167   7.185  0.6750  0.4555 -1.3103
   44CHL1   C14 3198   2.383   2.178   7.284  0.9569  0.7104 -0.2252
   44CHL1   H14 3199   2.277   2.154   7.261  0.4585  2.2720  0.3801
   44CHL1   C15 3200   2.376   2.321   7.330 -0.2743 -0.1214  0.2474
   44CHL1  H15A 3201   2.468   2.382   7.321  0.0426 -0.0429  3.3934
   44CHL1  H15B 3202   2.291   2.369   7.277  0.6770  0.6964 -0.5473
   44CHL1   C16 3203   2.347   2.315   7.486  0.2939  0.6552 -0.4051
   44CHL1  H16A 3204   2.421   2.376   7.543 -0.2497  0.0505  0.9736
   44CHL1  H16B 3205   2.251   2.363   7.512 -1.2150 -0.8558 -2.9590
   44CHL1   C17 3206   2.347   2.166   7.528  0.3733  0.1125 -0.3406
   44CHL1   H17 3207   2.243   2.126   7.519 -0.4301  1.7907  1.0876
   44CHL1   C13 3208   2.414   2.101   7.411  0.1451 -0.4603  0.7119
   44CHL1   C18 3209   2.566   2.124   7.443 -0.6148 -0.1862  0.0673
   44CHL1  H18A 3210   2.634   2.069   7.374  0.0534  0.5067  0.1602
   44CHL1  H18B 3211   2.584   2.233   7.435 -0.5820 -0.1173  1.0567
   44CHL1  H18C 3212   2.588   2.083   7.544 -0.8735 -3.1082 -1.0141
   44CHL1   C12 3213   2.376   1.953   7.379  0.6887  0.3036 -0.3194
   44CHL1  H12A 3214   2.396   1.884   7.463  1.9680  1.5008  0.3764
   44CHL1  H12B 3215   2.266   1.941   7.364  0.8817 -1.2669 -0.5820
   44CHL1   C11 3216   2.446   1.897   7.252  0.6076 -0.6165  0.4418
   44CHL1  H11A 3217   2.550   1.890   7.291  0.2030 -3.5981  1.1122
   44CHL1  H11B 3218   2.404   1.795   7.238 -0.8892  0.1290 -0.6242
   44CHL1    C9 3219   2.438   1.993   7.127 -0.5854  0.4126  0.3150
   44CHL1    H9 3220   2.335   1.982   7.086  0.4884 -1.6093 -1.9917
   44CHL1   C10 3221   2.519   1.952   7.004  0.6945 -0.3985 -0.7431
   44CHL1   C19 3222   2.664   1.941   7.056  0.1428 -0.5584  0.1418
   44CHL1  H19A 3223   2.696   2.030   7.115  0.9389 -0.7505  0.0122
   44CHL1  H19B 3224   2.677   1.851   7.120 -1.9176 -2.2990 -1.8205
   44CHL1  H19C 3225   2.735   1.925   6.972  0.3839 -0.5896  0.3476
   44CHL1    C1 3226   2.459   1.811   6.958 -0.4323 -0.5881 -0.2247
   44CHL1   H1A 3227   2.492   1.742   7.038  0.0082  0.3385  0.4050
   44CHL1   H1B 3228   2.348   1.807   6.953 -0.3886 -0.0913 -2.0054
   44CHL1    C2 3229   2.506   1.764   6.827  0.4164 -0.2198  0.5329
   44CHL1   H2A 3230   2.463   1.670   6.786 -2.1700  1.1961 -0.0672
   44CHL1   H2B 3231   2.617   1.752   6.827  0.4784 -0.1307 -2.4202
   44CHL1   C20 3232   2.386   2.152   7.676 -0.2173  0.4607  0.3343
   44CHL1   H20 3233   2.489   2.185   7.699  0.0865 -0.3245  0.1149
   44CHL1   C21 3234   2.375   2.004   7.709 -0.0614 -0.6776 -0.5235
   44CHL1  H21A 3235   2.280   1.952   7.684  0.9591 -2.2760 -1.0984
   44CHL1  H21B 3236   2.404   1.970   7.811 -0.1991  2.1662  0.5175
   44CHL1  H21C 3237   2.454   1.949   7.654  2.9106  0.9835  1.9193
   44CHL1   C22 3238   2.288   2.232   7.766 -0.6106 -0.3788  0.7823
   44CHL1  H22A 3239   2.321   2.338   7.758 -1.5686 -0.1781 -0.8116
   44CHL1  H22B 3240   2.181   2.226   7.736 -0.0834 -0.4235 -1.1132
   44CHL1   C23 3241   2.291   2.202   7.925 -0.0755  0.5865 -0.3557
   44CHL1  H23A 3242   2.225   2.278   7.971 -1.9802 -1.9906  1.3025
   44CHL1  H23B 3243   2.240   2.104   7.938  0.1910  0.5881  0.7545
   44CHL1   C24 3244   2.431   2.198   7.992 -0.2141  0.0709 -0.1007
   44CHL1  H24A 3245   2.508   2.144   7.932 -1.0793 -1.0217 -0.2341
   44CHL1  H24B 3246   2.469   2.302   7.989 -0.4389  0.1245 -1.4590
   44CHL1   C25 3247   2.423   2.151   8.141 -0.3255 -0.3087  0.5586
   44CHL1   H25 3248   2.356   2.063   8.144  0.5621 -0.9904  0.4422
   44CHL1   C26 3249   2.563   2.106   8.186  0.4065  0.1133 -0.4133
   44CHL1  H26A 3250   2.545   2.051   8.281 -1.3878  1.4483  0.0496
   44CHL1  H26B 3251   2.609   2.041   8.109 -0.4333  0.6528 -1.3801
   44CHL1  H26C 3252   2.625   2.195   8.209  2.6889 -1.6238  0.4225
   44CHL1   C27 3253   2.368   2.250   8.243 -0.1832 -0.5736 -0.5365
   44CHL1  H27A 3254   2.271   2.287   8.205  0.0139 -0.4479 -0.9159
   44CHL1  H27B 3255   2.365   2.201   8.343 -0.7323  0.0542 -0.2460
   44CHL1  H27C 3256   2.436   2.337   8.254 -1.7475  0.7096 -0.9236
   45CHL1    C3 3257   3.824   0.098   6.741  0.3223 -0.0119 -0.2817
   45CHL1    H3 3258   3.752   0.014   6.729  2.4071 -1.9133  0.2043
   45CHL1    O3 3259   3.854   0.143   6.611  0.6003 -0.3445 -0.4081
   45CHL1   H3' 3260   3.932   0.198   6.620  0.8299 -1.1225  3.1845
   45CHL1    C4 3261   3.751   0.207   6.822  0.3139 -0.3017  0.3498
   45CHL1   H4A 3262   3.816   0.294   6.803  0.0890 -0.2987 -0.4217
   45CHL1   H4B 3263   3.651   0.222   6.776  0.9427  0.1590 -0.8577
   45CHL1    C5 3264   3.737   0.184   6.975 -0.0643 -0.6057  0.1753
   45CHL1    C6 3265   3.620   0.195   7.039 -0.1377 -0.3297  0.1858
   45CHL1    H6 3266   3.538   0.246   6.987 -1.5856 -2.8013 -0.0240
   45CHL1    C7 3267   3.594   0.177   7.188  0.5787  0.5771  0.4944
   45CHL1   H7A 3268   3.539   0.266   7.224  0.8096  0.1090  2.0692
   45CHL1   H7B 3269   3.532   0.085   7.196  1.4522 -0.5112 -3.8912
   45CHL1    C8 3270   3.722   0.161   7.267  0.0299  0.2558 -0.7725
   45CHL1    H8 3271   3.782   0.254   7.273 -0.4741  0.5422 -0.2406
   45CHL1   C14 3272   3.696   0.119   7.410  0.6379 -0.0816  0.0657
   45CHL1   H14 3273   3.643   0.022   7.400  1.6750 -0.7732  1.0537
   45CHL1   C15 3274   3.613   0.224   7.488  0.8370  0.3486  0.0234
   45CHL1  H15A 3275   3.649   0.323   7.453  0.2658 -0.4579 -2.9997
   45CHL1  H15B 3276   3.503   0.221   7.472  1.0193  2.1045 -1.9129
   45CHL1   C16 3277   3.646   0.194   7.637 -0.4184  0.0103 -0.7527
   45CHL1  H16A 3278   3.677   0.291   7.683  0.6786 -1.2066  1.1556
   45CHL1  H16B 3279   3.563   0.163   7.704 -0.4105  3.0980  0.8060
   45CHL1   C17 3280   3.760   0.095   7.636 -0.5262  0.0728 -0.5150
   45CHL1   H17 3281   3.714  -0.006   7.650  3.7102 -1.9335 -0.4433
   45CHL1   C13 3282   3.820   0.101   7.494  0.2556 -0.5060  0.4909
   45CHL1   C18 3283   3.914   0.217   7.489  0.7143  0.1142 -0.4313
   45CHL1  H18A 3284   3.868   0.314   7.519 -1.5548 -1.0933  0.1516
   45CHL1  H18B 3285   4.010   0.200   7.541  1.2933  2.3303 -0.7061
   45CHL1  H18C 3286   3.950   0.237   7.386 -0.2420 -0.8236 -0.9627
   45CHL1   C12 3287   3.887  -0.026   7.428  0.2295 -0.8622 -0.2298
   45CHL1  H12A 3288   3.984  -0.058   7.473  0.4308  1.2949  0.9583
   45CHL1  H12B 3289   3.822  -0.116   7.435 -0.7635 -0.0443  1.3871
   45CHL1   C11 3290   3.928  -0.005   7.278  0.5079 -0.2831  0.5345
   45CHL1  H11A 3291   4.016   0.063   7.286 -1.9153  2.7968  2.1918
   45CHL1  H11B 3292   3.959  -0.100   7.230 -1.0613  0.6879 -2.5149
   45CHL1    C9 3293   3.819   0.065   7.194  0.4572 -0.1986  0.7791
   45CHL1    H9 3294   3.748  -0.019   7.176  0.9678 -0.5533  0.4286
   45CHL1   C10 3295   3.860   0.117   7.051 -0.0801 -0.4427  0.4232
   45CHL1   C19 3296   3.967   0.228   7.078  0.6476  0.1979 -0.4668
   45CHL1  H19A 3297   3.968   0.283   7.174  1.6075  1.5240 -1.2179
   45CHL1  H19B 3298   4.064   0.175   7.072  1.5308  1.5509  1.6699
   45CHL1  H19C 3299   3.966   0.296   6.990 -0.4605  0.3033 -0.3842
   45CHL1    C1 3300   3.911  -0.005   6.964  0.1730  0.1766 -0.1540
   45CHL1   H1A 3301   4.014  -0.030   6.996 -0.6768 -1.3496  1.4111
   45CHL1   H1B 3302   3.852  -0.099   6.969  1.3395 -0.4987  1.0988
   45CHL1    C2 3303   3.941   0.032   6.814  0.5486  0.2442  0.2854
   45CHL1   H2A 3304   3.965  -0.062   6.759 -2.5835 -1.4062  1.6349
   45CHL1   H2B 3305   4.030   0.099   6.813  1.2361 -0.6633 -1.5442
   45CHL1   C20 3306   3.856   0.111   7.755 -0.0561  0.5697  0.2030
   45CHL1   H20 3307   3.917   0.200   7.730 -2.0358  1.8992 -0.0420
   45CHL1   C21 3308   3.959  -0.006   7.763 -0.9754 -0.0880  0.5821
   45CHL1  H21A 3309   4.016  -0.029   7.671 -0.1552 -1.9240  1.5160
   45CHL1  H21B 3310   3.908  -0.100   7.794  0.1138 -1.3179 -1.2324
   45CHL1  H21C 3311   4.041   0.008   7.837  2.1553  2.1915 -3.1364
   45CHL1   C22 3312   3.791   0.147   7.883 -0.3386 -0.0571 -0.0421
   45CHL1  H22A 3313   3.877   0.161   7.952  0.6275  2.6838 -1.7459
   45CHL1  H22B 3314   3.746   0.248   7.885 -0.4851 -0.0378 -2.8979
   45CHL1   C23 3315   3.689   0.044   7.932  0.4152  0.5856  0.1958
   45CHL1  H23A 3316   3.642  -0.007   7.846 -0.6606  0.3492  0.9215
   45CHL1  H23B 3317   3.752  -0.033   7.982 -0.3216  0.0269  0.2628
   45CHL1   C24 3318   3.589   0.089   8.041 -0.6251  0.5497  0.8583
   45CHL1  H24A 3319   3.551  -0.003   8.090  0.1170  0.7549  1.8397
   45CHL1  H24B 3320   3.650   0.139   8.119  0.8909  0.5773 -0.3194
   45CHL1   C25 3321   3.475   0.185   7.996  0.4450  0.2052 -0.4378
   45CHL1   H25 3322   3.513   0.253   7.918 -2.0104  0.7056 -1.2141
   45CHL1   C26 3323   3.359   0.116   7.920  0.8310  0.4007  0.9033
   45CHL1  H26A 3324   3.396   0.046   7.842 -0.1486 -1.0697  1.7510
   45CHL1  H26B 3325   3.299   0.066   7.998  0.2012  0.6390  0.5777
   45CHL1  H26C 3326   3.296   0.188   7.863 -1.7645 -2.6994 -0.2953
   45CHL1   C27 3327   3.409   0.260   8.111  0.5876  0.1208 -0.2334
   45CHL1  H27A 3328   3.481   0.333   8.153  3.5387 -3.4242  1.0998
   45CHL1  H27B 3329   3.309   0.304   8.086  0.3628 -1.3087 -1.9636
   45CHL1  H27C 3330   3.375   0.199   8.197  0.2637  0.9908  0.2634
   46CHL1    C3 3331   3.418   1.571   7.069 -0.0419 -0.4935  0.0930
   46CHL1    H3 3332   3.307   1.561   7.076  0.1118 -0.4037  3.3096
   46CHL1    O3 3333   3.469   1.598   6.933  0.4800  0.6597 -0.8865
   46CHL1   H3' 3334   3.557   1.561   6.944  0.2396  0.7222  1.6136
   46CHL1    C4 3335   3.461   1.688   7.156  0.4673  0.3680 -0.3284
   46CHL1   H4A 3336   3.564   1.721   7.131  0.3291 -1.3260 -3.4093
   46CHL1   H4B 3337   3.403   1.778   7.126 -2.5073 -1.5212 -0.5145
   46CHL1    C5 3338   3.440   1.667   7.305 -0.4078  0.1394  0.1036
   46CHL1    C6 3339   3.360   1.748   7.376  0.3097 -0.3207 -0.2364
   46CHL1    H6 3340   3.322   1.838   7.325 -1.6038 -0.6592  0.5627
   46CHL1    C7 3341   3.341   1.739   7.523 -0.2507  0.8115 -0.1556
   46CHL1   H7A 3342   3.344   1.840   7.571 -0.5913  0.4590  0.6186
   46CHL1   H7B 3343   3.234   1.711   7.527 -0.2501  0.6725 -1.1059
   46CHL1    C8 3344   3.432   1.630   7.594  0.1747 -0.4648 -0.4932
   46CHL1    H8 3345   3.537   1.662   7.611 -0.3340  0.1934  1.6175
   46CHL1   C14 3346   3.384   1.588   7.736  0.8606  0.2540  0.0967
   46CHL1   H14 3347   3.281   1.545   7.728  0.5092  0.4560  3.0078
   46CHL1   C15 3348   3.366   1.708   7.841  0.1402  0.4770 -0.5392
   46CHL1  H15A 3349   3.452   1.777   7.834  1.5654 -1.3703 -1.6008
   46CHL1  H15B 3350   3.274   1.768   7.824 -0.6249 -0.2515  0.9357
   46CHL1   C16 3351   3.367   1.643   7.977  0.0340  0.0168  1.2984
   46CHL1  H16A 3352   3.445   1.692   8.039 -1.3956  2.4540  1.2215
   46CHL1  H16B 3353   3.273   1.655   8.035 -0.4116 -0.6640  0.7402
   46CHL1   C17 3354   3.384   1.491   7.939 -0.2701  0.5099 -0.2839
   46CHL1   H17 3355   3.285   1.447   7.914  0.4996 -1.4185 -0.0325
   46CHL1   C13 3356   3.458   1.485   7.802 -1.1307 -0.4041  0.3952
   46CHL1   C18 3357   3.603   1.536   7.832  0.1365  0.5489 -0.0177
   46CHL1  H18A 3358   3.667   1.566   7.746 -0.8453 -0.5949 -1.1625
   46CHL1  H18B 3359   3.608   1.616   7.909 -1.3126 -1.9488  2.7875
   46CHL1  H18C 3360   3.654   1.444   7.868  1.0658  1.1938  0.3243
   46CHL1   C12 3361   3.466   1.362   7.710  0.9180 -0.0188 -0.7105
   46CHL1  H12A 3362   3.520   1.278   7.758 -0.6986 -0.2954  0.7055
   46CHL1  H12B 3363   3.358   1.334   7.704  0.1372  2.5132  0.4018
   46CHL1   C11 3364   3.523   1.391   7.575  0.4156 -0.2702 -0.4080
   46CHL1  H11A 3365   3.630   1.421   7.570  0.0679  0.9338 -0.8145
   46CHL1  H11B 3366   3.507   1.305   7.507 -1.3886  0.7863 -1.3681
   46CHL1    C9 3367   3.448   1.511   7.510 -0.2955  0.3195 -0.0164
   46CHL1    H9 3368   3.343   1.476   7.506 -0.4486  0.5522  1.5757
   46CHL1   C10 3369   3.495   1.537   7.359  0.1829 -0.4849  0.1032
   46CHL1   C19 3370   3.648   1.556   7.353 -0.1793 -0.0611  0.8606
   46CHL1  H19A 3371   3.695   1.458   7.378  0.2877 -0.3201 -0.9652
   46CHL1  H19B 3372   3.675   1.585   7.249 -1.8120  2.5701  1.1391
   46CHL1  H19C 3373   3.688   1.630   7.425  3.0167 -2.2455  1.4475
   46CHL1    C1 3374   3.443   1.423   7.267  0.3390 -0.4908  0.1102
   46CHL1   H1A 3375   3.497   1.329   7.293  1.7616 -0.0353 -1.1545
   46CHL1   H1B 3376   3.334   1.416   7.291 -0.0943  0.2228 -1.5856
   46CHL1    C2 3377   3.469   1.438   7.118  0.4883 -0.6088 -0.4742
   46CHL1   H2A 3378   3.412   1.365   7.057 -1.6389 -0.0042  0.7092
   46CHL1   H2B 3379   3.575   1.413   7.097  0.6304 -0.8330  0.4799
   46CHL1   C20 3380   3.441   1.408   8.056  0.2289 -0.4156  0.1762
   46CHL1   H20 3381   3.550   1.417   8.037 -0.1937 -1.2016 -2.8613
   46CHL1   C21 3382   3.402   1.258   8.033 -0.1778  0.4182  0.0136
   46CHL1  H21A 3383   3.466   1.203   7.960  1.1130  1.0722  0.6356
   46CHL1  H21B 3384   3.294   1.244   8.008 -0.5256 -0.3332  1.8740
   46CHL1  H21C 3385   3.414   1.197   8.125  1.7289 -0.3398 -0.7048
   46CHL1   C22 3386   3.400   1.452   8.203 -0.3237  0.6945  0.0850
   46CHL1  H22A 3387   3.461   1.380   8.261 -0.5799  1.1810  0.9705
   46CHL1  H22B 3388   3.441   1.551   8.236 -0.3333  0.9558 -0.6884
   46CHL1   C23 3389   3.256   1.431   8.250 -0.7157 -0.0088 -0.2215
   46CHL1  H23A 3390   3.234   1.517   8.316  1.0727  1.0843 -1.0008
   46CHL1  H23B 3391   3.191   1.452   8.163 -0.2136  0.1848 -0.5544
   46CHL1   C24 3392   3.227   1.297   8.325  0.8822  0.8075 -0.1517
   46CHL1  H24A 3393   3.243   1.208   8.260  2.4208  1.2151 -0.3305
   46CHL1  H24B 3394   3.292   1.290   8.414  1.2287 -1.1604 -0.5306
   46CHL1   C25 3395   3.087   1.282   8.392  0.1908 -0.2552  0.5949
   46CHL1   H25 3396   3.064   1.368   8.460 -1.8298 -0.2310 -0.0711
   46CHL1   C26 3397   2.981   1.305   8.281  0.2554 -0.4962  0.9630
   46CHL1  H26A 3398   2.877   1.284   8.314  0.0140  0.1278  0.6076
   46CHL1  H26B 3399   2.986   1.410   8.247  2.4155 -0.9708 -0.2861
   46CHL1  H26C 3400   3.001   1.247   8.188  0.0299 -0.2869  0.7843
   46CHL1   C27 3401   3.066   1.151   8.462 -0.1236 -0.7108 -0.1391
   46CHL1  H27A 3402   3.138   1.146   8.546  0.1435  1.8015 -0.1955
   46CHL1  H27B 3403   2.963   1.145   8.503  0.1940 -0.8215  0.6436
   46CHL1  H27C 3404   3.091   1.062   8.399  0.7922 -0.6387  0.1221
   47CHL1    C3 3405   2.707   1.189   6.625 -0.0707  0.8909 -0.1112
   47CHL1    H3 3406   2.809   1.163   6.660 -0.2820  0.8174  0.4573
   47CHL1    O3 3407   2.683   1.149   6.492 -0.3725 -0.2568 -0.3217
   47CHL1   H3' 3408   2.607   1.204   6.469 -0.5867 -0.1559  0.6260
   47CHL1    C4 3409   2.608   1.124   6.725 -0.0207  0.4292  0.1360
   47CHL1   H4A 3410   2.506   1.146   6.690  0.2281  0.7724 -0.3734
   47CHL1   H4B 3411   2.632   1.015   6.723  1.6347  0.7779 -0.3925
   47CHL1    C5 3412   2.614   1.162   6.873 -0.2664  0.7408 -0.1032
   47CHL1    C6 3413   2.621   1.073   6.970  0.1158 -0.0136 -0.5968
   47CHL1    H6 3414   2.616   0.965   6.953 -0.3374 -0.3324  1.4454
   47CHL1    C7 3415   2.638   1.111   7.113  0.1227  0.2456 -0.1387
   47CHL1   H7A 3416   2.586   1.029   7.168 -0.2426 -0.7477 -1.9233
   47CHL1   H7B 3417   2.745   1.099   7.137  0.2095  1.9960  0.4277
   47CHL1    C8 3418   2.602   1.256   7.146  0.1695 -0.2251  0.4171
   47CHL1    H8 3419   2.491   1.261   7.141  0.2468  0.8767 -0.4294
   47CHL1   C14 3420   2.640   1.293   7.285 -0.3041 -0.0643  0.4905
   47CHL1   H14 3421   2.750   1.278   7.288  0.2072  2.9643 -0.6306
   47CHL1   C15 3422   2.593   1.198   7.393  0.1831 -0.6638 -0.6559
   47CHL1  H15A 3423   2.493   1.152   7.382 -0.7742  1.4516 -0.9116
   47CHL1  H15B 3424   2.652   1.107   7.418  0.1239 -0.3976  0.4711
   47CHL1   C16 3425   2.604   1.287   7.515  0.1442  0.3931 -0.5990
   47CHL1  H16A 3426   2.502   1.309   7.551  0.2190  1.1194 -0.8230
   47CHL1  H16B 3427   2.659   1.240   7.600 -0.0724 -0.5600 -0.9868
   47CHL1   C17 3428   2.660   1.425   7.476 -0.1262  0.4154 -0.5082
   47CHL1   H17 3429   2.771   1.422   7.473  0.0057  2.1643  1.7985
   47CHL1   C13 3430   2.610   1.435   7.328  0.4888  0.1167  0.9448
   47CHL1   C18 3431   2.451   1.461   7.322  0.4063  0.6546 -0.4818
   47CHL1  H18A 3432   2.408   1.457   7.219  0.3656  1.2281 -0.4866
   47CHL1  H18B 3433   2.398   1.383   7.381 -1.3204  2.2831  0.1784
   47CHL1  H18C 3434   2.417   1.560   7.360  0.3352 -0.0868  1.4494
   47CHL1   C12 3435   2.682   1.526   7.226 -0.2155 -0.2019  0.3799
   47CHL1  H12A 3436   2.640   1.628   7.238 -0.2773 -0.1933  0.1063
   47CHL1  H12B 3437   2.791   1.543   7.242 -0.3600 -0.9982  2.2397
   47CHL1   C11 3438   2.653   1.496   7.075  0.8107  0.2551  0.1902
   47CHL1  H11A 3439   2.552   1.539   7.060  0.6110 -0.4498 -0.5219
   47CHL1  H11B 3440   2.723   1.561   7.020 -0.7511 -1.4282 -3.9501
   47CHL1    C9 3441   2.663   1.346   7.040  0.2081 -0.1471 -0.4686
   47CHL1    H9 3442   2.771   1.320   7.030  0.8148  2.8893 -2.6282
   47CHL1   C10 3443   2.624   1.311   6.896 -0.1833  0.3411 -0.1647
   47CHL1   C19 3444   2.488   1.370   6.858  0.1097 -0.0866  0.0032
   47CHL1  H19A 3445   2.473   1.478   6.882 -0.9398 -0.9745  3.6590
   47CHL1  H19B 3446   2.455   1.349   6.754 -1.6110 -1.1636  0.7497
   47CHL1  H19C 3447   2.402   1.332   6.917 -2.7699  1.9485 -2.6330
   47CHL1    C1 3448   2.731   1.369   6.796  0.0086  0.2107 -0.3173
   47CHL1   H1A 3449   2.746   1.478   6.813  2.2371 -0.4325  2.1763
   47CHL1   H1B 3450   2.832   1.337   6.827  1.5968  4.4981 -0.8000
   47CHL1    C2 3451   2.706   1.334   6.647 -0.0578 -0.1024  0.2044
   47CHL1   H2A 3452   2.776   1.395   6.585  0.6611 -1.2457 -0.1168
   47CHL1   H2B 3453   2.603   1.360   6.616  1.0315  2.9864 -1.0484
   47CHL1   C20 3454   2.624   1.537   7.568 -0.0806  0.4455 -0.1604
   47CHL1   H20 3455   2.516   1.528   7.592 -0.3744 -1.9788 -2.1257
   47CHL1   C21 3456   2.665   1.678   7.519  0.5821 -0.0542 -0.6928
   47CHL1  H21A 3457   2.771   1.678   7.485  0.7160 -0.7281 -0.2951
   47CHL1  H21B 3458   2.652   1.746   7.606 -0.9773 -1.3526  0.1282
   47CHL1  H21C 3459   2.603   1.716   7.436 -0.0041  1.1609  0.2861
   47CHL1   C22 3460   2.695   1.514   7.706 -0.4689  0.0431  0.0967
   47CHL1  H22A 3461   2.686   1.404   7.721 -2.2155 -0.3034 -3.0213
   47CHL1  H22B 3462   2.802   1.543   7.707 -0.5570  0.3710  0.2650
   47CHL1   C23 3463   2.615   1.588   7.818 -0.4826  0.7727  0.0631
   47CHL1  H23A 3464   2.611   1.695   7.791  0.9906  1.0028  0.6840
   47CHL1  H23B 3465   2.508   1.561   7.807 -0.5793  0.8447  0.7628
   47CHL1   C24 3466   2.663   1.579   7.960  0.1665 -0.2596 -0.7238
   47CHL1  H24A 3467   2.645   1.487   8.020  0.6640 -1.2265 -2.0355
   47CHL1  H24B 3468   2.774   1.571   7.957  0.2674  1.4809 -4.0288
   47CHL1   C25 3469   2.630   1.700   8.052  0.5654  0.3657 -0.3300
   47CHL1   H25 3470   2.683   1.791   8.016 -0.4935  1.5434  1.0499
   47CHL1   C26 3471   2.485   1.733   8.051  0.0239 -0.4667 -0.0838
   47CHL1  H26A 3472   2.430   1.650   8.100 -0.4230  0.1577  0.4770
   47CHL1  H26B 3473   2.467   1.826   8.110  0.7518 -0.3738 -0.0078
   47CHL1  H26C 3474   2.453   1.762   7.948 -1.2881 -0.6720  0.2633
   47CHL1   C27 3475   2.676   1.680   8.198 -0.0763  0.4190  1.1874
   47CHL1  H27A 3476   2.763   1.749   8.207  0.4788 -0.2476  1.0489
   47CHL1  H27B 3477   2.602   1.720   8.270 -2.1719  0.2363 -0.8351
   47CHL1  H27C 3478   2.691   1.571   8.214 -1.0015  0.2860  1.1561
   48CHL1    C3 3479   6.049   4.170   6.526  0.2564  0.2831 -0.3093
   48CHL1    H3 3480   5.940   4.174   6.546  0.2300  0.0638 -0.3963
   48CHL1    O3 3481   6.067   4.180   6.386  0.0802  0.0598 -0.1934
   48CHL1   H3' 3482   6.055   4.096   6.342  0.9786 -0.3249  0.2795
   48CHL1    C4 3483   6.119   4.274   6.602  0.3456 -0.1446  0.4530
   48CHL1   H4A 3484   6.226   4.278   6.575  0.3389  2.1332  0.6891
   48CHL1   H4B 3485   6.071   4.367   6.563  0.5221 -0.9312 -1.7011
   48CHL1    C5 3486   6.108   4.263   6.754 -0.0101 -0.5139  0.1140
   48CHL1    C6 3487   6.045   4.345   6.836  0.0042  0.4771  0.6351
   48CHL1    H6 3488   5.985   4.425   6.790 -1.4935  0.3634  2.3293
   48CHL1    C7 3489   6.047   4.333   6.984 -0.4566  0.5017  0.2815
   48CHL1   H7A 3490   6.071   4.437   7.015 -1.4852  0.5719  0.8654
   48CHL1   H7B 3491   5.945   4.306   7.019 -0.0250 -1.4954  0.0626
   48CHL1    C8 3492   6.156   4.230   7.043  0.4002  0.2442 -0.3919
   48CHL1    H8 3493   6.251   4.286   7.027 -0.0046  0.9260 -0.4072
   48CHL1   C14 3494   6.135   4.200   7.192 -0.2002  0.0450 -0.3478
   48CHL1   H14 3495   6.028   4.172   7.197 -1.4608  4.4485 -0.6575
   48CHL1   C15 3496   6.135   4.321   7.284  0.8049  0.1858 -0.6732
   48CHL1  H15A 3497   6.209   4.401   7.264 -0.2674  2.3971  3.5191
   48CHL1  H15B 3498   6.041   4.377   7.265  1.8349  1.4672 -2.0487
   48CHL1   C16 3499   6.165   4.269   7.424 -0.7775  0.5570 -0.4437
   48CHL1  H16A 3500   6.257   4.319   7.461 -0.0676 -1.2514  0.2959
   48CHL1  H16B 3501   6.075   4.278   7.488 -0.2444 -1.8894  0.7243
   48CHL1   C17 3502   6.171   4.109   7.401  0.7382 -0.1037  0.3131
   48CHL1   H17 3503   6.064   4.080   7.396  0.6024  0.4033  0.2266
   48CHL1   C13 3504   6.226   4.098   7.258 -0.5156 -0.0429 -0.2641
   48CHL1   C18 3505   6.373   4.151   7.265  0.4691 -0.1442 -1.0032
   48CHL1  H18A 3506   6.410   4.175   7.163  0.8174 -0.4823 -0.9574
   48CHL1  H18B 3507   6.394   4.251   7.308 -0.6222 -0.8377  1.2292
   48CHL1  H18C 3508   6.444   4.078   7.309 -1.6818 -1.4107  0.4363
   48CHL1   C12 3509   6.212   3.978   7.163 -0.1039  1.0740  0.0021
   48CHL1  H12A 3510   6.285   3.907   7.206 -1.3877  0.1895  0.7514
   48CHL1  H12B 3511   6.108   3.941   7.176 -0.4960  2.0705 -0.2202
   48CHL1   C11 3512   6.246   3.993   7.011 -0.7846  0.0099 -0.2511
   48CHL1  H11A 3513   6.353   4.023   7.012 -0.5354 -0.8442  0.4770
   48CHL1  H11B 3514   6.248   3.896   6.958 -1.1149 -2.3423  3.7876
   48CHL1    C9 3515   6.159   4.104   6.956  1.2387  0.0147 -0.6488
   48CHL1    H9 3516   6.052   4.075   6.965  1.1308 -0.5324 -3.4579
   48CHL1   C10 3517   6.184   4.137   6.806  0.8536 -0.2072  0.5756
   48CHL1   C19 3518   6.337   4.144   6.774  0.1773 -0.4593 -0.5052
   48CHL1  H19A 3519   6.365   4.153   6.667 -0.4004 -1.6893 -0.7649
   48CHL1  H19B 3520   6.378   4.225   6.839 -1.5685  0.2028 -0.1910
   48CHL1  H19C 3521   6.392   4.054   6.809  2.3206  2.0895  3.1110
   48CHL1    C1 3522   6.114   4.017   6.726  0.5048  0.0280  0.0441
   48CHL1   H1A 3523   6.163   3.919   6.745  1.1602  0.3529  0.0473
   48CHL1   H1B 3524   6.009   4.001   6.758 -0.0318  0.6461 -1.4038
   48CHL1    C2 3525   6.110   4.032   6.563 -0.2112 -0.2430  0.3701
   48CHL1   H2A 3526   6.046   3.954   6.517  0.3376 -0.4390 -0.0566
   48CHL1   H2B 3527   6.211   4.026   6.519  0.2078  0.9782  1.1511
   48CHL1   C20 3528   6.240   4.036   7.516 -0.4345  0.7225 -0.2375
   48CHL1   H20 3529   6.336   4.087   7.540 -0.2622  1.1999 -1.8476
   48CHL1   C21 3530   6.264   3.883   7.481 -0.3486  0.0925 -0.0025
   48CHL1  H21A 3531   6.282   3.828   7.576  0.2153  1.2618  0.5774
   48CHL1  H21B 3532   6.356   3.882   7.419 -1.5462  2.1685 -1.8833
   48CHL1  H21C 3533   6.179   3.831   7.431 -0.2257 -0.9492  0.8606
   48CHL1   C22 3534   6.162   4.045   7.648  0.4201  0.1963 -0.5532
   48CHL1  H22A 3535   6.129   4.150   7.657  3.7608  1.2014  0.5979
   48CHL1  H22B 3536   6.075   3.976   7.642  0.3536  0.2098  0.1798
   48CHL1   C23 3537   6.248   4.005   7.763 -0.1745 -0.5240 -0.2840
   48CHL1  H23A 3538   6.292   3.904   7.748 -0.1485 -0.1907 -2.5750
   48CHL1  H23B 3539   6.331   4.078   7.774  0.1343 -0.8307 -0.6043
   48CHL1   C24 3540   6.166   4.012   7.902  0.1171  0.0326 -0.4028
   48CHL1  H24A 3541   6.132   4.115   7.924  0.5487 -0.5140  3.1516
   48CHL1  H24B 3542   6.071   3.954   7.897  0.1929 -0.2405  1.2370
   48CHL1   C25 3543   6.243   3.961   8.026  0.3240  0.1913 -0.0736
   48CHL1   H25 3544   6.250   3.852   8.007 -1.7094  0.3236 -1.6960
   48CHL1   C26 3545   6.382   4.021   8.042  0.3652 -0.2237 -0.4308
   48CHL1  H26A 3546   6.459   3.986   7.970  1.4030  3.8167 -1.3635
   48CHL1  H26B 3547   6.387   4.129   8.016 -2.5984  0.3489  1.1590
   48CHL1  H26C 3548   6.404   4.013   8.151 -0.2673 -1.8445 -0.4052
   48CHL1   C27 3549   6.169   3.997   8.151  0.2543 -0.1704  0.1248
   48CHL1  H27A 3550   6.059   3.981   8.142  0.2897 -1.6963  2.1126
   48CHL1  H27B 3551   6.208   3.931   8.231 -0.4551 -0.0842  0.5490
   48CHL1  H27C 3552   6.174   4.105   8.177 -1.6858 -0.3128  1.1944
   49CHL1    C3 3553   5.051   5.559   6.663  0.8519  0.3058 -0.2473
   49CHL1    H3 3554   5.001   5.659   6.662 -0.0617 -0.1388  0.2488
   49CHL1    O3 3555   5.096   5.535   6.529 -0.3361 -0.2309  0.7229
   49CHL1   H3' 3556   5.125   5.444   6.527  1.4491  0.3331 -0.0658
   49CHL1    C4 3557   5.173   5.558   6.757 -0.4123 -0.4339 -0.2206
   49CHL1   H4A 3558   5.223   5.462   6.732 -2.0960 -1.5475  0.5553
   49CHL1   H4B 3559   5.239   5.642   6.727 -1.5480  0.5033 -0.1040
   49CHL1    C5 3560   5.127   5.563   6.904 -0.6334 -0.3687 -0.9931
   49CHL1    C6 3561   5.182   5.659   6.985  0.3316  0.1892  0.5109
   49CHL1    H6 3562   5.257   5.721   6.934  0.9430 -2.3920 -1.8432
   49CHL1    C7 3563   5.153   5.688   7.131 -0.3212  0.6086 -0.0835
   49CHL1   H7A 3564   5.237   5.665   7.200  1.3663 -0.1997 -2.3371
   49CHL1   H7B 3565   5.117   5.791   7.152 -1.4947  0.2712 -0.4360
   49CHL1    C8 3566   5.050   5.585   7.184 -0.1077 -0.7588  0.1397
   49CHL1    H8 3567   5.104   5.492   7.210  0.7181 -0.3053  0.0714
   49CHL1   C14 3568   4.974   5.652   7.297 -1.2471  0.0966 -0.3022
   49CHL1   H14 3569   4.918   5.735   7.249 -0.2257  1.3343  0.5894
   49CHL1   C15 3570   5.055   5.703   7.421  0.2725 -0.0622  0.1455
   49CHL1  H15A 3571   5.120   5.618   7.450 -0.0639  0.0794  1.3302
   49CHL1  H15B 3572   5.118   5.795   7.415 -1.4937  1.4141  2.8895
   49CHL1   C16 3573   4.958   5.718   7.535  0.5527  0.6067  0.0346
   49CHL1  H16A 3574   5.003   5.653   7.613 -2.2693 -1.2406  0.1914
   49CHL1  H16B 3575   4.949   5.824   7.568 -0.0466  0.1435  1.3840
   49CHL1   C17 3576   4.825   5.645   7.484 -0.6836  0.1473 -0.9901
   49CHL1   H17 3577   4.765   5.732   7.452 -0.1170  1.4805  1.4128
   49CHL1   C13 3578   4.868   5.560   7.353  0.0108 -0.1757  0.1215
   49CHL1   C18 3579   4.922   5.433   7.419 -0.1862  0.4214  0.5838
   49CHL1  H18A 3580   4.847   5.363   7.463  0.4665  0.1838  1.3225
   49CHL1  H18B 3581   4.984   5.375   7.348 -2.4556 -2.0399  0.5014
   49CHL1  H18C 3582   4.989   5.470   7.500  1.2908  0.9321 -0.8546
   49CHL1   C12 3583   4.754   5.546   7.247  0.5972 -0.1757 -0.3582
   49CHL1  H12A 3584   4.669   5.490   7.291 -1.2076  3.2188  0.7139
   49CHL1  H12B 3585   4.711   5.647   7.228  0.2956 -0.4471 -1.1244
   49CHL1   C11 3586   4.818   5.480   7.129  0.3685 -0.6492 -0.1743
   49CHL1  H11A 3587   4.833   5.372   7.149  1.0674 -0.6346 -0.6056
   49CHL1  H11B 3588   4.738   5.479   7.052 -1.0919 -0.2301  1.3113
   49CHL1    C9 3589   4.950   5.548   7.072 -0.2561  0.2074  0.3176
   49CHL1    H9 3590   4.912   5.639   7.022  0.9132 -0.0886 -1.1494
   49CHL1   C10 3591   5.008   5.481   6.954  0.1653  0.6050 -0.1562
   49CHL1   C19 3592   5.072   5.343   6.988 -0.3861  0.4185 -0.5601
   49CHL1  H19A 3593   4.986   5.279   7.015 -0.5179  0.7639 -0.1497
   49CHL1  H19B 3594   5.123   5.305   6.897  0.0350  0.4703 -0.3464
   49CHL1  H19C 3595   5.145   5.339   7.072 -0.9585 -1.3330 -0.1314
   49CHL1    C1 3596   4.897   5.480   6.844 -0.0204  0.6100 -0.3631
   49CHL1   H1A 3597   4.822   5.407   6.881  2.4904 -0.6421  2.4297
   49CHL1   H1B 3598   4.843   5.577   6.834  0.3240  0.9800  1.2558
   49CHL1    C2 3599   4.950   5.453   6.702  0.2879 -0.9517 -0.3857
   49CHL1   H2A 3600   4.867   5.463   6.629  0.2169 -1.3582 -0.3653
   49CHL1   H2B 3601   4.993   5.350   6.699  2.1275 -0.2754  1.8150
   49CHL1   C20 3602   4.749   5.576   7.598  0.7768 -0.0169 -0.7474
   49CHL1   H20 3603   4.818   5.499   7.638 -0.1087 -0.7694 -0.6509
   49CHL1   C21 3604   4.617   5.507   7.541 -0.1835 -0.4040 -0.1867
   49CHL1  H21A 3605   4.551   5.465   7.620  0.0509  0.2401  0.3625
   49CHL1  H21B 3606   4.648   5.426   7.472  2.2165  0.7113 -0.4502
   49CHL1  H21C 3607   4.549   5.584   7.498  1.5799  0.9936 -0.5488
   49CHL1   C22 3608   4.705   5.656   7.717  0.3252 -0.3738 -0.0583
   49CHL1  H22A 3609   4.795   5.715   7.743  0.5437 -0.9749  0.5452
   49CHL1  H22B 3610   4.629   5.730   7.683  1.4032  0.4307 -0.7573
   49CHL1   C23 3611   4.671   5.578   7.844  0.3547 -0.5755 -0.0364
   49CHL1  H23A 3612   4.584   5.514   7.815  0.9405 -0.5771 -1.8759
   49CHL1  H23B 3613   4.750   5.506   7.874  0.7600 -0.7446 -1.4310
   49CHL1   C24 3614   4.618   5.670   7.958  0.5849  0.7094  0.5262
   49CHL1  H24A 3615   4.556   5.749   7.911  2.2620  0.7761 -1.6872
   49CHL1  H24B 3616   4.561   5.617   8.037  2.6038 -1.2962  0.6723
   49CHL1   C25 3617   4.725   5.734   8.041 -0.0539 -0.1861  0.2111
   49CHL1   H25 3618   4.780   5.799   7.970  1.7412 -1.2891  0.5601
   49CHL1   C26 3619   4.666   5.838   8.145 -0.3840  0.2864  0.3179
   49CHL1  H26A 3620   4.600   5.908   8.089 -1.5077 -0.5142  0.6093
   49CHL1  H26B 3621   4.607   5.787   8.224  1.2622 -1.6127  0.3751
   49CHL1  H26C 3622   4.743   5.906   8.186 -1.6445  1.3182  0.9919
   49CHL1   C27 3623   4.821   5.644   8.113  0.5689 -0.8813 -0.0452
   49CHL1  H27A 3624   4.902   5.700   8.164  0.2792 -1.5852  1.2195
   49CHL1  H27B 3625   4.769   5.577   8.185 -0.0895  1.8429  2.0952
   49CHL1  H27C 3626   4.866   5.577   8.037  0.4298 -1.7567  0.6381
   50CHL1    C3 3627   6.393   6.425   6.930 -0.6584 -0.2560  0.3370
   50CHL1    H3 3628   6.481   6.380   6.980  0.1881 -0.1316 -1.0004
   50CHL1    O3 3629   6.411   6.406   6.794 -0.1312  0.1637 -0.0206
   50CHL1   H3' 3630   6.358   6.476   6.756  0.1389 -0.4100 -1.4693
   50CHL1    C4 3631   6.270   6.352   6.989  0.4822  0.2498  0.1454
   50CHL1   H4A 3632   6.176   6.383   6.939  0.0347 -2.1058 -0.5370
   50CHL1   H4B 3633   6.283   6.242   6.975  0.3633  0.3089 -0.4372
   50CHL1    C5 3634   6.249   6.382   7.141 -0.1396  0.0551 -0.0068
   50CHL1    C6 3635   6.245   6.288   7.237  0.3017 -0.7749 -0.2237
   50CHL1    H6 3636   6.256   6.187   7.194 -1.0078  0.6449 -4.1541
   50CHL1    C7 3637   6.215   6.323   7.383  0.7371  0.1642  0.0208
   50CHL1   H7A 3638   6.132   6.257   7.415 -0.4525 -0.4031 -3.9956
   50CHL1   H7B 3639   6.297   6.277   7.443 -4.0252 -5.5597  2.6516
   50CHL1    C8 3640   6.182   6.471   7.410 -0.2835 -0.5503  0.3836
   50CHL1    H8 3641   6.074   6.488   7.388  0.3262 -0.6472 -2.9571
   50CHL1   C14 3642   6.215   6.502   7.557  0.1911 -0.1946 -0.1330
   50CHL1   H14 3643   6.325   6.491   7.571  0.5704  2.2811 -0.8131
   50CHL1   C15 3644   6.159   6.406   7.662  0.3099  0.0523 -0.2943
   50CHL1  H15A 3645   6.054   6.379   7.638  0.2169  1.2403 -1.2297
   50CHL1  H15B 3646   6.230   6.323   7.685 -2.0452 -1.6688  0.9267
   50CHL1   C16 3647   6.150   6.499   7.795  0.2017 -0.2776  0.3580
   50CHL1  H16A 3648   6.041   6.504   7.817 -0.1450 -2.5014 -0.6937
   50CHL1  H16B 3649   6.204   6.456   7.882 -0.6097 -0.8063  0.6139
   50CHL1   C17 3650   6.198   6.638   7.758  0.1771  0.0511 -0.7307
   50CHL1   H17 3651   6.307   6.632   7.779  0.1166  0.9538 -0.1622
   50CHL1   C13 3652   6.181   6.641   7.603  0.5473 -0.3591 -0.4213
   50CHL1   C18 3653   6.033   6.672   7.561 -0.5936 -0.6640 -0.9272
   50CHL1  H18A 3654   6.010   6.779   7.581 -1.8354 -0.8748 -1.1508
   50CHL1  H18B 3655   6.006   6.673   7.453 -0.7373 -1.5530 -0.9096
   50CHL1  H18C 3656   5.962   6.612   7.623 -0.5397 -0.6247 -0.8277
   50CHL1   C12 3657   6.272   6.728   7.517 -0.1669  0.5551 -0.2088
   50CHL1  H12A 3658   6.261   6.833   7.552  2.3881 -0.0775  2.7645
   50CHL1  H12B 3659   6.376   6.698   7.542  0.7065  1.3776 -2.7435
   50CHL1   C11 3660   6.256   6.703   7.367 -0.2970  0.1701  0.5036
   50CHL1  H11A 3661   6.164   6.748   7.323 -0.4795  0.7060  1.4271
   50CHL1  H11B 3662   6.339   6.758   7.318 -0.4541 -1.1172 -1.2622
   50CHL1    C9 3663   6.272   6.558   7.329 -1.0946  0.1391  0.5668
   50CHL1    H9 3664   6.376   6.527   7.352 -1.5005 -1.8000 -0.0664
   50CHL1   C10 3665   6.250   6.532   7.175  0.9494 -0.0524  0.2164
   50CHL1   C19 3666   6.114   6.599   7.133  0.3877  0.0094 -0.0286
   50CHL1  H19A 3667   6.082   6.570   7.031  1.5077  0.1233 -0.4184
   50CHL1  H19B 3668   6.029   6.566   7.197  0.7857 -0.4206  0.2843
   50CHL1  H19C 3669   6.107   6.709   7.136 -0.0225 -0.0360  0.9293
   50CHL1    C1 3670   6.368   6.601   7.105  0.5665  0.1781  1.0808
   50CHL1   H1A 3671   6.371   6.710   7.123  0.7812  0.7168 -1.9441
   50CHL1   H1B 3672   6.457   6.564   7.159  1.3055  0.0785 -0.1849
   50CHL1    C2 3673   6.386   6.577   6.954  0.5013 -0.0065  0.0464
   50CHL1   H2A 3674   6.467   6.646   6.921  1.4223 -1.9964 -1.9330
   50CHL1   H2B 3675   6.295   6.611   6.900 -0.6762 -2.3667  0.4918
   50CHL1   C20 3676   6.131   6.751   7.837 -0.2255  0.1118  0.3538
   50CHL1   H20 3677   6.026   6.770   7.807 -0.0935  1.9418  1.0049
   50CHL1   C21 3678   6.206   6.890   7.814 -0.0885 -0.5219  0.0617
   50CHL1  H21A 3679   6.314   6.891   7.837  0.5740 -1.5859 -2.8240
   50CHL1  H21B 3680   6.151   6.965   7.875 -0.4395 -0.2187 -0.6212
   50CHL1  H21C 3681   6.191   6.919   7.709  1.8623  1.1277  0.2180
   50CHL1   C22 3682   6.126   6.701   7.990  0.1604 -0.4333  0.1091
   50CHL1  H22A 3683   6.029   6.648   8.004 -1.3810  2.2188 -0.0766
   50CHL1  H22B 3684   6.225   6.654   8.006  1.1572  1.4955 -0.2075
   50CHL1   C23 3685   6.120   6.812   8.105  0.8121  0.4494 -0.9330
   50CHL1  H23A 3686   6.224   6.850   8.117  0.5006  0.8400  0.7854
   50CHL1  H23B 3687   6.058   6.899   8.075 -0.6064  0.3448  1.5113
   50CHL1   C24 3688   6.064   6.770   8.246  0.0887  0.1862 -0.4955
   50CHL1  H24A 3689   5.961   6.734   8.225 -0.2407  0.8322  0.0162
   50CHL1  H24B 3690   6.121   6.684   8.287  1.9955  1.4193 -0.4881
   50CHL1   C25 3691   6.047   6.893   8.330 -0.1037 -0.4590  0.4912
   50CHL1   H25 3692   5.998   6.970   8.268 -1.5961 -1.7023  0.0890
   50CHL1   C26 3693   5.956   6.868   8.455  0.5141  0.3028  1.0199
   50CHL1  H26A 3694   5.857   6.834   8.417  0.1162  2.1486  0.3468
   50CHL1  H26B 3695   6.001   6.797   8.527  1.2941  0.4000  0.6315
   50CHL1  H26C 3696   5.957   6.971   8.498 -0.6376  1.1783 -0.9513
   50CHL1   C27 3697   6.175   6.943   8.382 -0.3851  1.0663  0.1920
   50CHL1  H27A 3698   6.222   6.857   8.434  1.3071  0.9232 -1.5435
   50CHL1  H27B 3699   6.257   6.956   8.308  1.1646 -2.3138  1.1832
   50CHL1  H27C 3700   6.157   7.032   8.446 -1.1979  1.5848 -0.7503
   51CHL1    C3 3701   5.795   5.682   6.892  1.0564  0.6357  0.5914
   51CHL1    H3 3702   5.868   5.618   6.945 -0.9699 -0.8792  1.6271
   51CHL1    O3 3703   5.822   5.686   6.752 -0.5255 -0.3341  0.2623
   51CHL1   H3' 3704   5.813   5.597   6.719  0.9432 -1.0217  1.6652
   51CHL1    C4 3705   5.651   5.625   6.906  0.3718 -0.1615 -0.1295
   51CHL1   H4A 3706   5.580   5.689   6.848 -1.6916 -1.4255  0.9212
   51CHL1   H4B 3707   5.648   5.525   6.857  1.9321 -0.1053 -0.3730
   51CHL1    C5 3708   5.605   5.610   7.051  0.5612 -0.5297  0.0691
   51CHL1    C6 3709   5.544   5.505   7.101  0.3538 -0.1916 -0.2631
   51CHL1    H6 3710   5.532   5.422   7.030 -0.2495 -0.0806 -0.2954
   51CHL1    C7 3711   5.479   5.496   7.236 -0.7494  0.2376 -0.2522
   51CHL1   H7A 3712   5.374   5.459   7.232 -0.9165  0.5917  0.8311
   51CHL1   H7B 3713   5.525   5.409   7.287 -1.2618  0.2477  0.2344
   51CHL1    C8 3714   5.497   5.627   7.311  0.3883  0.1361 -0.7505
   51CHL1    H8 3715   5.423   5.706   7.289  0.9017  0.8116 -0.1130
   51CHL1   C14 3716   5.492   5.592   7.465 -0.1434  0.5204 -0.1354
   51CHL1   H14 3717   5.579   5.524   7.476  0.9047  1.6415 -1.3769
   51CHL1   C15 3718   5.379   5.508   7.525 -0.0687  0.1475  0.1140
   51CHL1  H15A 3719   5.273   5.533   7.505  0.3475  1.0829 -0.9747
   51CHL1  H15B 3720   5.386   5.397   7.512 -2.0571 -0.0683  0.7428
   51CHL1   C16 3721   5.405   5.529   7.677 -0.1075 -0.8241  0.1181
   51CHL1  H16A 3722   5.315   5.577   7.721  0.1396  2.0533 -2.4203
   51CHL1  H16B 3723   5.424   5.430   7.723 -0.7426 -0.9840  0.0439
   51CHL1   C17 3724   5.508   5.637   7.694 -0.4510 -0.2251 -0.7586
   51CHL1   H17 3725   5.607   5.589   7.706  0.3100  1.8626  1.5622
   51CHL1   C13 3726   5.517   5.706   7.554  0.5966 -0.5984 -0.9116
   51CHL1   C18 3727   5.397   5.805   7.546 -0.0664 -0.1552  0.3410
   51CHL1  H18A 3728   5.363   5.824   7.441 -1.7562  0.6420  1.0098
   51CHL1  H18B 3729   5.314   5.766   7.609  0.0215  1.2062  1.3130
   51CHL1  H18C 3730   5.417   5.902   7.595  0.9595 -0.3435  0.2932
   51CHL1   C12 3731   5.652   5.775   7.519 -0.5409 -0.5943  0.0633
   51CHL1  H12A 3732   5.659   5.867   7.582  1.9792 -0.2698 -0.6557
   51CHL1  H12B 3733   5.750   5.728   7.543  0.1179  0.6068 -0.2238
   51CHL1   C11 3734   5.642   5.827   7.381  0.1628  0.2004  0.1872
   51CHL1  H11A 3735   5.563   5.904   7.369 -0.7215 -0.5472  1.1136
   51CHL1  H11B 3736   5.740   5.873   7.354 -0.3713  1.4480  0.3210
   51CHL1    C9 3737   5.620   5.710   7.281  0.1345  0.5080  0.4059
   51CHL1    H9 3738   5.697   5.637   7.314 -0.0060 -0.4165 -1.2297
   51CHL1   C10 3739   5.633   5.739   7.130 -0.2908  0.6827 -0.1044
   51CHL1   C19 3740   5.520   5.838   7.087 -0.1751 -0.1631  0.2845
   51CHL1  H19A 3741   5.422   5.792   7.109 -0.1628 -0.3738 -0.0976
   51CHL1  H19B 3742   5.531   5.936   7.139  0.9112 -0.8048  1.3050
   51CHL1  H19C 3743   5.526   5.849   6.977 -2.0648 -0.7184  0.1128
   51CHL1    C1 3744   5.769   5.812   7.095 -0.4112  0.5553 -0.6082
   51CHL1   H1A 3745   5.764   5.911   7.145  5.3632  1.0924 -0.8173
   51CHL1   H1B 3746   5.847   5.750   7.146 -0.3446  1.3102  0.2096
   51CHL1    C2 3747   5.800   5.824   6.945 -0.2652  0.2614 -0.0188
   51CHL1   H2A 3748   5.896   5.877   6.928 -0.2954  0.2201 -0.3375
   51CHL1   H2B 3749   5.715   5.880   6.901 -0.4965  0.6139  0.8841
   51CHL1   C20 3750   5.489   5.721   7.823 -0.6915 -0.7291 -0.3428
   51CHL1   H20 3751   5.388   5.768   7.824 -0.5300 -0.3677  2.0675
   51CHL1   C21 3752   5.602   5.822   7.838  0.2807  0.4954 -0.3308
   51CHL1  H21A 3753   5.634   5.819   7.944  0.7551 -2.4148 -0.5265
   51CHL1  H21B 3754   5.581   5.927   7.806 -2.5113  0.0592  0.0043
   51CHL1  H21C 3755   5.691   5.789   7.780 -0.1437  0.4409 -0.9554
   51CHL1   C22 3756   5.486   5.622   7.945  0.1025  0.1884  0.4638
   51CHL1  H22A 3757   5.482   5.688   8.035 -1.7918  1.2935 -0.3916
   51CHL1  H22B 3758   5.404   5.548   7.941  2.8157 -2.9671  0.8818
   51CHL1   C23 3759   5.597   5.527   7.964 -0.7292  0.0267 -1.0118
   51CHL1  H23A 3760   5.597   5.448   7.887 -1.5012 -0.9746 -0.0047
   51CHL1  H23B 3761   5.690   5.588   7.966  1.2808 -2.9725 -0.0621
   51CHL1   C24 3762   5.589   5.460   8.106  0.6006  0.1486 -0.1724
   51CHL1  H24A 3763   5.681   5.411   8.146  0.3381  0.2501  0.5662
   51CHL1  H24B 3764   5.560   5.544   8.172 -0.2446 -0.7254  0.5780
   51CHL1   C25 3765   5.464   5.370   8.127 -0.2203 -0.0442  0.6869
   51CHL1   H25 3766   5.367   5.419   8.106  0.5092  1.5055  0.8148
   51CHL1   C26 3767   5.478   5.246   8.037 -0.8709 -0.6006 -0.4151
   51CHL1  H26A 3768   5.583   5.212   8.037 -0.5075  0.4656 -1.6336
   51CHL1  H26B 3769   5.438   5.156   8.088 -1.1800  0.3406  1.0453
   51CHL1  H26C 3770   5.436   5.242   7.934 -2.3162 -1.0996  0.1737
   51CHL1   C27 3771   5.459   5.327   8.273  0.7115 -0.0495  0.1015
   51CHL1  H27A 3772   5.369   5.265   8.292  1.1327 -0.8934 -0.6313
   51CHL1  H27B 3773   5.551   5.266   8.290  1.1236  0.8725  1.2517
   51CHL1  H27C 3774   5.469   5.412   8.344  0.0031  1.6530 -1.8095
   52CHL1    C3 3775   1.229   6.554   7.089 -0.3783  0.0441 -0.7362
   52CHL1    H3 3776   1.199   6.655   7.125 -0.6034  0.8441 -3.1110
   52CHL1    O3 3777   1.314   6.554   6.976 -0.6432 -0.1281 -0.5157
   52CHL1   H3' 3778   1.331   6.462   6.956 -0.5496 -0.3654  0.5977
   52CHL1    C4 3779   1.300   6.480   7.200  0.4354  0.1842  0.3936
   52CHL1   H4A 3780   1.327   6.386   7.147  0.7765  0.4809  0.0375
   52CHL1   H4B 3781   1.395   6.532   7.225  0.2344  0.5317  0.4459
   52CHL1    C5 3782   1.216   6.447   7.325 -1.2382  0.1197 -0.6597
   52CHL1    C6 3783   1.266   6.497   7.436  0.5212 -0.2035 -0.0075
   52CHL1    H6 3784   1.362   6.551   7.427  0.2465 -0.2808 -4.7734
   52CHL1    C7 3785   1.188   6.493   7.568 -0.6678  0.6705 -0.1541
   52CHL1   H7A 3786   1.264   6.470   7.646  0.2091 -2.5833 -1.8856
   52CHL1   H7B 3787   1.133   6.589   7.582 -0.9602  0.5404 -0.4144
   52CHL1    C8 3788   1.080   6.382   7.557 -0.5965 -0.3909 -0.5280
   52CHL1    H8 3789   1.133   6.284   7.565  1.1687  0.5967  0.3407
   52CHL1   C14 3790   0.990   6.390   7.682 -0.2303  0.8950  0.6822
   52CHL1   H14 3791   0.932   6.485   7.678  0.1415  1.1670  1.7590
   52CHL1   C15 3792   1.050   6.383   7.817 -1.5066 -0.7699  0.5592
   52CHL1  H15A 3793   1.123   6.299   7.820 -0.8209 -0.2960 -1.6457
   52CHL1  H15B 3794   1.109   6.472   7.846 -3.2483  0.3691  0.7071
   52CHL1   C16 3795   0.930   6.360   7.910  0.0514 -1.0720 -0.1755
   52CHL1  H16A 3796   0.961   6.276   7.975  1.1768 -0.1529  0.4880
   52CHL1  H16B 3797   0.898   6.445   7.974 -2.2646 -0.6140 -1.8582
   52CHL1   C17 3798   0.816   6.313   7.817  0.7927 -0.1198 -0.2516
   52CHL1   H17 3799   0.740   6.393   7.805 -0.1364 -1.0616 -0.6692
   52CHL1   C13 3800   0.886   6.281   7.682  0.5540 -0.5679 -0.1200
   52CHL1   C18 3801   0.950   6.135   7.684  0.1625  0.1987 -0.1796
   52CHL1  H18A 3802   0.866   6.066   7.706 -0.7650  1.7588  1.3727
   52CHL1  H18B 3803   0.992   6.103   7.586  0.7468 -0.5339  0.3024
   52CHL1  H18C 3804   1.033   6.119   7.756 -1.3842 -1.1111  1.3419
   52CHL1   C12 3805   0.800   6.296   7.551 -1.3658  0.4604  0.2668
   52CHL1  H12A 3806   0.716   6.223   7.552  0.4776 -1.7202  0.8885
   52CHL1  H12B 3807   0.750   6.396   7.550 -2.8204 -0.2538  0.1468
   52CHL1   C11 3808   0.884   6.290   7.423  0.0273 -0.5986 -0.4067
   52CHL1  H11A 3809   0.905   6.185   7.394  0.0268  0.3121 -4.0035
   52CHL1  H11B 3810   0.812   6.322   7.344 -2.5857 -0.7350  1.8499
   52CHL1    C9 3811   0.999   6.392   7.425  0.8131 -0.0821 -0.1960
   52CHL1    H9 3812   0.952   6.493   7.431  0.2673 -0.2001 -2.3329
   52CHL1   C10 3813   1.085   6.391   7.302  0.3655 -0.0823  0.4691
   52CHL1   C19 3814   1.113   6.237   7.270  0.4879 -0.6641  0.4348
   52CHL1  H19A 3815   1.021   6.187   7.232 -0.7878  2.7587 -1.1695
   52CHL1  H19B 3816   1.184   6.209   7.189 -0.1592 -0.3465 -0.2547
   52CHL1  H19C 3817   1.148   6.185   7.361  1.3150  1.1504  1.1847
   52CHL1    C1 3818   1.017   6.465   7.187  0.1394  0.1133  0.6263
   52CHL1   H1A 3819   0.928   6.409   7.152  0.1237 -0.4482  1.5565
   52CHL1   H1B 3820   0.980   6.564   7.222  1.1417 -0.1508  2.5196
   52CHL1    C2 3821   1.101   6.480   7.056  0.1448  0.2039  0.0572
   52CHL1   H2A 3822   1.046   6.527   6.971  0.3856  0.2433 -0.0764
   52CHL1   H2B 3823   1.124   6.378   7.018 -1.2825  0.0054 -0.3348
   52CHL1   C20 3824   0.724   6.203   7.885 -0.0666  0.5231  0.0648
   52CHL1   H20 3825   0.791   6.115   7.885  0.8683  1.2045 -0.9808
   52CHL1   C21 3826   0.605   6.174   7.787 -0.5003  0.4600  0.0506
   52CHL1  H21A 3827   0.515   6.144   7.846 -0.8467  1.3602 -0.0121
   52CHL1  H21B 3828   0.630   6.092   7.716  0.1639  0.2085  0.5657
   52CHL1  H21C 3829   0.587   6.271   7.737  2.0001  1.4941  1.0736
   52CHL1   C22 3830   0.682   6.236   8.028 -0.3835  0.3390 -0.8742
   52CHL1  H22A 3831   0.766   6.274   8.089 -3.1349  3.8851  0.8577
   52CHL1  H22B 3832   0.599   6.309   8.021 -0.4651  0.9650  4.6908
   52CHL1   C23 3833   0.642   6.108   8.104  0.4450  0.2008 -0.4424
   52CHL1  H23A 3834   0.563   6.055   8.047  1.1927 -1.6707  0.2290
   52CHL1  H23B 3835   0.726   6.036   8.105 -0.5597 -1.0106 -1.4039
   52CHL1   C24 3836   0.589   6.135   8.248  0.1043 -0.0909  0.6618
   52CHL1  H24A 3837   0.530   6.229   8.247  0.5139  0.1700 -0.4529
   52CHL1  H24B 3838   0.522   6.054   8.281  1.0196 -0.9185  0.5308
   52CHL1   C25 3839   0.699   6.171   8.352 -0.3200  0.1154 -0.1639
   52CHL1   H25 3840   0.763   6.253   8.312 -1.2176  0.9398  0.0677
   52CHL1   C26 3841   0.629   6.242   8.472  0.4954 -0.2457 -0.8088
   52CHL1  H26A 3842   0.551   6.180   8.521 -0.3829  2.0418  0.8027
   52CHL1  H26B 3843   0.698   6.279   8.551 -1.8242 -0.2782  1.2934
   52CHL1  H26C 3844   0.589   6.339   8.434 -0.6034  0.1271  1.1786
   52CHL1   C27 3845   0.779   6.046   8.390 -0.2399 -0.2869  0.2254
   52CHL1  H27A 3846   0.711   5.964   8.422  0.3852 -0.7405  0.4050
   52CHL1  H27B 3847   0.839   6.003   8.307 -0.8056 -0.7145  0.0399
   52CHL1  H27C 3848   0.839   6.078   8.478 -1.8435 -0.1035  1.2834
   53CHL1    C3 3849   3.835   3.100   6.985  0.2876 -0.2220  0.6147
   53CHL1    H3 3850   3.769   3.188   7.002 -0.5349 -0.6526 -0.2576
   53CHL1    O3 3851   3.843   3.089   6.849  0.9090  0.0672  0.2242
   53CHL1   H3' 3852   3.923   3.037   6.836  0.5004 -0.4951 -0.0940
   53CHL1    C4 3853   3.973   3.145   7.044 -0.3807  0.0211 -0.0799
   53CHL1   H4A 3854   4.045   3.070   7.004 -0.5086  1.3868 -2.9898
   53CHL1   H4B 3855   3.999   3.244   7.001  1.1334 -0.5844 -0.5875
   53CHL1    C5 3856   3.975   3.162   7.199 -0.2440 -0.0453 -0.1669
   53CHL1    C6 3857   4.013   3.275   7.262 -0.2299 -0.3362  0.0231
   53CHL1    H6 3858   4.054   3.360   7.206  2.0507 -0.3895  1.5321
   53CHL1    C7 3859   4.016   3.291   7.413  0.0565  0.4651  0.3283
   53CHL1   H7A 3860   4.117   3.329   7.443 -0.4670  0.2878  2.4097
   53CHL1   H7B 3861   3.936   3.362   7.443 -0.4323 -0.1609  0.5039
   53CHL1    C8 3862   3.994   3.159   7.484  0.2742 -0.1166 -0.3465
   53CHL1    H8 3863   4.092   3.106   7.481  0.3508 -0.0679  0.8952
   53CHL1   C14 3864   3.963   3.172   7.634  0.5427 -0.4204  0.0048
   53CHL1   H14 3865   3.877   3.241   7.648  2.0120  0.9819  2.6970
   53CHL1   C15 3866   4.070   3.252   7.717  0.8879 -0.2076 -0.4888
   53CHL1  H15A 3867   4.163   3.195   7.698  0.1028 -1.5809 -0.3201
   53CHL1  H15B 3868   4.075   3.359   7.689 -2.1862  0.2226  0.4107
   53CHL1   C16 3869   4.012   3.230   7.860 -0.1423 -0.0904 -0.8596
   53CHL1  H16A 3870   4.096   3.220   7.932  0.8459  1.3357 -1.7861
   53CHL1  H16B 3871   3.972   3.327   7.899 -0.3680 -0.0175 -1.2739
   53CHL1   C17 3872   3.910   3.108   7.860  0.6701  0.6896  0.9075
   53CHL1   H17 3873   3.809   3.152   7.847  0.4805 -0.1023 -0.4369
   53CHL1   C13 3874   3.941   3.045   7.720  0.7172  0.1414 -0.2318
   53CHL1   C18 3875   4.062   2.949   7.724  0.1297 -0.6016 -0.0144
   53CHL1  H18A 3876   4.149   3.003   7.767 -2.7981  2.5973  2.1061
   53CHL1  H18B 3877   4.054   2.874   7.805  1.9818  1.5688  2.2629
   53CHL1  H18C 3878   4.096   2.909   7.625  0.2415  1.5801 -0.8861
   53CHL1   C12 3879   3.820   2.974   7.657 -0.0804 -0.4911 -0.5501
   53CHL1  H12A 3880   3.779   2.887   7.713 -0.3897 -1.2710 -1.9711
   53CHL1  H12B 3881   3.730   3.040   7.648  0.2954  0.1475  0.3702
   53CHL1   C11 3882   3.848   2.947   7.511 -0.3198 -0.0903 -0.6522
   53CHL1  H11A 3883   3.936   2.880   7.515 -0.0139  0.4039  1.5057
   53CHL1  H11B 3884   3.770   2.884   7.465 -0.9810 -1.3385  2.1043
   53CHL1    C9 3885   3.885   3.068   7.422 -0.1504  0.4563 -0.5270
   53CHL1    H9 3886   3.800   3.140   7.428 -0.6691 -0.1607 -0.4005
   53CHL1   C10 3887   3.918   3.033   7.276 -0.0854 -0.0088  0.2116
   53CHL1   C19 3888   4.030   2.920   7.275  0.3893 -0.6010 -0.3498
   53CHL1  H19A 3889   3.975   2.828   7.303  0.6359 -0.3578  0.9921
   53CHL1  H19B 3890   4.065   2.897   7.173  1.4024  2.1295 -0.6540
   53CHL1  H19C 3891   4.115   2.942   7.344  1.7581  0.5364 -2.3542
   53CHL1    C1 3892   3.786   2.981   7.204 -0.9239  0.6028 -0.2150
   53CHL1   H1A 3893   3.754   2.886   7.252  0.2912 -0.3115 -1.1731
   53CHL1   H1B 3894   3.715   3.063   7.225  0.5596  2.2269 -1.3868
   53CHL1    C2 3895   3.794   2.965   7.049  0.2936  0.2245 -0.3473
   53CHL1   H2A 3896   3.697   2.925   7.013  0.2032  0.2768 -0.1589
   53CHL1   H2B 3897   3.866   2.885   7.022 -2.3065 -2.1105 -0.5672
   53CHL1   C20 3898   3.932   3.014   7.980 -0.2861  0.2656  0.2411
   53CHL1   H20 3899   4.040   2.989   7.987 -0.6600 -1.4125  0.0705
   53CHL1   C21 3900   3.844   2.887   7.964 -0.1917  0.0685  0.1269
   53CHL1  H21A 3901   3.877   2.816   7.885 -0.0891 -0.2766  0.4763
   53CHL1  H21B 3902   3.739   2.913   7.938 -0.4360 -2.4691 -1.6243
   53CHL1  H21C 3903   3.853   2.823   8.054 -0.4537 -0.8906 -0.5207
   53CHL1   C22 3904   3.901   3.088   8.117 -0.4186  0.5239 -0.1313
   53CHL1  H22A 3905   3.959   3.181   8.133  2.7807 -2.1939  5.9460
   53CHL1  H22B 3906   3.795   3.116   8.102  0.9588  4.3683 -3.7231
   53CHL1   C23 3907   3.916   3.010   8.247  0.1360  0.0693  0.6301
   53CHL1  H23A 3908   3.859   3.072   8.320  1.0285 -0.1769  1.5438
   53CHL1  H23B 3909   3.861   2.914   8.237  1.7378 -0.9270  1.3364
   53CHL1   C24 3910   4.058   2.998   8.290  0.0521 -0.0449 -0.8842
   53CHL1  H24A 3911   4.105   2.922   8.224  1.3282 -1.1685  1.2539
   53CHL1  H24B 3912   4.113   3.094   8.289 -2.4074  1.4549  1.0431
   53CHL1   C25 3913   4.071   2.945   8.431  0.3466  0.1749 -0.1394
   53CHL1   H25 3914   3.980   2.888   8.461 -0.2589 -0.2706 -2.6850
   53CHL1   C26 3915   4.186   2.845   8.439  0.5237  1.0123 -0.0073
   53CHL1  H26A 3916   4.200   2.811   8.544 -1.2998  0.4722  0.0704
   53CHL1  H26B 3917   4.160   2.759   8.374  0.0426  0.0090  1.4710
   53CHL1  H26C 3918   4.279   2.890   8.399 -1.4661  1.4961 -4.2967
   53CHL1   C27 3919   4.088   3.050   8.538 -0.3648  0.2312  0.4378
   53CHL1  H27A 3920   4.063   3.013   8.639 -2.1593  2.2215  0.7436
   53CHL1  H27B 3921   4.194   3.083   8.540 -0.5167  0.6838  0.9753
   53CHL1  H27C 3922   4.027   3.140   8.516 -0.5334  0.1709  0.6667
   54CHL1    C3 3923   4.025   4.934   6.798 -0.0447  0.2036 -0.5968
   54CHL1    H3 3924   4.076   4.836   6.803  0.0525  0.3292  2.0951
   54CHL1    O3 3925   4.001   4.979   6.666 -0.5482  0.3631 -0.5273
   54CHL1   H3' 3926   3.961   4.909   6.614  1.5104  0.1460 -1.8535
   54CHL1    C4 3927   3.899   4.904   6.884 -0.1332 -0.0248  0.8105
   54CHL1   H4A 3928   3.830   4.991   6.874  1.1383  0.9347  0.2920
   54CHL1   H4B 3929   3.843   4.822   6.833 -0.0363 -0.0672  0.7721
   54CHL1    C5 3930   3.928   4.865   7.026  0.6951 -0.3712 -0.0375
   54CHL1    C6 3931   3.874   4.752   7.081  0.3300 -0.0532  0.2862
   54CHL1    H6 3932   3.806   4.686   7.024 -2.0161  1.5161  1.1808
   54CHL1    C7 3933   3.887   4.707   7.227 -0.5473  0.4493  0.8888
   54CHL1   H7A 3934   3.792   4.672   7.272 -1.1352 -0.3910 -0.9664
   54CHL1   H7B 3935   3.949   4.615   7.228 -1.7547 -0.3720  1.2012
   54CHL1    C8 3936   3.960   4.814   7.310  0.2334 -0.0644 -0.0534
   54CHL1    H8 3937   3.879   4.879   7.351 -2.0587 -2.1412 -1.1218
   54CHL1   C14 3938   4.026   4.749   7.431  0.3799  0.5567  0.1587
   54CHL1   H14 3939   4.105   4.686   7.386  0.3737  1.9405 -1.8397
   54CHL1   C15 3940   3.941   4.644   7.517  0.4588 -0.4200  0.1939
   54CHL1  H15A 3941   3.833   4.664   7.528  0.3924 -1.2826  1.2420
   54CHL1  H15B 3942   3.949   4.539   7.480  0.0260 -1.3855  2.7273
   54CHL1   C16 3943   4.019   4.638   7.649  0.9997 -0.0829  0.5868
   54CHL1  H16A 3944   3.951   4.664   7.732 -0.4956 -1.3055 -0.2454
   54CHL1  H16B 3945   4.067   4.542   7.681 -2.6883 -1.8951  0.8737
   54CHL1   C17 3946   4.142   4.737   7.632  0.9157  0.2917  0.1407
   54CHL1   H17 3947   4.219   4.681   7.575  1.2160 -0.2876  1.1000
   54CHL1   C13 3948   4.094   4.834   7.534  0.6842 -0.8412  0.8181
   54CHL1   C18 3949   3.996   4.930   7.601 -0.0451 -0.5542  0.4147
   54CHL1  H18A 3950   3.931   4.864   7.663 -1.5830  1.1247  0.6324
   54CHL1  H18B 3951   4.052   5.006   7.660  1.7422 -2.3621  1.0947
   54CHL1  H18C 3952   3.925   4.984   7.535  0.6593 -2.6724 -2.1623
   54CHL1   C12 3953   4.200   4.907   7.455 -0.2553 -0.2050  0.0996
   54CHL1  H12A 3954   4.254   4.971   7.529 -0.2911  0.3220 -0.3313
   54CHL1  H12B 3955   4.266   4.831   7.408 -2.0325 -1.4963 -0.3707
   54CHL1   C11 3956   4.147   4.987   7.340  0.5372 -0.4767  0.1939
   54CHL1  H11A 3957   4.085   5.073   7.371  0.0407 -0.0198 -2.0010
   54CHL1  H11B 3958   4.221   5.043   7.279 -0.3084  0.3869 -0.0586
   54CHL1    C9 3959   4.066   4.895   7.241 -0.2366  0.1433 -1.0149
   54CHL1    H9 3960   4.141   4.817   7.216 -1.3430 -0.5919 -2.1004
   54CHL1   C10 3961   4.019   4.957   7.109  0.6494  0.1925 -0.4304
   54CHL1   C19 3962   3.948   5.088   7.149 -0.8332 -1.0127 -0.3283
   54CHL1  H19A 3963   4.025   5.155   7.191 -1.7270  0.4469 -0.9708
   54CHL1  H19B 3964   3.902   5.140   7.062 -0.8409  1.3339  1.0449
   54CHL1  H19C 3965   3.865   5.069   7.221 -0.8460  0.2987  0.0214
   54CHL1    C1 3966   4.140   4.981   7.024 -0.1766  0.2655 -0.5258
   54CHL1   H1A 3967   4.202   5.060   7.071  0.3487 -0.7753  0.5534
   54CHL1   H1B 3968   4.197   4.886   7.017 -0.2738  0.2757 -1.4696
   54CHL1    C2 3969   4.114   5.033   6.875  0.2067  0.3852  0.2644
   54CHL1   H2A 3970   4.209   5.038   6.818  0.6430 -1.5195  0.7784
   54CHL1   H2B 3971   4.060   5.130   6.874 -0.6807 -0.0952  0.9273
   54CHL1   C20 3972   4.207   4.785   7.765  0.2509  0.1613  1.2126
   54CHL1   H20 3973   4.252   4.885   7.742 -0.6141 -0.1341 -1.9394
   54CHL1   C21 3974   4.321   4.694   7.808 -0.2335  0.1109  0.0224
   54CHL1  H21A 3975   4.390   4.666   7.726  0.5910 -2.5975  1.5450
   54CHL1  H21B 3976   4.287   4.598   7.853 -4.0706  3.0812  3.8563
   54CHL1  H21C 3977   4.376   4.749   7.888 -0.7277  0.4932  0.1016
   54CHL1   C22 3978   4.111   4.799   7.878 -0.1285  0.1890  0.2034
   54CHL1  H22A 3979   4.003   4.816   7.854 -0.2520  0.6255  1.0588
   54CHL1  H22B 3980   4.098   4.703   7.933  1.9581 -1.1420 -1.5443
   54CHL1   C23 3981   4.151   4.917   7.967  0.7913  0.0972 -0.7317
   54CHL1  H23A 3982   4.261   4.908   7.985  0.8445  0.0489 -1.0739
   54CHL1  H23B 3983   4.150   5.009   7.905  2.0913  0.5129 -0.1500
   54CHL1   C24 3984   4.072   4.925   8.096 -0.3036 -0.5208 -0.1667
   54CHL1  H24A 3985   4.079   4.825   8.144  1.4111  0.3596  1.5262
   54CHL1  H24B 3986   4.125   5.004   8.154 -2.4904  0.8720  0.0131
   54CHL1   C25 3987   3.920   4.958   8.084 -0.1288  0.0816  0.4174
   54CHL1   H25 3988   3.883   4.868   8.030 -2.2834  2.2070 -1.7447
   54CHL1   C26 3989   3.857   4.964   8.229  0.6959 -0.2274 -0.5107
   54CHL1  H26A 3990   3.747   4.965   8.218  0.8350  1.4825 -1.9228
   54CHL1  H26B 3991   3.886   4.868   8.278  2.6291  0.3281 -0.5051
   54CHL1  H26C 3992   3.892   5.045   8.296 -0.7095  0.6950 -0.8763
   54CHL1   C27 3993   3.877   5.085   8.008 -0.3170 -0.9924  0.5758
   54CHL1  H27A 3994   3.940   5.160   8.061  0.6802 -1.7989  0.5587
   54CHL1  H27B 3995   3.897   5.079   7.899 -0.8589 -0.7189  0.4596
   54CHL1  H27C 3996   3.769   5.091   8.031 -0.4031 -0.3088  0.0008
   55CHL1    C3 3997   3.655   6.287   7.032  0.1937  0.3629 -1.1146
   55CHL1    H3 3998   3.715   6.204   7.074 -1.8444 -0.8343 -0.4999
   55CHL1    O3 3999   3.677   6.305   6.893 -0.4924  0.2348 -0.4729
   55CHL1   H3' 4000   3.758   6.357   6.886  1.1371 -2.4045 -2.1662
   55CHL1    C4 4001   3.500   6.272   7.058 -0.0701 -0.8210 -0.1930
   55CHL1   H4A 4002   3.443   6.355   7.012  0.2659  0.5067  1.7452
   55CHL1   H4B 4003   3.469   6.187   6.994  2.6912 -1.2941 -0.9361
   55CHL1    C5 4004   3.468   6.268   7.211 -0.5382  0.0329 -0.9823
   55CHL1    C6 4005   3.402   6.158   7.263 -0.0863 -0.3375  0.4357
   55CHL1    H6 4006   3.373   6.083   7.188  0.5860 -1.3776  1.1920
   55CHL1    C7 4007   3.371   6.140   7.407 -0.3796  0.1480  0.5190
   55CHL1   H7A 4008   3.265   6.116   7.432 -0.0297 -2.6778 -0.6253
   55CHL1   H7B 4009   3.441   6.060   7.436  1.9143  1.7740 -0.3994
   55CHL1    C8 4010   3.398   6.268   7.490  0.0705  0.0998  0.4077
   55CHL1    H8 4011   3.322   6.344   7.464  0.0007 -0.6961 -1.7956
   55CHL1   C14 4012   3.380   6.252   7.644  0.2912 -0.6067  0.9349
   55CHL1   H14 4013   3.449   6.172   7.677  1.2413  0.8563  2.6166
   55CHL1   C15 4014   3.241   6.205   7.694  0.4793 -0.3638 -0.1271
   55CHL1  H15A 4015   3.173   6.261   7.626  1.8229 -0.1961 -1.3637
   55CHL1  H15B 4016   3.229   6.100   7.660  1.4598 -0.1518 -1.1290
   55CHL1   C16 4017   3.237   6.249   7.841  0.1118  0.5261 -0.2940
   55CHL1  H16A 4018   3.151   6.319   7.847 -1.1795 -1.2728  3.9024
   55CHL1  H16B 4019   3.224   6.164   7.911  1.4634  0.6157  0.0624
   55CHL1   C17 4020   3.370   6.323   7.868  0.4573  0.4535 -0.9970
   55CHL1   H17 4021   3.441   6.248   7.906  0.0264  0.5270 -0.0160
   55CHL1   C13 4022   3.416   6.374   7.729  0.9086 -0.4823  0.4826
   55CHL1   C18 4023   3.325   6.488   7.688  0.3333 -0.1965  0.2139
   55CHL1  H18A 4024   3.218   6.474   7.714  0.5993 -0.6184  1.0652
   55CHL1  H18B 4025   3.348   6.579   7.747 -0.8197 -1.6075  2.9013
   55CHL1  H18C 4026   3.324   6.511   7.579 -2.1525 -1.0152  0.0320
   55CHL1   C12 4027   3.565   6.404   7.706 -0.2843  0.3810  0.1967
   55CHL1  H12A 4028   3.587   6.495   7.766 -1.4892  2.8934 -2.9954
   55CHL1  H12B 4029   3.634   6.322   7.733  1.1824  1.2146 -0.9060
   55CHL1   C11 4030   3.590   6.431   7.557 -0.8325 -0.3362  0.2983
   55CHL1  H11A 4031   3.554   6.536   7.544  0.4551  0.0639 -0.1639
   55CHL1  H11B 4032   3.700   6.431   7.541 -0.3926  2.1329  2.7915
   55CHL1    C9 4033   3.540   6.321   7.453  0.2607  0.0037 -0.8060
   55CHL1    H9 4034   3.604   6.231   7.457  0.1876 -0.1676 -3.2620
   55CHL1   C10 4035   3.542   6.368   7.301 -0.1218 -0.4006  0.5539
   55CHL1   C19 4036   3.461   6.502   7.289 -0.2826 -0.2626  0.4641
   55CHL1  H19A 4037   3.353   6.484   7.309 -0.4406 -1.6951 -1.5695
   55CHL1  H19B 4038   3.493   6.587   7.353  0.0131 -0.3741  0.4655
   55CHL1  H19C 4039   3.468   6.529   7.181 -0.3807 -0.1760  0.4798
   55CHL1    C1 4040   3.690   6.391   7.259  0.3505 -0.4258  0.3608
   55CHL1   H1A 4041   3.729   6.489   7.294  0.3337 -0.5193  0.6424
   55CHL1   H1B 4042   3.746   6.302   7.295  1.4404  0.4026  0.7356
   55CHL1    C2 4043   3.708   6.412   7.108 -0.3877  0.4517 -0.4064
   55CHL1   H2A 4044   3.814   6.433   7.082 -0.5406  0.2829 -1.1885
   55CHL1   H2B 4045   3.646   6.497   7.071 -1.0618  0.1055 -0.0681
   55CHL1   C20 4046   3.345   6.422   7.984 -0.0295 -0.1719 -0.1570
   55CHL1   H20 4047   3.257   6.486   7.963  0.0007  0.5445  1.8109
   55CHL1   C21 4048   3.474   6.512   8.008  0.2624  0.5308  0.3227
   55CHL1  H21A 4049   3.497   6.557   8.107  3.9513  2.3029 -1.2262
   55CHL1  H21B 4050   3.469   6.598   7.938 -1.2164 -0.8566 -1.3123
   55CHL1  H21C 4051   3.558   6.441   7.991 -0.8256 -0.5014 -0.8522
   55CHL1   C22 4052   3.321   6.354   8.112 -0.3141  0.1232  0.2967
   55CHL1  H22A 4053   3.270   6.256   8.096  0.1258 -0.1401  0.4876
   55CHL1  H22B 4054   3.413   6.336   8.172 -0.6352 -0.5642  0.5932
   55CHL1   C23 4055   3.231   6.446   8.197  0.3229  0.2125  0.1620
   55CHL1  H23A 4056   3.281   6.542   8.222  0.5241 -0.2848  1.7405
   55CHL1  H23B 4057   3.140   6.464   8.137 -0.3807 -0.1548  1.0992
   55CHL1   C24 4058   3.191   6.383   8.329  0.2551  0.4320 -0.1505
   55CHL1  H24A 4059   3.175   6.273   8.327 -0.0802  0.4706  0.4771
   55CHL1  H24B 4060   3.265   6.406   8.410  1.2269 -0.7629 -0.6715
   55CHL1   C25 4061   3.055   6.438   8.385 -0.3811  0.6628  0.6454
   55CHL1   H25 4062   2.972   6.393   8.327  0.5277 -1.1995  0.7751
   55CHL1   C26 4063   3.020   6.383   8.525 -0.1391 -0.1705  0.1446
   55CHL1  H26A 4064   3.053   6.277   8.530 -1.4220 -0.4885  2.7777
   55CHL1  H26B 4065   3.078   6.444   8.597 -1.1990 -1.5964  2.2753
   55CHL1  H26C 4066   2.910   6.387   8.541  0.0085  1.0099  0.8890
   55CHL1   C27 4067   3.043   6.592   8.387 -0.2643  0.0268  0.1145
   55CHL1  H27A 4068   3.060   6.640   8.288  0.6438 -2.0341 -0.7431
   55CHL1  H27B 4069   2.951   6.633   8.435  0.2759  0.6369  0.6425
   55CHL1  H27C 4070   3.130   6.630   8.445  0.1905 -3.0174  1.5168
   56CHL1    C3 4071   2.257   4.472   6.988  0.5675  0.2053  0.2194
   56CHL1    H3 4072   2.158   4.514   7.016 -0.3105  0.1834 -2.6861
   56CHL1    O3 4073   2.262   4.482   6.847 -0.2268  0.0265 -0.4313
   56CHL1   H3' 4074   2.322   4.557   6.835 -1.0087  0.4827 -1.5746
   56CHL1    C4 4075   2.364   4.558   7.061  0.3017 -0.3175 -0.6431
   56CHL1   H4A 4076   2.457   4.507   7.027 -1.0547 -4.4602  1.5134
   56CHL1   H4B 4077   2.354   4.659   7.017  1.1486 -0.7509 -1.8681
   56CHL1    C5 4078   2.352   4.549   7.213 -0.3205 -0.0707 -0.3602
   56CHL1    C6 4079   2.338   4.666   7.284  0.1348  0.0461 -0.1524
   56CHL1    H6 4080   2.344   4.766   7.239  1.3098 -0.5073 -1.2379
   56CHL1    C7 4081   2.310   4.668   7.437 -0.7290 -0.5927 -0.0876
   56CHL1   H7A 4082   2.371   4.740   7.497 -0.7033  0.8704 -1.8122
   56CHL1   H7B 4083   2.204   4.702   7.439 -0.1730  1.2911 -0.7268
   56CHL1    C8 4084   2.345   4.531   7.505 -0.1801  0.0927  0.7118
   56CHL1    H8 4085   2.456   4.524   7.499  0.0514  3.8701 -1.0748
   56CHL1   C14 4086   2.295   4.514   7.647  0.5166 -0.4927  0.3473
   56CHL1   H14 4087   2.184   4.516   7.643  0.4856 -1.9906  0.1694
   56CHL1   C15 4088   2.336   4.628   7.747 -0.4759  0.1691 -0.1379
   56CHL1  H15A 4089   2.446   4.635   7.733 -0.3360  1.1518  1.4576
   56CHL1  H15B 4090   2.295   4.730   7.734  1.5188  1.0569  0.3707
   56CHL1   C16 4091   2.306   4.568   7.888 -1.5592 -0.4944  0.9975
   56CHL1  H16A 4092   2.393   4.581   7.957 -0.6436 -1.0166 -0.0402
   56CHL1  H16B 4093   2.212   4.602   7.936 -1.7864 -0.3578  0.4582
   56CHL1   C17 4094   2.288   4.415   7.863  0.3241  0.5875  0.0268
   56CHL1   H17 4095   2.179   4.394   7.870  0.2238  0.6486 -1.2275
   56CHL1   C13 4096   2.330   4.382   7.716 -0.3305  0.0037  0.5958
   56CHL1   C18 4097   2.488   4.361   7.718  0.2950  0.0717  0.3978
   56CHL1  H18A 4098   2.533   4.430   7.792  1.1848  1.0394 -1.0214
   56CHL1  H18B 4099   2.504   4.259   7.761 -1.1339  0.7327  2.6028
   56CHL1  H18C 4100   2.529   4.375   7.616 -3.8823  1.2680 -1.2102
   56CHL1   C12 4101   2.260   4.266   7.639  0.3527 -0.6150 -0.5792
   56CHL1  H12A 4102   2.291   4.162   7.663  0.1524 -0.4699  0.3188
   56CHL1  H12B 4103   2.152   4.269   7.667  0.1219  0.5460 -1.5610
   56CHL1   C11 4104   2.274   4.281   7.485  0.1747  0.5128 -1.1009
   56CHL1  H11A 4105   2.380   4.247   7.482 -0.8828 -3.3822  1.8321
   56CHL1  H11B 4106   2.205   4.208   7.438  0.3614  0.0566 -0.6732
   56CHL1    C9 4107   2.279   4.421   7.420  0.4524  0.1303  0.3376
   56CHL1    H9 4108   2.173   4.454   7.426 -0.2186 -1.5006 -2.0759
   56CHL1   C10 4109   2.331   4.410   7.271  0.1863 -1.0833 -0.3270
   56CHL1   C19 4110   2.466   4.345   7.257  0.0097 -0.4489 -0.5435
   56CHL1  H19A 4111   2.454   4.237   7.276  0.6341 -0.8515 -2.3549
   56CHL1  H19B 4112   2.502   4.345   7.152  2.7073  0.6764  0.3328
   56CHL1  H19C 4113   2.551   4.377   7.321 -1.4500  0.5059  0.9559
   56CHL1    C1 4114   2.230   4.327   7.192  0.3917  1.0704  0.1267
   56CHL1   H1A 4115   2.230   4.219   7.215 -1.3539  0.7674 -1.1522
   56CHL1   H1B 4116   2.124   4.354   7.211 -0.1546 -1.1419  0.3303
   56CHL1    C2 4117   2.265   4.328   7.035  0.8030  0.2858 -0.2901
   56CHL1   H2A 4118   2.182   4.268   6.992 -1.3899  3.6894 -1.0298
   56CHL1   H2B 4119   2.362   4.276   7.018  1.3112  1.5021 -1.1754
   56CHL1   C20 4120   2.345   4.332   7.977  0.1396 -0.0000  0.4404
   56CHL1   H20 4121   2.454   4.351   7.983 -0.0001  0.5508  1.3655
   56CHL1   C21 4122   2.321   4.184   7.955 -0.5109  0.1325  0.3797
   56CHL1  H21A 4123   2.369   4.126   8.038 -1.4557  0.0994  0.9049
   56CHL1  H21B 4124   2.371   4.135   7.868  0.8995  0.3519  1.0452
   56CHL1  H21C 4125   2.215   4.152   7.949 -1.1597  2.2911 -0.1646
   56CHL1   C22 4126   2.286   4.368   8.122  0.0878 -0.3053  0.4827
   56CHL1  H22A 4127   2.337   4.460   8.156  3.1395 -1.5792 -0.4918
   56CHL1  H22B 4128   2.175   4.373   8.130  0.0601  1.7068 -0.8160
   56CHL1   C23 4129   2.322   4.264   8.232 -0.0164  0.0417  0.0506
   56CHL1  H23A 4130   2.264   4.290   8.323  0.0089 -1.6326  0.5638
   56CHL1  H23B 4131   2.291   4.160   8.206 -1.4433  0.5856 -0.4567
   56CHL1   C24 4132   2.472   4.267   8.272 -0.1881 -0.0117  0.3127
   56CHL1  H24A 4133   2.534   4.238   8.184 -1.6083  1.7350 -1.2940
   56CHL1  H24B 4134   2.496   4.371   8.302 -0.1175  0.2069 -0.4859
   56CHL1   C25 4135   2.514   4.195   8.412 -0.0343 -0.4123  0.3315
   56CHL1   H25 4136   2.444   4.225   8.493 -1.6198 -1.0876 -0.7691
   56CHL1   C26 4137   2.497   4.036   8.401 -0.2580 -0.5446  0.3106
   56CHL1  H26A 4138   2.563   4.001   8.320 -1.9303 -0.2604 -1.2067
   56CHL1  H26B 4139   2.393   4.008   8.373 -0.6388 -0.1162  1.2575
   56CHL1  H26C 4140   2.527   3.996   8.501 -1.8968 -0.5400  0.8201
   56CHL1   C27 4141   2.660   4.220   8.443  0.2347  0.4442 -0.2656
   56CHL1  H27A 4142   2.692   4.177   8.540 -0.4265 -1.0895 -0.7140
   56CHL1  H27B 4143   2.732   4.181   8.368 -1.8459 -1.6753 -1.2446
   56CHL1  H27C 4144   2.665   4.330   8.454 -0.9738  0.3625  1.3320
   57SAPC     N 4145   2.981   0.967  11.150 -0.5781 -0.1655  0.5973
   57SAPC   C12 4146   3.061   1.039  11.036 -0.3142  0.5843 -0.2047
   57SAPC  H12A 4147   3.064   0.978  10.948  2.3790 -1.8460  1.4811
   57SAPC  H12B 4148   3.166   1.045  11.061 -0.3547 -0.4428  0.2264
   57SAPC   C13 4149   2.838   0.953  11.095 -1.1052 -0.7199 -0.4034
   57SAPC  H13A 4150   2.819   1.032  11.024  0.5451  0.7826  0.7806
   57SAPC  H13B 4151   2.835   0.868  11.029 -1.2161 -3.1677  2.6452
   57SAPC  H13C 4152   2.755   0.948  11.164 -0.1734 -0.8750  0.7265
   57SAPC   C14 4153   3.041   0.837  11.179  0.6108  0.2508  0.2532
   57SAPC  H14A 4154   2.979   0.774  11.240 -1.2990 -0.2168 -2.0889
   57SAPC  H14B 4155   3.070   0.789  11.086 -0.2424  0.1318  0.0457
   57SAPC  H14C 4156   3.129   0.841  11.242 -0.4212  0.0764  1.7192
   57SAPC   C15 4157   2.977   1.057  11.260  0.2779  0.2609  0.5109
   57SAPC  H15A 4158   2.883   1.048  11.313  0.7385 -4.7224  0.7775
   57SAPC  H15B 4159   3.066   1.060  11.321  0.7601 -0.0008 -0.1689
   57SAPC  H15C 4160   2.964   1.156  11.220 -1.0354  0.4617  1.4037
   57SAPC   C11 4161   3.025   1.182  10.989  0.4297  0.2930 -0.5909
   57SAPC  H11A 4162   3.101   1.204  10.911  1.3856 -0.7876  0.0281
   57SAPC  H11B 4163   3.056   1.252  11.069 -1.2364  0.1551  0.1971
   57SAPC     P 4164   2.836   1.196  10.804  0.2750 -0.2508 -0.0033
   57SAPC   O13 4165   2.725   1.104  10.796 -0.0508  0.1505 -0.4221
   57SAPC   O14 4166   2.829   1.338  10.748 -0.0833 -0.4951 -0.6524
   57SAPC   O12 4167   2.889   1.189  10.952  0.5547  0.2888  0.3063
   57SAPC   O11 4168   2.956   1.126  10.736  0.3260  0.3124 -0.1784
   57SAPC    C1 4169   2.999   1.146  10.599  0.6114 -0.0022 -0.7175
   57SAPC    HA 4170   2.928   1.104  10.524  1.6639 -2.9805 -0.1109
   57SAPC    HB 4171   3.026   1.253  10.589  1.5614 -0.2273 -0.6011
   57SAPC    C2 4172   3.119   1.063  10.579 -0.3028  0.7600 -0.0897
   57SAPC    HS 4173   3.197   1.075  10.656  0.4783  0.5287 -0.8389
   57SAPC   O21 4174   3.169   1.084  10.446  0.7472  0.6097 -0.5461
   57SAPC   C21 4175   3.291   1.040  10.416 -0.7625  0.3390  0.4221
   57SAPC   O22 4176   3.369   0.990  10.492 -0.4540 -0.0654 -0.1620
   57SAPC   C22 4177   3.329   1.052  10.266 -0.0694  0.4845  0.2681
   57SAPC   H2R 4178   3.401   1.135  10.250  1.7683 -1.7424 -3.7011
   57SAPC   H2S 4179   3.374   0.958  10.227 -1.5737 -0.1177 -0.0481
   57SAPC    C3 4180   3.084   0.912  10.594  0.1029  0.6656  0.0235
   57SAPC    HX 4181   3.032   0.894  10.691 -2.8615  1.9379 -1.2719
   57SAPC    HY 4182   3.180   0.857  10.606 -0.5139 -1.5348 -4.1341
   57SAPC   O31 4183   3.005   0.853  10.483 -0.5193  0.3546 -0.4255
   57SAPC   C31 4184   3.056   0.765  10.405  0.1330  0.0086 -0.9274
   57SAPC   O32 4185   3.170   0.729  10.409 -0.4344  0.3143 -0.2544
   57SAPC   C32 4186   2.954   0.721  10.298 -0.1702  0.7280  0.5456
   57SAPC   H2X 4187   2.857   0.767  10.327 -0.0998  0.2698  1.5118
   57SAPC   H2Y 4188   2.949   0.611  10.313  0.5306  0.5478 -0.4528
   57SAPC   C23 4189   3.212   1.087  10.178 -0.3494 -0.4200  0.7860
   57SAPC   H3R 4190   3.187   1.195  10.180 -2.0959 -0.7907 -0.1218
   57SAPC   H3S 4191   3.118   1.035  10.208 -1.5547  1.2790  0.0087
   57SAPC   C24 4192   3.254   1.056  10.036 -0.4681 -0.4214  0.0807
   57SAPC   H4R 4193   3.293   0.953  10.019 -1.3271 -0.5752 -0.9254
   57SAPC   H4S 4194   3.345   1.112  10.005  0.8772 -4.1011 -3.1701
   57SAPC   C25 4195   3.142   1.099   9.948 -0.0659 -0.7265  0.7339
   57SAPC   H5R 4196   3.074   1.175   9.988 -0.6099  0.1715 -1.7998
   57SAPC   C26 4197   3.123   1.070   9.818  0.1058  0.4166  0.0935
   57SAPC   H6R 4198   3.033   1.115   9.773  0.7274  0.4817 -1.1166
   57SAPC   C27 4199   3.196   0.986   9.717  0.3631  0.4550 -0.6027
   57SAPC   H7R 4200   3.204   0.884   9.760  0.6539  0.5111 -0.5247
   57SAPC   H7S 4201   3.302   1.017   9.725  0.2226  0.6316  0.5403
   57SAPC   C28 4202   3.150   0.985   9.572 -0.2175  0.1972 -1.2937
   57SAPC   H8R 4203   3.072   0.913   9.546 -0.6825  0.2674 -0.1164
   57SAPC   C29 4204   3.205   1.060   9.476  0.4059  0.4428 -0.1316
   57SAPC   H9R 4205   3.168   1.031   9.377 -2.3315 -2.3268  1.5991
   57SAPC  C210 4206   3.327   1.150   9.490  0.0629  0.0161  0.7305
   57SAPC  H10R 4207   3.415   1.107   9.438 -0.8119 -0.5113 -0.3395
   57SAPC  H10S 4208   3.351   1.174   9.595 -2.8866  2.9218  0.8212
   57SAPC  C211 4209   3.306   1.284   9.421 -0.9331  0.5079 -0.5081
   57SAPC  H11R 4210   3.294   1.367   9.492  2.6859 -0.7911  1.7634
   57SAPC  C212 4211   3.319   1.307   9.289  0.0895  0.0680  0.7941
   57SAPC  H12R 4212   3.298   1.409   9.252 -1.7055 -0.0192  1.5635
   57SAPC  C213 4213   3.350   1.201   9.181 -0.3254 -1.4074 -0.2794
   57SAPC  H13R 4214   3.263   1.163   9.122 -0.7891 -2.5512  1.1165
   57SAPC  H13S 4215   3.381   1.110   9.237 -0.7791 -0.0614  2.2144
   57SAPC  C214 4216   3.464   1.227   9.084  0.5251 -0.1178  0.4052
   57SAPC  H14R 4217   3.564   1.232   9.129  0.3177 -0.3177  0.8966
   57SAPC  C215 4218   3.451   1.259   8.956 -0.1298  0.2734 -0.0842
   57SAPC  H15R 4219   3.546   1.273   8.902  0.7177 -1.8393  0.7874
   57SAPC  C216 4220   3.342   1.275   8.858  1.2516  0.1252 -0.4782
   57SAPC  H16R 4221   3.239   1.270   8.901  1.1518 -1.7266 -0.9139
   57SAPC  H16S 4222   3.344   1.205   8.772 -2.1719  0.4701 -0.9337
   57SAPC  C217 4223   3.336   1.416   8.807 -0.5924 -0.1840 -0.0588
   57SAPC  H17R 4224   3.328   1.482   8.896 -0.0830  0.4578 -0.4827
   57SAPC  H17S 4225   3.252   1.431   8.737 -0.3218 -0.1440 -0.3752
   57SAPC  C218 4226   3.469   1.453   8.734 -0.2949 -0.2640  0.5665
   57SAPC  H18R 4227   3.483   1.391   8.643  1.5384  1.3501 -0.2980
   57SAPC  H18S 4228   3.565   1.434   8.786  0.5358  1.4212 -0.3014
   57SAPC  C219 4229   3.468   1.593   8.677  0.1494 -0.0630  0.5332
   57SAPC  H19R 4230   3.449   1.652   8.769  1.6483 -0.2524  0.9766
   57SAPC  H19S 4231   3.371   1.605   8.625 -0.0746  1.2685  1.2701
   57SAPC  C220 4232   3.580   1.642   8.589 -0.3360 -0.2179 -0.5181
   57SAPC  H20R 4233   3.572   1.585   8.494 -1.4331  0.1968 -0.6835
   57SAPC  H20S 4234   3.674   1.620   8.644 -0.8864  0.0820  0.5668
   57SAPC  H20T 4235   3.573   1.749   8.562  0.5711 -0.7845 -3.0778
   57SAPC   C33 4236   3.003   0.738  10.152  0.0063 -0.6518 -0.8494
   57SAPC   H3X 4237   3.095   0.678  10.136 -1.8441 -4.0001  0.5106
   57SAPC   H3Y 4238   3.038   0.843  10.143  0.3106 -0.5310  1.3643
   57SAPC   C34 4239   2.897   0.697  10.060  0.1560 -0.3630 -0.1959
   57SAPC   H4X 4240   2.807   0.754  10.091  0.9386 -0.2803  2.0108
   57SAPC   H4Y 4241   2.867   0.592  10.074 -2.5071  0.6739  2.1356
   57SAPC   C35 4242   2.927   0.712   9.912  0.1572  0.7249 -0.0159
   57SAPC   H5X 4243   2.995   0.628   9.888 -1.5038 -0.8617  0.7085
   57SAPC   H5Y 4244   2.969   0.810   9.878  1.5372 -0.6094 -2.2805
   57SAPC   C36 4245   2.795   0.680   9.846  0.1963 -0.1043  0.6446
   57SAPC   H6X 4246   2.728   0.769   9.848  1.6421  0.9980  0.9335
   57SAPC   H6Y 4247   2.749   0.587   9.884 -0.9631 -1.8296 -4.6190
   57SAPC   C37 4248   2.808   0.654   9.694  0.7656 -0.4726 -0.2524
   57SAPC   H7X 4249   2.714   0.605   9.661  0.9509  0.0005 -1.5204
   57SAPC   H7Y 4250   2.892   0.583   9.680  0.1058 -1.5988  1.4410
   57SAPC   C38 4251   2.832   0.778   9.607 -0.1262  0.6833  0.0268
   57SAPC   H8X 4252   2.920   0.826   9.654  0.2694  1.0627 -1.0835
   57SAPC   H8Y 4253   2.743   0.845   9.600 -1.3186 -1.0320 -1.8926
   57SAPC   C39 4254   2.869   0.749   9.456  0.1772 -0.6298  0.0540
   57SAPC   H9X 4255   2.876   0.850   9.410  2.3850 -0.7959 -0.0404
   57SAPC   H9Y 4256   2.782   0.707   9.403 -1.3289  0.9344  1.2097
   57SAPC  C310 4257   3.003   0.679   9.439  0.1922  0.0355 -0.6888
   57SAPC  H10X 4258   2.985   0.574   9.471  1.9413  0.1170  0.6316
   57SAPC  H10Y 4259   3.080   0.726   9.504  0.4219 -3.0313  1.3718
   57SAPC  C311 4260   3.030   0.679   9.288  0.0342  0.5158 -0.9922
   57SAPC  H11X 4261   2.943   0.663   9.222 -1.5350  1.5730  0.7580
   57SAPC  H11Y 4262   3.089   0.586   9.277 -0.5153  0.2096 -1.3704
   57SAPC  C312 4263   3.107   0.802   9.246 -0.7222  0.4806  0.7961
   57SAPC  H12X 4264   3.199   0.825   9.304 -1.0559  2.5586  0.5381
   57SAPC  H12Y 4265   3.037   0.888   9.251  1.0808  2.0025  0.4825
   57SAPC  C313 4266   3.151   0.808   9.099 -0.2596 -0.1821  0.1286
   57SAPC  H13X 4267   3.217   0.897   9.091 -0.4689 -0.0355  0.0309
   57SAPC  H13Y 4268   3.067   0.832   9.031  0.1217  1.5227  0.2449
   57SAPC  C314 4269   3.240   0.691   9.044  0.0297 -0.2765  1.2977
   57SAPC  H14X 4270   3.167   0.609   9.026  0.5943 -1.1467  2.8399
   57SAPC  H14Y 4271   3.311   0.661   9.124  2.0761  2.8497  0.7406
   57SAPC  C315 4272   3.289   0.723   8.900 -0.9222 -0.5137  0.2378
   57SAPC  H15X 4273   3.239   0.811   8.854 -0.6743 -0.0230  0.9110
   57SAPC  H15Y 4274   3.270   0.640   8.828  0.1120 -0.9384  0.4386
   57SAPC  C316 4275   3.440   0.748   8.897  0.0534 -0.5182 -0.3825
   57SAPC  H16X 4276   3.476   0.757   8.792  0.9175 -1.3718 -0.1620
   57SAPC  H16Y 4277   3.486   0.659   8.946  2.6003 -0.5225 -2.6453
   57SAPC  C317 4278   3.471   0.884   8.977  0.2167 -0.3095  0.1408
   57SAPC  H17X 4279   3.453   0.872   9.086  2.0746  3.3631  0.9414
   57SAPC  H17Y 4280   3.404   0.966   8.943 -0.9230 -1.0950  0.4852
   57SAPC  C318 4281   3.618   0.929   8.980 -0.2021 -0.0699 -0.1704
   57SAPC  H18X 4282   3.636   1.014   9.049  0.0852 -0.4644  0.2430
   57SAPC  H18Y 4283   3.649   0.961   8.878 -0.0652  0.5541  0.0682
   57SAPC  H18Z 4284   3.683   0.840   8.997  0.5138 -0.2347 -3.4878
   58SAPC     N 4285   5.826   5.877  10.998  0.1800  0.5425  0.4539
   58SAPC   C12 4286   5.826   5.867  10.846 -0.0850 -0.3515 -0.0851
   58SAPC  H12A 4287   5.921   5.900  10.807  0.3958 -1.3973  0.1771
   58SAPC  H12B 4288   5.752   5.939  10.813  0.1453  0.3803  0.9592
   58SAPC   C13 4289   5.899   5.763  11.062 -0.3455  0.5855  0.4626
   58SAPC  H13A 4290   6.005   5.765  11.042 -0.2162 -3.0135  0.4240
   58SAPC  H13B 4291   5.871   5.759  11.166 -0.4818  3.0545  0.5308
   58SAPC  H13C 4292   5.857   5.679  11.009 -1.7441  3.6994 -3.5724
   58SAPC   C14 4293   5.881   6.000  11.055  0.1484  0.5035 -0.0507
   58SAPC  H14A 4294   5.813   6.082  11.038 -1.2753 -1.0086 -1.8489
   58SAPC  H14B 4295   5.879   6.004  11.163  4.4590  1.3591  0.0713
   58SAPC  H14C 4296   5.979   6.029  11.019  0.2686  0.5302  0.2916
   58SAPC   C15 4297   5.686   5.876  11.045 -0.3669  0.0860  0.0445
   58SAPC  H15A 4298   5.645   5.781  11.015 -2.8333  1.1872 -0.1643
   58SAPC  H15B 4299   5.681   5.884  11.153 -0.5256  1.4946 -0.0591
   58SAPC  H15C 4300   5.632   5.960  11.003  0.4545  1.4413  1.6216
   58SAPC   C11 4301   5.792   5.729  10.776 -0.2146 -0.3242  0.2028
   58SAPC  H11A 4302   5.875   5.660  10.807 -0.4158 -1.2342 -1.2249
   58SAPC  H11B 4303   5.793   5.744  10.666 -1.1466  0.1218  0.2543
   58SAPC     P 4304   5.536   5.727  10.744 -0.0746 -0.0954  0.5091
   58SAPC   O13 4305   5.420   5.650  10.791 -0.2530 -0.0865  0.0369
   58SAPC   O14 4306   5.523   5.875  10.750 -0.5001  0.0888 -0.5644
   58SAPC   O12 4307   5.668   5.673  10.821  1.0624  0.7883 -0.6943
   58SAPC   O11 4308   5.564   5.667  10.593  0.0649 -0.0304  0.1066
   58SAPC    C1 4309   5.563   5.521  10.583 -0.0081  0.4084 -0.2043
   58SAPC    HA 4310   5.588   5.467  10.677 -0.2345  1.0793  0.2485
   58SAPC    HB 4311   5.463   5.489  10.548  1.0009 -0.9779 -1.8734
   58SAPC    C2 4312   5.674   5.464  10.483 -0.5733  0.3703  0.0131
   58SAPC    HS 4313   5.763   5.510  10.530 -1.6780  1.5229  1.0245
   58SAPC   O21 4314   5.654   5.514  10.347  0.4740  0.1829  0.3759
   58SAPC   C21 4315   5.764   5.541  10.282  0.6905  0.1859  0.5405
   58SAPC   O22 4316   5.871   5.565  10.340  0.2300 -0.6531  0.1835
   58SAPC   C22 4317   5.728   5.560  10.134  0.7016 -0.6251 -0.5226
   58SAPC   H2R 4318   5.648   5.485  10.114 -0.5257 -0.7391  4.2250
   58SAPC   H2S 4319   5.696   5.665  10.119  0.0490 -0.6172  0.8866
   58SAPC    C3 4320   5.678   5.311  10.493 -0.3319 -0.7776 -0.2764
   58SAPC    HX 4321   5.578   5.287  10.451  0.6838  1.9453 -4.5356
   58SAPC    HY 4322   5.693   5.284  10.600 -1.6743 -0.0229  0.1074
   58SAPC   O31 4323   5.781   5.246  10.416  0.2484  0.2714 -0.4409
   58SAPC   C31 4324   5.762   5.120  10.378 -0.3768  0.5615  0.7826
   58SAPC   O32 4325   5.656   5.056  10.376 -0.7894  0.0039  0.3560
   58SAPC   C32 4326   5.903   5.072  10.332  0.0566  1.6514  0.9730
   58SAPC   H2X 4327   5.937   4.999  10.408 -0.1025  0.1738 -0.3562
   58SAPC   H2Y 4328   5.973   5.158  10.341  0.9035  1.1304 -0.5203
   58SAPC   C23 4329   5.850   5.536  10.037  0.7676 -0.5771 -0.4866
   58SAPC   H3R 4330   5.908   5.448  10.073 -0.2396 -0.9364  0.2823
   58SAPC   H3S 4331   5.917   5.620  10.065  0.3246 -0.6989  1.0018
   58SAPC   C24 4332   5.809   5.534   9.894 -0.1352  0.3049 -0.0233
   58SAPC   H4R 4333   5.775   5.638   9.873  0.2505  0.8679  1.9816
   58SAPC   H4S 4334   5.731   5.457   9.879  0.2416  0.1204 -1.0502
   58SAPC   C25 4335   5.930   5.501   9.815  0.3386  0.1066  0.6480
   58SAPC   H5R 4336   6.021   5.476   9.872 -0.0669 -0.6102  0.9843
   58SAPC   C26 4337   5.928   5.486   9.683  0.0806 -0.2344  0.5113
   58SAPC   H6R 4338   6.021   5.467   9.628 -0.1127  0.1465  0.0515
   58SAPC   C27 4339   5.802   5.497   9.593  0.7326  0.4149  0.5178
   58SAPC   H7R 4340   5.714   5.477   9.658 -1.2645 -1.0857 -2.4913
   58SAPC   H7S 4341   5.801   5.403   9.533  1.9241  0.7509 -0.0338
   58SAPC   C28 4342   5.799   5.620   9.505  0.0262  0.0245  0.1813
   58SAPC   H8R 4343   5.765   5.715   9.549  2.9050  1.7067 -1.0384
   58SAPC   C29 4344   5.842   5.629   9.378  0.0353  0.3128 -0.4559
   58SAPC   H9R 4345   5.844   5.726   9.326 -0.9029 -0.5364 -2.1407
   58SAPC  C210 4346   5.899   5.525   9.285 -0.4087 -0.4643  0.2835
   58SAPC  H10R 4347   5.932   5.433   9.338 -1.8169 -0.5739  1.0073
   58SAPC  H10S 4348   5.987   5.564   9.230  1.0002 -2.1608  1.3130
   58SAPC  C211 4349   5.797   5.493   9.181  0.3814  0.1821  0.1117
   58SAPC  H11R 4350   5.743   5.401   9.208  0.9107 -0.5378 -1.2259
   58SAPC  C212 4351   5.775   5.550   9.062  0.0127 -0.1237  0.2369
   58SAPC  H12R 4352   5.693   5.506   9.003 -0.0153 -1.7282  1.4479
   58SAPC  C213 4353   5.858   5.666   9.012  0.8246  0.2817 -0.1977
   58SAPC  H13R 4354   5.903   5.618   8.923 -0.2247 -1.5601  0.2365
   58SAPC  H13S 4355   5.950   5.685   9.071  0.6872 -1.5545  0.6561
   58SAPC  C214 4356   5.778   5.787   8.970 -0.1922 -0.3470 -0.4586
   58SAPC  H14R 4357   5.713   5.837   9.043 -0.7798  1.1192 -1.9470
   58SAPC  C215 4358   5.782   5.844   8.848 -0.2427 -0.1695 -0.3942
   58SAPC  H15R 4359   5.715   5.930   8.831 -0.6604  0.0716  2.2731
   58SAPC  C216 4360   5.859   5.802   8.731  0.3256 -0.4740  0.2246
   58SAPC  H16R 4361   5.800   5.832   8.642  1.5521  1.3081  0.0002
   58SAPC  H16S 4362   5.877   5.692   8.724  0.1760 -0.4499 -0.6499
   58SAPC  C217 4363   5.991   5.871   8.713  0.2875  0.2801  0.5829
   58SAPC  H17R 4364   6.068   5.827   8.779  0.4749  0.1862  0.2986
   58SAPC  H17S 4365   5.985   5.977   8.747 -2.0336  1.4378 -3.1908
   58SAPC  C218 4366   6.046   5.869   8.569 -0.2348  0.1734  0.2374
   58SAPC  H18R 4367   5.972   5.927   8.510 -0.9584 -1.1995 -0.2290
   58SAPC  H18S 4368   6.039   5.760   8.547 -1.4058  1.2373 -5.5568
   58SAPC  C219 4369   6.185   5.931   8.553 -0.1917  0.0741 -0.5383
   58SAPC  H19R 4370   6.265   5.862   8.588 -1.0608 -1.1650 -0.9548
   58SAPC  H19S 4371   6.198   6.014   8.625 -0.2615 -0.0245 -0.4135
   58SAPC  C220 4372   6.208   5.989   8.414  0.2791 -0.1737  0.2606
   58SAPC  H20R 4373   6.119   6.050   8.386  0.9881  0.9244  0.3591
   58SAPC  H20S 4374   6.205   5.914   8.333  1.3523 -0.9682  0.9495
   58SAPC  H20T 4375   6.298   6.054   8.418  0.3103 -0.3481  3.5966
   58SAPC   C33 4376   5.898   5.000  10.189  1.0263 -0.4227 -0.3765
   58SAPC   H3X 4377   5.852   4.899  10.193  2.1533 -0.9822 -1.1688
   58SAPC   H3Y 4378   6.002   4.971  10.162  0.0430 -1.0266 -3.7350
   58SAPC   C34 4379   5.831   5.083  10.072  0.5527 -0.3479  0.2846
   58SAPC   H4X 4380   5.895   5.172  10.056  1.3846 -0.9659  0.1229
   58SAPC   H4Y 4381   5.732   5.117  10.108  0.5194 -1.1277  0.9473
   58SAPC   C35 4382   5.824   4.997   9.950  0.2070 -0.0858 -0.4898
   58SAPC   H5X 4383   5.724   4.953   9.928  0.5717  0.8005 -4.2060
   58SAPC   H5Y 4384   5.902   4.918   9.957  1.1796  0.7450 -1.7652
   58SAPC   C36 4385   5.841   5.080   9.819 -0.6889  0.0330  0.2249
   58SAPC   H6X 4386   5.944   5.122   9.810 -1.1498  0.7612 -1.8627
   58SAPC   H6Y 4387   5.779   5.170   9.835 -0.6119  0.0862  0.2186
   58SAPC   C37 4388   5.800   4.999   9.694  0.3378 -0.3370 -0.2612
   58SAPC   H7X 4389   5.691   4.978   9.698  0.1724  0.1899 -1.6107
   58SAPC   H7Y 4390   5.856   4.903   9.693  0.8307 -0.1059  2.0070
   58SAPC   C38 4391   5.836   5.082   9.567  0.1918 -0.3853  0.4318
   58SAPC   H8X 4392   5.942   5.105   9.592  0.5419 -0.6803 -0.7820
   58SAPC   H8Y 4393   5.775   5.175   9.565  1.1231  0.2038 -1.7817
   58SAPC   C39 4394   5.814   5.005   9.445 -0.6679 -0.4254  0.4022
   58SAPC   H9X 4395   5.707   4.979   9.434 -1.2009  1.9541 -0.3171
   58SAPC   H9Y 4396   5.867   4.911   9.473  0.3347  0.0092 -0.0023
   58SAPC  C310 4397   5.874   5.076   9.323 -0.6981  0.4872  0.4570
   58SAPC  H10X 4398   5.968   5.029   9.288 -0.8737  0.5874 -0.1706
   58SAPC  H10Y 4399   5.914   5.173   9.358  0.7579 -0.2742  0.9449
   58SAPC  C311 4400   5.781   5.069   9.204 -0.6204  0.6953 -0.0788
   58SAPC  H11X 4401   5.688   5.128   9.219 -1.2369 -0.0914 -0.7111
   58SAPC  H11Y 4402   5.759   4.962   9.184  0.9334  0.4291 -0.4555
   58SAPC  C312 4403   5.857   5.118   9.082  0.2565 -0.1699  0.4666
   58SAPC  H12X 4404   5.945   5.051   9.070 -0.5930 -0.9295 -1.8044
   58SAPC  H12Y 4405   5.886   5.226   9.079 -0.3490 -0.0393 -0.8863
   58SAPC  C313 4406   5.780   5.098   8.951  0.7586 -0.2495  0.2271
   58SAPC  H13X 4407   5.692   5.164   8.968  2.0537  1.6150 -0.1747
   58SAPC  H13Y 4408   5.746   4.993   8.962 -1.0036  0.4966  2.1511
   58SAPC  C314 4409   5.851   5.149   8.825  0.2104 -0.3148  0.3422
   58SAPC  H14X 4410   5.959   5.122   8.825  0.5370  0.9250 -0.7477
   58SAPC  H14Y 4411   5.854   5.260   8.822 -1.4766 -0.2776 -0.9812
   58SAPC  C315 4412   5.785   5.102   8.697 -0.1289 -0.0572  0.5331
   58SAPC  H15X 4413   5.684   5.148   8.686 -0.4324 -0.4917  1.4300
   58SAPC  H15Y 4414   5.772   4.991   8.699  0.1517 -0.0909  0.5221
   58SAPC  C316 4415   5.865   5.142   8.570 -0.0391  0.0062  0.3005
   58SAPC  H16X 4416   5.812   5.103   8.481 -0.7059  0.4872  0.4836
   58SAPC  H16Y 4417   5.969   5.104   8.575  0.5737  1.6611  0.5841
   58SAPC  C317 4418   5.875   5.301   8.543 -0.3782 -0.2730  0.0739
   58SAPC  H17X 4419   5.927   5.352   8.627  1.9499  0.0125 -1.4869
   58SAPC  H17Y 4420   5.774   5.347   8.547 -0.7174 -1.0496  0.5341
   58SAPC  C318 4421   5.958   5.343   8.416  0.1149 -0.4095  0.1669
   58SAPC  H18X 4422   5.914   5.286   8.331 -0.5366 -2.0813  1.5856
   58SAPC  H18Y 4423   6.063   5.309   8.425 -0.9810 -5.0252 -2.5068
   58SAPC  H18Z 4424   5.954   5.452   8.397  2.9281 -0.1312  0.9187
   59SAPC     N 4425   0.826   6.719  11.437  0.4141 -0.3365  0.2246
   59SAPC   C12 4426   0.828   6.619  11.325 -0.6799  0.0037  1.1839
   59SAPC  H12A 4427   0.777   6.528  11.355 -2.7282  0.7273  0.0073
   59SAPC  H12B 4428   0.933   6.597  11.310 -0.0970  1.0940  3.3947
   59SAPC   C13 4429   0.896   6.662  11.558 -0.5760  0.5575  0.4597
   59SAPC  H13A 4430   0.846   6.570  11.585 -0.7346  0.8701  1.2226
   59SAPC  H13B 4431   1.001   6.639  11.547 -0.1579  2.7322 -0.1930
   59SAPC  H13C 4432   0.884   6.725  11.644  0.0132 -1.0845  1.7716
   59SAPC   C14 4433   0.892   6.851  11.403 -0.3654 -0.5879  0.0073
   59SAPC  H14A 4434   0.915   6.920  11.483 -1.4292  2.2117 -2.0479
   59SAPC  H14B 4435   0.981   6.825  11.348 -0.6946 -0.5496 -0.5436
   59SAPC  H14C 4436   0.821   6.904  11.342  0.5991  0.3957 -0.2860
   59SAPC   C15 4437   0.681   6.755  11.470 -0.3992  0.1934 -0.4480
   59SAPC  H15A 4438   0.685   6.819  11.556 -1.2759  2.5528 -2.1152
   59SAPC  H15B 4439   0.622   6.804  11.394 -1.5902 -0.2709  0.1768
   59SAPC  H15C 4440   0.633   6.661  11.493  2.0059 -1.3300 -1.3766
   59SAPC   C11 4441   0.761   6.664  11.190 -0.2761 -0.0913  0.3015
   59SAPC  H11A 4442   0.780   6.583  11.116 -2.9413 -1.2675  0.8288
   59SAPC  H11B 4443   0.806   6.760  11.158 -0.3601 -0.2638 -0.3360
   59SAPC     P 4444   0.535   6.785  11.124 -0.0630  0.1139  0.0162
   59SAPC   O13 4445   0.395   6.779  11.167 -0.3487 -0.2079  0.0618
   59SAPC   O14 4446   0.604   6.919  11.131 -0.0392  0.1393 -0.0016
   59SAPC   O12 4447   0.620   6.680  11.207 -0.4788  0.5605 -0.5783
   59SAPC   O11 4448   0.540   6.728  10.979 -0.5230 -0.0055  0.3096
   59SAPC    C1 4449   0.474   6.606  10.939 -0.6019  0.9755 -0.4489
   59SAPC    HA 4450   0.552   6.528  10.930  1.3453  2.6840  1.1329
   59SAPC    HB 4451   0.399   6.573  11.014  2.5461  1.0067  2.8227
   59SAPC    C2 4452   0.419   6.603  10.787  0.1421 -0.0888 -0.3887
   59SAPC    HS 4453   0.407   6.495  10.765 -3.4418  0.5029 -1.6653
   59SAPC   O21 4454   0.511   6.667  10.698 -0.2164  0.0214  0.4953
   59SAPC   C21 4455   0.529   6.618  10.577 -0.1828 -0.0119  0.3701
   59SAPC   O22 4456   0.470   6.528  10.523  0.1038  0.1847 -0.0130
   59SAPC   C22 4457   0.648   6.688  10.508 -0.1761  0.9955 -0.1410
   59SAPC   H2R 4458   0.718   6.732  10.582  0.5873  0.5886 -0.6088
   59SAPC   H2S 4459   0.702   6.607  10.453  0.2781  1.1827  0.0325
   59SAPC    C3 4460   0.281   6.664  10.788  0.0341  0.5346  0.0665
   59SAPC    HX 4461   0.279   6.768  10.826 -2.6921  0.4268  0.3205
   59SAPC    HY 4462   0.224   6.599  10.858  0.7451 -1.3564 -1.0566
   59SAPC   O31 4463   0.220   6.658  10.653  0.2198 -0.1940  0.3038
   59SAPC   C31 4464   0.117   6.572  10.641  0.5022 -0.1990 -0.4114
   59SAPC   O32 4465   0.067   6.504  10.731 -0.2664  0.2758  0.0629
   59SAPC   C32 4466   0.058   6.587  10.499  0.6598  0.4166  0.5426
   59SAPC   H2X 4467  -0.048   6.558  10.516  1.1245  0.3977  3.5728
   59SAPC   H2Y 4468   0.105   6.509  10.435 -1.8980  0.7962 -1.9224
   59SAPC   C23 4469   0.597   6.800  10.417  0.2864 -0.7617  1.1562
   59SAPC   H3R 4470   0.684   6.864  10.391 -0.6801  0.9242  1.9620
   59SAPC   H3S 4471   0.526   6.870  10.467  0.8121  1.4997 -1.1510
   59SAPC   C24 4472   0.540   6.750  10.278  0.4970  0.0305  0.4513
   59SAPC   H4R 4473   0.478   6.662  10.304  0.6766 -0.3751 -0.4831
   59SAPC   H4S 4474   0.623   6.719  10.211 -0.3229  2.4143 -1.7008
   59SAPC   C25 4475   0.447   6.843  10.202 -0.8120 -0.4292 -0.0881
   59SAPC   H5R 4476   0.340   6.851  10.228 -1.1486  0.6187 -1.7427
   59SAPC   C26 4477   0.489   6.901  10.089  0.0064  0.4564  0.1500
   59SAPC   H6R 4478   0.409   6.961  10.044  0.6345  2.1737  1.2761
   59SAPC   C27 4479   0.627   6.906  10.025  0.5813  0.2726  0.2881
   59SAPC   H7R 4480   0.708   6.893  10.099 -0.5317 -0.3735  1.4050
   59SAPC   H7S 4481   0.645   7.005   9.978 -0.0559 -0.0348 -0.6261
   59SAPC   C28 4482   0.648   6.792   9.924 -0.0202 -0.2054 -0.1199
   59SAPC   H8R 4483   0.676   6.696   9.971  1.5855  0.9494  1.3308
   59SAPC   C29 4484   0.666   6.806   9.794  0.0379 -0.1658 -0.1798
   59SAPC   H9R 4485   0.687   6.717   9.733 -0.3263 -0.9545  0.8399
   59SAPC  C210 4486   0.662   6.941   9.719  0.0428  0.1484 -0.0100
   59SAPC  H10R 4487   0.642   7.031   9.782  0.3722  0.9872 -1.0901
   59SAPC  H10S 4488   0.561   6.936   9.674 -0.0918  0.9171  0.1939
   59SAPC  C211 4489   0.764   6.967   9.608 -0.1553  0.5946  0.4586
   59SAPC  H11R 4490   0.841   7.041   9.635  1.9945 -1.3068 -0.3560
   59SAPC  C212 4491   0.760   6.915   9.489  0.6801  0.8766  0.1563
   59SAPC  H12R 4492   0.840   6.927   9.416  1.9472  2.7823  1.7980
   59SAPC  C213 4493   0.661   6.814   9.443 -1.0917  0.1306 -0.2555
   59SAPC  H13R 4494   0.572   6.867   9.403 -1.9616 -0.0242  1.4143
   59SAPC  H13S 4495   0.622   6.749   9.525 -1.2765  0.5791  0.0171
   59SAPC  C214 4496   0.715   6.736   9.327  0.8334 -0.6029 -0.1231
   59SAPC  H14R 4497   0.747   6.631   9.340 -1.9554 -1.5730 -0.7982
   59SAPC  C215 4498   0.723   6.783   9.207  0.1312  0.1444 -0.3213
   59SAPC  H15R 4499   0.767   6.719   9.128 -0.5878 -0.7018 -0.0398
   59SAPC  C216 4500   0.675   6.908   9.152 -0.5633 -0.3116 -0.1708
   59SAPC  H16R 4501   0.594   6.948   9.217  1.3654  0.5346  1.7802
   59SAPC  H16S 4502   0.639   6.903   9.047  0.2810 -0.9462 -0.4400
   59SAPC  C217 4503   0.793   7.003   9.131 -0.2988  0.6034 -0.3555
   59SAPC  H17R 4504   0.882   6.967   9.076  0.7880  2.7253 -0.0388
   59SAPC  H17S 4505   0.831   7.031   9.232  0.1861 -3.1801  0.6015
   59SAPC  C218 4506   0.756   7.130   9.064  0.4406  0.5884  0.2751
   59SAPC  H18R 4507   0.682   7.178   9.133 -1.0969 -1.9701  0.4849
   59SAPC  H18S 4508   0.713   7.110   8.963  1.1534  2.6181 -0.4686
   59SAPC  C219 4509   0.876   7.225   9.036  0.0002 -0.1080  0.5426
   59SAPC  H19R 4510   0.932   7.261   9.125  1.8520  1.8889 -1.3615
   59SAPC  H19S 4511   0.830   7.312   8.985 -0.8465 -1.5339 -1.1674
   59SAPC  C220 4512   0.989   7.164   8.956  0.1333  0.6958  1.0521
   59SAPC  H20R 4513   0.962   7.118   8.859 -0.6926  0.0518  1.5724
   59SAPC  H20S 4514   1.031   7.089   9.026 -2.4410 -0.0262  1.8864
   59SAPC  H20T 4515   1.073   7.235   8.946  0.2677  0.3607 -0.2523
   59SAPC   C33 4516   0.075   6.724  10.423  0.2612 -0.1993 -0.4077
   59SAPC   H3X 4517   0.183   6.746  10.428 -0.2903  2.5098  0.7602
   59SAPC   H3Y 4518   0.020   6.802  10.480 -2.2451 -0.5368 -2.2684
   59SAPC   C34 4519   0.011   6.712  10.287 -0.0420  0.3263  0.2964
   59SAPC   H4X 4520  -0.099   6.713  10.304 -0.3519  2.9785 -1.6135
   59SAPC   H4Y 4521   0.045   6.611  10.259  0.0845  0.5662 -0.4261
   59SAPC   C35 4522   0.047   6.812  10.179  0.6459 -0.2001 -0.8737
   59SAPC   H5X 4523   0.155   6.804  10.157  0.9098  0.8984 -0.0203
   59SAPC   H5Y 4524   0.020   6.912  10.220 -0.9997 -0.9741  0.0000
   59SAPC   C36 4525  -0.012   6.783  10.048 -0.1238 -0.3195 -0.1939
   59SAPC   H6X 4526  -0.059   6.879  10.020 -0.0787 -0.6072 -1.3011
   59SAPC   H6Y 4527  -0.087   6.701  10.047  1.5253 -1.8862  0.1380
   59SAPC   C37 4528   0.099   6.766   9.946  0.3122 -0.2484  0.0599
   59SAPC   H7X 4529   0.142   6.664   9.946  1.7271  0.3343  0.5049
   59SAPC   H7Y 4530   0.179   6.843   9.943  0.4538 -0.3847  0.3580
   59SAPC   C38 4531   0.025   6.776   9.806  0.0739 -0.1922  0.0401
   59SAPC   H8X 4532   0.010   6.885   9.791 -1.9385 -0.4385  0.1886
   59SAPC   H8Y 4533  -0.077   6.733   9.807  0.1100 -0.3027 -0.8925
   59SAPC   C39 4534   0.097   6.715   9.693  0.1938  0.1956  0.3234
   59SAPC   H9X 4535   0.032   6.696   9.605  1.0707 -2.7722  0.2548
   59SAPC   H9Y 4536   0.130   6.613   9.723  1.4946  0.4535 -0.2219
   59SAPC  C310 4537   0.229   6.788   9.657  0.3708 -0.1564  0.1039
   59SAPC  H10X 4538   0.288   6.799   9.751 -0.0969  1.6571  0.1916
   59SAPC  H10Y 4539   0.206   6.890   9.620  1.0579 -0.1068 -0.2062
   59SAPC  C311 4540   0.314   6.734   9.542  0.2555 -0.5035 -0.2458
   59SAPC  H11X 4541   0.315   6.625   9.562  0.7636 -0.5283 -0.3897
   59SAPC  H11Y 4542   0.415   6.780   9.536  0.6639 -1.5748 -1.9571
   59SAPC  C312 4543   0.248   6.758   9.402 -0.4089  0.6127 -1.0142
   59SAPC  H12X 4544   0.229   6.866   9.387  0.0851  0.7717 -0.4738
   59SAPC  H12Y 4545   0.155   6.698   9.388 -0.3578  0.7495 -1.9689
   59SAPC  C313 4546   0.334   6.714   9.284 -0.5794 -0.3662  0.0848
   59SAPC  H13X 4547   0.337   6.603   9.281  2.0432 -0.3608  1.2608
   59SAPC  H13Y 4548   0.439   6.748   9.294 -0.9180  0.1468  2.2784
   59SAPC  C314 4549   0.277   6.764   9.145 -0.0729 -0.2188  0.6617
   59SAPC  H14X 4550   0.290   6.874   9.135 -0.2521 -0.2537  0.0477
   59SAPC  H14Y 4551   0.166   6.769   9.145 -0.2179 -2.4030 -2.5282
   59SAPC  C315 4552   0.323   6.696   9.020 -0.0346 -0.1903  1.6525
   59SAPC  H15X 4553   0.314   6.586   9.033 -0.5204 -0.2953  0.4852
   59SAPC  H15Y 4554   0.429   6.711   8.991 -0.6394 -0.9307 -1.1283
   59SAPC  C316 4555   0.246   6.747   8.905 -0.2646 -0.7691 -0.1903
   59SAPC  H16X 4556   0.247   6.857   8.892 -1.1036 -0.7356  0.0244
   59SAPC  H16Y 4557   0.138   6.723   8.913 -0.5686  0.4813 -0.4235
   59SAPC  C317 4558   0.295   6.682   8.780  0.2048 -1.0597 -0.0418
   59SAPC  H17X 4559   0.263   6.575   8.787  0.4281 -1.0498  1.2101
   59SAPC  H17Y 4560   0.405   6.670   8.773  0.2468 -0.6557 -0.0639
   59SAPC  C318 4561   0.249   6.764   8.666  0.8687 -0.2858  0.5720
   59SAPC  H18X 4562   0.289   6.726   8.569  1.3395 -2.4591  1.5784
   59SAPC  H18Y 4563   0.283   6.870   8.667 -0.1267  0.0617 -0.9633
   59SAPC  H18Z 4564   0.139   6.752   8.661  1.0353 -2.5004  1.5015
   60SAPC     N 4565   2.079   5.291  11.315  0.2312 -0.2046 -0.3454
   60SAPC   C12 4566   2.021   5.416  11.265 -0.0822  0.1431  0.4538
   60SAPC  H12A 4567   2.106   5.474  11.232  1.0947 -2.3207 -0.9671
   60SAPC  H12B 4568   1.986   5.483  11.343 -0.2721  0.5181  0.0542
   60SAPC   C13 4569   1.971   5.212  11.396 -0.3484 -0.4416  0.1233
   60SAPC  H13A 4570   2.018   5.125  11.438 -0.0848 -0.3722 -0.0248
   60SAPC  H13B 4571   1.931   5.267  11.480  0.2898  0.6309 -0.2670
   60SAPC  H13C 4572   1.892   5.182  11.329 -0.9691  0.7835  0.2848
   60SAPC   C14 4573   2.130   5.198  11.207  0.0687  0.2516 -0.2351
   60SAPC  H14A 4574   2.160   5.262  11.125  1.4719  1.8303  1.4493
   60SAPC  H14B 4575   2.215   5.138  11.236 -0.5170 -0.3307  0.2780
   60SAPC  H14C 4576   2.044   5.140  11.178  0.3728  0.6658 -2.0258
   60SAPC   C15 4577   2.192   5.316  11.409 -0.1896 -0.1343 -0.5307
   60SAPC  H15A 4578   2.274   5.369  11.363  1.9881  0.1397  3.4681
   60SAPC  H15B 4579   2.165   5.375  11.495  0.1400  0.3728 -0.7714
   60SAPC  H15C 4580   2.225   5.219  11.443  0.6758  0.0737 -0.7544
   60SAPC   C11 4581   1.930   5.410  11.132  0.0439  0.0556 -0.2567
   60SAPC  H11A 4582   1.899   5.516  11.123 -1.3716 -0.1823  1.4555
   60SAPC  H11B 4583   1.844   5.342  11.153  0.4784  0.2778  2.3912
   60SAPC     P 4584   2.090   5.474  10.941  0.3547  0.1219  0.0754
   60SAPC   O13 4585   2.102   5.596  11.025 -0.0831  0.3622  0.7472
   60SAPC   O14 4586   2.208   5.401  10.898  0.4183  0.2900  0.5280
   60SAPC   O12 4587   1.996   5.366  11.007  0.1239  0.0529 -0.6607
   60SAPC   O11 4588   2.016   5.505  10.800 -0.4493  0.3719 -0.0978
   60SAPC    C1 4589   1.890   5.577  10.801  0.3104  0.2111  0.6798
   60SAPC    HA 4590   1.817   5.515  10.857 -1.0783 -0.2389 -1.5533
   60SAPC    HB 4591   1.898   5.679  10.843  1.5135  1.3249 -2.1071
   60SAPC    C2 4592   1.823   5.585  10.662 -0.5913  0.3299 -0.1442
   60SAPC    HS 4593   1.727   5.641  10.665 -0.5525  0.3372  0.9757
   60SAPC   O21 4594   1.816   5.453  10.606  0.1655  0.1848  0.6393
   60SAPC   C21 4595   1.713   5.383  10.646  0.2060 -0.0490  0.0379
   60SAPC   O22 4596   1.631   5.425  10.727 -0.2455 -0.0459  0.9381
   60SAPC   C22 4597   1.710   5.255  10.570  0.1075  0.3209  0.0780
   60SAPC   H2R 4598   1.799   5.196  10.603  0.0898 -0.1573 -0.7037
   60SAPC   H2S 4599   1.627   5.186  10.596  1.7213 -1.2463  1.2077
   60SAPC    C3 4600   1.923   5.672  10.578 -0.0291 -0.7743  0.3749
   60SAPC    HX 4601   2.027   5.648  10.609  0.3709  0.7981  0.3053
   60SAPC    HY 4602   1.907   5.780  10.601  3.9839 -0.0667  0.2664
   60SAPC   O31 4603   1.892   5.653  10.437 -0.4716  0.0190  0.1238
   60SAPC   C31 4604   1.987   5.592  10.365 -0.5903 -0.6059  0.8672
   60SAPC   O32 4605   2.090   5.536  10.408  0.5109 -0.0006 -0.0270
   60SAPC   C32 4606   1.943   5.579  10.216  0.1988  0.1555 -0.0534
   60SAPC   H2X 4607   1.881   5.668  10.190 -1.1144 -0.5697  0.5183
   60SAPC   H2Y 4608   1.885   5.487  10.190  1.2926 -1.2214  2.2392
   60SAPC   C23 4609   1.740   5.270  10.416 -0.1819 -1.0980  0.0488
   60SAPC   H3R 4610   1.780   5.168  10.396 -0.5421 -0.7746 -2.3980
   60SAPC   H3S 4611   1.827   5.336  10.396 -1.4837  0.3923 -0.7761
   60SAPC   C24 4612   1.627   5.293  10.320 -0.6095  0.8618 -0.7360
   60SAPC   H4R 4613   1.673   5.284  10.220 -0.1731 -0.0240 -0.4654
   60SAPC   H4S 4614   1.578   5.391  10.338 -0.0531  1.3207 -1.6992
   60SAPC   C25 4615   1.517   5.190  10.331 -0.9259 -0.4078 -0.6836
   60SAPC   H5R 4616   1.431   5.239  10.378  0.6583 -1.5326  3.5802
   60SAPC   C26 4617   1.520   5.063  10.286  0.3960 -0.6017  0.2803
   60SAPC   H6R 4618   1.428   5.004  10.300  0.8770 -2.0139 -2.2346
   60SAPC   C27 4619   1.633   4.985  10.225  0.3565  0.6137  0.3882
   60SAPC   H7R 4620   1.659   4.909  10.301 -0.2605 -0.3913 -0.3943
   60SAPC   H7S 4621   1.721   5.050  10.207 -0.2409  0.7409 -2.2966
   60SAPC   C28 4622   1.575   4.929  10.104 -0.0961 -0.3283 -1.0499
   60SAPC   H8R 4623   1.521   4.836  10.125  1.0427 -1.1263 -1.6172
   60SAPC   C29 4624   1.576   4.991   9.984  0.3122  0.0315  0.8950
   60SAPC   H9R 4625   1.548   4.929   9.898  0.3680 -0.2409  1.0728
   60SAPC  C210 4626   1.639   5.123   9.954  0.1967 -0.3477  0.3724
   60SAPC  H10R 4627   1.647   5.188  10.044 -0.7995  1.5042 -0.8481
   60SAPC  H10S 4628   1.575   5.183   9.886  0.2570  1.3952  1.8112
   60SAPC  C211 4629   1.779   5.096   9.896  0.4014  0.2503  0.3678
   60SAPC  H11R 4630   1.853   5.059   9.968  0.0294  1.1065  1.1999
   60SAPC  C212 4631   1.825   5.132   9.773  0.5544 -0.9642 -0.0015
   60SAPC  H12R 4632   1.927   5.104   9.742  0.9646 -0.1111  0.5510
   60SAPC  C213 4633   1.745   5.193   9.660  0.4759 -0.1059 -0.1813
   60SAPC  H13R 4634   1.683   5.280   9.688  1.1385  1.4054 -3.2173
   60SAPC  H13S 4635   1.665   5.118   9.641 -2.1888  2.4678  0.6849
   60SAPC  C214 4636   1.824   5.216   9.530  0.8377 -0.1145  0.5960
   60SAPC  H14R 4637   1.926   5.259   9.535 -0.1975  2.9725 -2.3973
   60SAPC  C215 4638   1.779   5.204   9.407  0.4202 -0.1850 -0.1363
   60SAPC  H15R 4639   1.843   5.225   9.320 -1.1492 -0.2643 -1.3311
   60SAPC  C216 4640   1.647   5.146   9.380  0.2275 -0.2097  0.8162
   60SAPC  H16R 4641   1.576   5.168   9.463  0.4983  0.0212  0.9890
   60SAPC  H16S 4642   1.656   5.037   9.365  3.8822  0.0678  0.6396
   60SAPC  C217 4643   1.574   5.201   9.260  0.4705 -0.1013  0.2755
   60SAPC  H17R 4644   1.552   5.309   9.270 -1.9707 -0.7042  1.9644
   60SAPC  H17S 4645   1.473   5.154   9.268 -0.4501  2.1629  2.6704
   60SAPC  C218 4646   1.628   5.167   9.122  0.4675  0.3651  0.3125
   60SAPC  H18R 4647   1.632   5.057   9.114  1.1303  0.5374 -2.2297
   60SAPC  H18S 4648   1.731   5.207   9.128 -0.2278  2.0645  1.4370
   60SAPC  C219 4649   1.552   5.214   8.997 -0.1812  0.4905  0.1920
   60SAPC  H19R 4650   1.546   5.325   8.996 -0.1432  0.4972 -1.8539
   60SAPC  H19S 4651   1.450   5.172   8.994 -1.0778  2.6214  0.1807
   60SAPC  C220 4652   1.624   5.168   8.876  0.2975 -0.2036  0.0722
   60SAPC  H20R 4653   1.557   5.176   8.788 -1.4364 -2.1641  1.1690
   60SAPC  H20S 4654   1.672   5.068   8.890 -0.8963 -0.9517 -1.0332
   60SAPC  H20T 4655   1.712   5.236   8.866  0.0602 -0.0004 -0.6503
   60SAPC   C33 4656   2.067   5.588  10.125 -1.0115  0.1192 -0.1147
   60SAPC   H3X 4657   2.144   5.516  10.160 -0.3111  0.9973  0.1468
   60SAPC   H3Y 4658   2.103   5.693  10.127  3.7437 -1.4345  1.1222
   60SAPC   C34 4659   2.045   5.545   9.978 -1.2713  0.3759 -0.2198
   60SAPC   H4X 4660   1.950   5.578   9.930 -1.8459 -1.2962 -0.2418
   60SAPC   H4Y 4661   2.039   5.435   9.983  2.3064  0.1645  0.3641
   60SAPC   C35 4662   2.156   5.579   9.873 -0.4186 -0.0374  0.3034
   60SAPC   H5X 4663   2.245   5.528   9.916  0.2195 -0.3440 -1.3301
   60SAPC   H5Y 4664   2.177   5.688   9.876  3.7723 -0.6473 -2.2383
   60SAPC   C36 4665   2.141   5.519   9.740  0.2294  0.1517  0.2696
   60SAPC   H6X 4666   2.095   5.418   9.744  1.5337 -0.5190 -1.0831
   60SAPC   H6Y 4667   2.243   5.501   9.700  0.5874  1.0804  0.7408
   60SAPC   C37 4668   2.063   5.610   9.647 -0.4119  0.4913  0.6445
   60SAPC   H7X 4669   2.116   5.706   9.629 -0.2485  0.6587  1.9818
   60SAPC   H7Y 4670   1.965   5.614   9.698  0.5237 -0.6818  2.5738
   60SAPC   C38 4671   2.042   5.553   9.502  0.1234 -0.0371 -0.0640
   60SAPC   H8X 4672   1.978   5.465   9.526  0.4826 -1.0360 -2.5737
   60SAPC   H8Y 4673   2.138   5.514   9.463 -0.4573 -4.2059  2.4038
   60SAPC   C39 4674   1.972   5.652   9.406  0.2752 -0.1479  0.1869
   60SAPC   H9X 4675   2.049   5.718   9.359  0.6612  0.5002  1.7080
   60SAPC   H9Y 4676   1.924   5.729   9.471  0.3939  1.0807 -1.1471
   60SAPC  C310 4677   1.883   5.586   9.297  0.5741  0.1711 -0.3309
   60SAPC  H10X 4678   1.798   5.533   9.346 -0.3269 -0.7329 -2.7636
   60SAPC  H10Y 4679   1.939   5.499   9.255  0.4374 -0.5976  1.0465
   60SAPC  C311 4680   1.848   5.676   9.184  0.3164  0.0009  0.0047
   60SAPC  H11X 4681   1.941   5.709   9.133  0.9690 -1.2648  0.3434
   60SAPC  H11Y 4682   1.794   5.763   9.226 -0.0556 -0.5457  0.6568
   60SAPC  C312 4683   1.748   5.600   9.088 -0.1729  0.2158 -0.1519
   60SAPC  H12X 4684   1.654   5.583   9.146  0.5414  0.7497  1.1889
   60SAPC  H12Y 4685   1.788   5.498   9.072  2.0995  1.2585 -1.3346
   60SAPC  C313 4686   1.716   5.673   8.948 -0.5490 -0.7623  0.7498
   60SAPC  H13X 4687   1.809   5.699   8.893 -0.8704 -0.9440  0.1261
   60SAPC  H13Y 4688   1.678   5.770   8.986 -1.3087 -1.3169  1.4463
   60SAPC  C314 4689   1.612   5.614   8.860  0.6758 -0.6360  0.4748
   60SAPC  H14X 4690   1.518   5.603   8.917  1.0096 -1.6058  0.8458
   60SAPC  H14Y 4691   1.648   5.510   8.845  0.4016 -0.6446 -0.1534
   60SAPC  C315 4692   1.592   5.696   8.731  0.2504  0.9296  0.1727
   60SAPC  H15X 4693   1.687   5.719   8.678 -1.0983  2.6232 -1.5647
   60SAPC  H15Y 4694   1.541   5.792   8.756 -1.0888  0.4980 -0.8918
   60SAPC  C316 4695   1.496   5.634   8.627 -0.0579  0.3845  0.1462
   60SAPC  H16X 4696   1.420   5.590   8.696  1.7871 -0.4592  1.6870
   60SAPC  H16Y 4697   1.551   5.559   8.567 -0.2058  0.8997 -0.6346
   60SAPC  C317 4698   1.431   5.733   8.534 -0.0716  0.1365  0.4997
   60SAPC  H17X 4699   1.342   5.770   8.589 -0.9822  0.2276 -0.9789
   60SAPC  H17Y 4700   1.395   5.675   8.446  1.1699  0.1594 -0.0267
   60SAPC  C318 4701   1.515   5.846   8.475 -0.6588  0.1109 -0.0675
   60SAPC  H18X 4702   1.591   5.804   8.405 -1.6087 -0.4426 -0.7727
   60SAPC  H18Y 4703   1.586   5.895   8.545 -2.3492 -0.4690  2.1069
   60SAPC  H18Z 4704   1.454   5.923   8.424  3.2833  2.6888 -1.1076
   61SAPC     N 4705   4.106   3.421  10.954  0.1205 -0.0934  0.1568
   61SAPC   C12 4706   3.948   3.446  10.953 -0.8086 -0.0418  0.6026
   61SAPC  H12A 4707   3.922   3.523  11.024 -2.2243  1.2108 -1.2062
   61SAPC  H12B 4708   3.907   3.350  10.982  0.7703 -0.9445 -0.1041
   61SAPC   C13 4709   4.137   3.360  10.819 -0.1945 -0.4000 -0.3151
   61SAPC  H13A 4710   4.236   3.319  10.810 -0.1214 -0.0515 -1.2237
   61SAPC  H13B 4711   4.067   3.279  10.801 -0.7375  0.0388 -0.2012
   61SAPC  H13C 4712   4.115   3.433  10.742 -0.3566 -0.5858 -0.4458
   61SAPC   C14 4713   4.167   3.554  10.965  0.2096 -0.4655  0.4250
   61SAPC  H14A 4714   4.119   3.608  10.885  2.6317 -0.4875 -1.0728
   61SAPC  H14B 4715   4.152   3.602  11.061 -0.0389 -1.6539  0.9959
   61SAPC  H14C 4716   4.273   3.549  10.950  0.2959  0.6565  0.5887
   61SAPC   C15 4717   4.142   3.322  11.061  0.5126  0.3691 -0.2695
   61SAPC  H15A 4718   4.108   3.221  11.041  2.3910 -0.9012  2.5930
   61SAPC  H15B 4719   4.249   3.306  11.062  0.3443 -0.7758  0.1806
   61SAPC  H15C 4720   4.122   3.350  11.164 -0.1231 -2.6474  0.4899
   61SAPC   C11 4721   3.883   3.503  10.813  0.3272  0.4810  0.4422
   61SAPC  H11A 4722   3.774   3.489  10.826  0.6836 -1.1953  1.8930
   61SAPC  H11B 4723   3.916   3.429  10.737 -1.8215  0.1973 -0.2510
   61SAPC     P 4724   3.855   3.757  10.859 -0.3254 -0.3205 -0.6178
   61SAPC   O13 4725   3.894   3.747  11.004  0.7662  0.6584 -0.2446
   61SAPC   O14 4726   3.892   3.891  10.802 -0.4712  0.2060  0.1952
   61SAPC   O12 4727   3.922   3.641  10.779 -0.4085 -0.2857  0.0932
   61SAPC   O11 4728   3.699   3.734  10.828  0.6765 -0.0108 -0.3071
   61SAPC    C1 4729   3.642   3.693  10.710 -0.2507  0.3997 -0.3875
   61SAPC    HA 4730   3.721   3.632  10.660  1.3781  2.5814 -0.5162
   61SAPC    HB 4731   3.546   3.640  10.729  1.2159 -2.4345 -0.6556
   61SAPC    C2 4732   3.604   3.809  10.614 -0.2174 -0.3387 -0.6683
   61SAPC    HS 4733   3.553   3.766  10.526  1.0281 -0.3019 -1.4247
   61SAPC   O21 4734   3.717   3.884  10.568  0.1782 -0.1110  0.4703
   61SAPC   C21 4735   3.805   3.826  10.491  0.3133  0.3884  0.3124
   61SAPC   O22 4736   3.806   3.707  10.457  0.0246  0.5702 -0.2108
   61SAPC   C22 4737   3.903   3.930  10.441 -0.0026 -0.1659 -0.4291
   61SAPC   H2R 4738   3.839   4.013  10.403 -2.1313 -1.6394 -0.1209
   61SAPC   H2S 4739   3.968   3.963  10.524  0.1396  0.2314 -0.6931
   61SAPC    C3 4740   3.498   3.900  10.686 -0.2814 -0.1793  0.2226
   61SAPC    HX 4741   3.558   3.965  10.754 -0.0807 -0.7513  0.6055
   61SAPC    HY 4742   3.440   3.838  10.758 -2.4707  0.7815 -0.6900
   61SAPC   O31 4743   3.421   3.980  10.602 -0.3572  0.1855 -0.6525
   61SAPC   C31 4744   3.303   3.925  10.556 -0.3656 -0.1300  0.0595
   61SAPC   O32 4745   3.279   3.807  10.577  0.3016 -0.5685 -0.3801
   61SAPC   C32 4746   3.218   4.027  10.475 -0.1334  0.2656 -0.2736
   61SAPC   H2X 4747   3.203   4.111  10.545  0.5652  0.1860 -0.0233
   61SAPC   H2Y 4748   3.122   3.973  10.463  1.3059 -1.9888 -2.3099
   61SAPC   C23 4749   3.987   3.890  10.315 -0.2257 -0.2454 -0.4818
   61SAPC   H3R 4750   4.020   3.783  10.314  2.3398  0.5104  0.0201
   61SAPC   H3S 4751   4.080   3.948  10.330 -1.3439  1.3520  0.4053
   61SAPC   C24 4752   3.943   3.938  10.175 -0.2144  0.3983  0.1017
   61SAPC   H4R 4753   4.024   3.940  10.100 -1.3557 -0.6373 -1.1877
   61SAPC   H4S 4754   3.907   4.043  10.188 -0.2518  0.4772 -0.6170
   61SAPC   C25 4755   3.822   3.860  10.128  0.1840  0.5089 -1.0145
   61SAPC   H5R 4756   3.764   3.818  10.212  0.7137  0.4342 -0.6809
   61SAPC   C26 4757   3.777   3.827  10.004  0.6912 -0.0607 -0.5073
   61SAPC   H6R 4758   3.681   3.772   9.998 -0.4559  2.0193 -1.8403
   61SAPC   C27 4759   3.824   3.849   9.864  0.1753 -0.1828  0.1355
   61SAPC   H7R 4760   3.732   3.850   9.802  0.0311 -1.3710  0.3217
   61SAPC   H7S 4761   3.879   3.759   9.829 -2.6899 -2.2745  0.7687
   61SAPC   C28 4762   3.904   3.971   9.825  0.3033  0.1576  0.4782
   61SAPC   H8R 4763   3.973   4.016   9.898  0.6833 -1.7179  1.3053
   61SAPC   C29 4764   3.922   4.017   9.696 -0.3528  0.8394 -1.0788
   61SAPC   H9R 4765   3.986   4.103   9.670 -2.3715  2.4446 -0.8376
   61SAPC  C210 4766   3.862   3.948   9.576 -0.0156  0.1694  0.3360
   61SAPC  H10R 4767   3.778   4.013   9.542  1.2104  0.7158 -1.7219
   61SAPC  H10S 4768   3.811   3.852   9.600  1.1129 -0.8210 -1.2013
   61SAPC  C211 4769   3.971   3.930   9.467 -0.1362 -0.7181 -0.0948
   61SAPC  H11R 4770   4.073   3.908   9.502 -0.4499 -0.1471  1.2023
   61SAPC  C212 4771   3.960   3.960   9.337  0.2769 -0.1188  0.0784
   61SAPC  H12R 4772   4.044   3.949   9.267 -0.4362  0.2860 -0.8573
   61SAPC  C213 4773   3.833   4.001   9.267 -0.3003 -0.2433  0.5935
   61SAPC  H13R 4774   3.870   4.045   9.172 -0.4626 -0.2636  0.5223
   61SAPC  H13S 4775   3.784   4.088   9.317 -3.5616 -2.2636  1.0413
   61SAPC  C214 4776   3.747   3.886   9.239 -0.0430  0.5588 -0.1106
   61SAPC  H14R 4777   3.712   3.840   9.333 -0.9349 -0.1710 -0.7889
   61SAPC  C215 4778   3.702   3.842   9.121  0.3004  0.1658 -0.2483
   61SAPC  H15R 4779   3.634   3.756   9.126 -0.2955  0.5778 -1.2024
   61SAPC  C216 4780   3.739   3.900   8.984  0.1709  0.1697  0.1250
   61SAPC  H16R 4781   3.780   4.003   8.983  2.0581 -0.5691 -0.9617
   61SAPC  H16S 4782   3.649   3.909   8.919  0.6121  0.4200 -0.4518
   61SAPC  C217 4783   3.851   3.819   8.905  0.2345  0.5039 -0.5983
   61SAPC  H17R 4784   3.829   3.710   8.903  2.8331 -0.0522 -0.3398
   61SAPC  H17S 4785   3.945   3.836   8.962 -0.9552  0.7979  1.3118
   61SAPC  C218 4786   3.879   3.872   8.759 -0.7668 -0.2530 -0.7824
   61SAPC  H18R 4787   3.918   3.975   8.776  1.1773 -1.5009  2.8099
   61SAPC  H18S 4788   3.781   3.874   8.709 -0.3562  0.6979 -1.5642
   61SAPC  C219 4789   3.972   3.786   8.678  0.8548  0.1785  0.3523
   61SAPC  H19R 4790   3.943   3.679   8.690  0.5818  0.2466  0.2997
   61SAPC  H19S 4791   4.079   3.793   8.706  1.4119 -0.2832 -1.6093
   61SAPC  C220 4792   3.952   3.829   8.529  0.1302 -0.4809  0.2672
   61SAPC  H20R 4793   4.012   3.771   8.455  1.3323  1.0610  0.0054
   61SAPC  H20S 4794   3.976   3.936   8.515  0.8593 -0.7232 -0.3700
   61SAPC  H20T 4795   3.849   3.817   8.490  0.4731  0.6184 -1.0154
   61SAPC   C33 4796   3.285   4.078  10.354  0.4857 -0.0196 -0.0295
   61SAPC   H3X 4797   3.387   4.112  10.384 -0.2180  2.0768  0.0664
   61SAPC   H3Y 4798   3.243   4.171  10.311  1.2612  0.6860  0.7068
   61SAPC   C34 4799   3.314   3.975  10.245  0.0207  0.3788 -0.0743
   61SAPC   H4X 4800   3.213   3.929  10.234 -0.6488  1.7611  0.2143
   61SAPC   H4Y 4801   3.383   3.893  10.276  0.4267  1.3535  1.7055
   61SAPC   C35 4802   3.358   4.033  10.112 -0.3611 -0.0753 -0.5045
   61SAPC   H5X 4803   3.450   4.096  10.123 -0.1936 -0.5982  1.0657
   61SAPC   H5Y 4804   3.280   4.105  10.080  0.0279 -0.0081 -1.3265
   61SAPC   C36 4805   3.396   3.928   9.998 -0.5267  0.5313 -0.3057
   61SAPC   H6X 4806   3.329   3.840  10.003 -0.3994  0.4869  0.8732
   61SAPC   H6Y 4807   3.502   3.901  10.015 -0.9616 -1.3299 -0.4983
   61SAPC   C37 4808   3.372   3.985   9.856 -0.0052 -0.1464  0.1059
   61SAPC   H7X 4809   3.438   4.072   9.835  0.9162 -0.4722  1.5518
   61SAPC   H7Y 4810   3.268   4.023   9.849 -0.2589 -1.1560 -2.0462
   61SAPC   C38 4811   3.384   3.880   9.748  0.1463  0.2527 -0.9775
   61SAPC   H8X 4812   3.303   3.804   9.759 -0.0003  0.8465  3.0885
   61SAPC   H8Y 4813   3.467   3.819   9.790 -0.0419  0.4112 -0.3692
   61SAPC   C39 4814   3.415   3.934   9.617  0.2264  0.5973  0.2933
   61SAPC   H9X 4815   3.447   3.843   9.562 -1.6524  0.4754 -0.6565
   61SAPC   H9Y 4816   3.494   4.011   9.604  1.2380 -0.8579 -2.7317
   61SAPC  C310 4817   3.292   3.996   9.546 -0.0190  0.0624  1.0653
   61SAPC  H10X 4818   3.266   4.089   9.600  2.7231  1.7638 -0.4342
   61SAPC  H10Y 4819   3.204   3.931   9.531 -0.6666  1.1640  0.0382
   61SAPC  C311 4820   3.329   4.051   9.408 -0.2590  0.8352 -0.0749
   61SAPC  H11X 4821   3.436   4.080   9.399  0.4264 -2.0928 -2.2809
   61SAPC  H11Y 4822   3.292   4.154   9.385 -0.2841  0.5575 -1.3201
   61SAPC  C312 4823   3.281   3.960   9.293  0.2726 -0.1397  0.4329
   61SAPC  H12X 4824   3.170   3.955   9.291  0.2167  0.7680  1.0397
   61SAPC  H12Y 4825   3.315   3.856   9.311 -1.5319 -0.7565  0.3924
   61SAPC  C313 4826   3.336   4.022   9.162 -0.0078  0.4014 -0.3065
   61SAPC  H13X 4827   3.438   4.065   9.174  0.5633 -0.6752 -1.2620
   61SAPC  H13Y 4828   3.275   4.111   9.137  0.0123  0.4166 -0.3028
   61SAPC  C314 4829   3.311   3.926   9.040 -0.1543 -0.3249  0.1945
   61SAPC  H14X 4830   3.203   3.899   9.035  0.1061 -1.1421 -1.1793
   61SAPC  H14Y 4831   3.375   3.835   9.038 -0.6787 -0.6905 -0.4794
   61SAPC  C315 4832   3.335   4.007   8.912 -0.1241 -0.1243 -0.3952
   61SAPC  H15X 4833   3.444   4.019   8.889  0.1430 -0.9913  0.4203
   61SAPC  H15Y 4834   3.285   4.107   8.916 -0.1882 -0.1916  0.5860
   61SAPC  C316 4835   3.305   3.923   8.788  0.3765  0.3434 -0.3371
   61SAPC  H16X 4836   3.199   3.890   8.793  0.4785  0.1302  0.5065
   61SAPC  H16Y 4837   3.365   3.830   8.777  0.7114  0.5963 -0.6743
   61SAPC  C317 4838   3.325   4.000   8.653 -0.0667  0.0269  0.3833
   61SAPC  H17X 4839   3.299   3.939   8.564  1.5040  1.0768 -0.8231
   61SAPC  H17Y 4840   3.435   4.010   8.649 -0.1153  2.1913  3.0228
   61SAPC  C318 4841   3.264   4.136   8.645  0.5701  0.4358  0.0012
   61SAPC  H18X 4842   3.154   4.118   8.653  0.4455  1.6077  1.2387
   61SAPC  H18Y 4843   3.289   4.186   8.549 -2.3721  0.4505 -0.8092
   61SAPC  H18Z 4844   3.298   4.204   8.727  1.2661  0.7754 -0.5603
   62SAPC     N 4845   2.543   3.615  10.766 -0.5117  0.5837 -0.4313
   62SAPC   C12 4846   2.596   3.576  10.632  0.1059 -0.3498 -0.1251
   62SAPC  H12A 4847   2.669   3.496  10.640  0.1779 -0.3083 -0.3586
   62SAPC  H12B 4848   2.658   3.656  10.592 -1.8668  1.4915  0.4076
   62SAPC   C13 4849   2.471   3.503  10.844  0.0550 -0.1263 -0.5617
   62SAPC  H13A 4850   2.542   3.423  10.861 -0.5779 -0.8307 -1.1882
   62SAPC  H13B 4851   2.432   3.537  10.938 -1.6446 -0.1344 -1.2549
   62SAPC  H13C 4852   2.398   3.465  10.774  0.3074 -0.8459 -0.4421
   62SAPC   C14 4853   2.663   3.662  10.852 -0.5551 -0.1200 -0.3889
   62SAPC  H14A 4854   2.717   3.737  10.795 -1.3351  0.8316  0.1036
   62SAPC  H14B 4855   2.619   3.704  10.941 -1.2539 -2.0213  0.1812
   62SAPC  H14C 4856   2.734   3.583  10.871 -0.8770 -0.2396  0.3186
   62SAPC   C15 4857   2.439   3.723  10.757  0.7575 -0.6746 -0.3012
   62SAPC  H15A 4858   2.347   3.694  10.709  0.2743  0.3800 -0.0210
   62SAPC  H15B 4859   2.428   3.752  10.860 -3.0201 -0.4164 -0.7364
   62SAPC  H15C 4860   2.477   3.806  10.700  0.1195 -0.9236 -1.0872
   62SAPC   C11 4861   2.505   3.569  10.509 -0.0706  0.1686  0.1382
   62SAPC  H11A 4862   2.561   3.565  10.413  0.2246  0.1413  0.3088
   62SAPC  H11B 4863   2.449   3.664  10.503 -0.8227 -0.4285 -3.2297
   62SAPC     P 4864   2.460   3.316  10.523 -0.3663  0.3200 -0.2158
   62SAPC   O13 4865   2.608   3.298  10.550  0.2188  0.2698  0.1183
   62SAPC   O14 4866   2.374   3.236  10.619  0.5442 -0.4451  0.3126
   62SAPC   O12 4867   2.416   3.465  10.522 -0.6363 -0.1207 -0.2914
   62SAPC   O11 4868   2.422   3.260  10.370  0.1727 -0.3605 -0.0895
   62SAPC    C1 4869   2.520   3.166  10.316 -0.0638 -0.1087 -0.4463
   62SAPC    HA 4870   2.625   3.195  10.340  0.0045 -0.2851 -0.5304
   62SAPC    HB 4871   2.499   3.061  10.344 -0.6644 -0.2853 -1.5592
   62SAPC    C2 4872   2.501   3.161  10.171 -0.2602  0.2504  0.4149
   62SAPC    HS 4873   2.584   3.100  10.129 -0.8451  0.5911 -1.2820
   62SAPC   O21 4874   2.511   3.291  10.113 -0.3222  0.0570  0.4971
   62SAPC   C21 4875   2.630   3.340  10.105 -0.7753  0.5087  0.0835
   62SAPC   O22 4876   2.736   3.289  10.138 -0.2963  0.1071  0.2039
   62SAPC   C22 4877   2.627   3.469  10.022  0.7516  0.3085 -0.5113
   62SAPC   H2R 4878   2.719   3.471   9.960  1.1586  2.2622  0.1344
   62SAPC   H2S 4879   2.537   3.482   9.957  0.1152  1.7992  0.6535
   62SAPC    C3 4880   2.372   3.096  10.120 -0.1804  0.3438  0.2537
   62SAPC    HX 4881   2.281   3.145  10.162 -1.1005 -0.8680 -0.3064
   62SAPC    HY 4882   2.363   2.994  10.163  1.9547  0.4878  1.1154
   62SAPC   O31 4883   2.362   3.093   9.978 -0.1778  0.3233 -0.0976
   62SAPC   C31 4884   2.413   2.977   9.921 -0.3705  0.5672  0.4961
   62SAPC   O32 4885   2.470   2.889   9.983 -0.2363  0.2012 -0.2152
   62SAPC   C32 4886   2.387   2.989   9.771  0.0571  0.2875 -0.0483
   62SAPC   H2X 4887   2.320   3.074   9.746 -1.6347 -1.5697 -2.0807
   62SAPC   H2Y 4888   2.349   2.897   9.723  1.1752 -0.6674  0.8741
   62SAPC   C23 4889   2.628   3.595  10.120  0.4237 -0.7272  0.2098
   62SAPC   H3R 4890   2.735   3.604  10.146 -0.1986  0.5316  2.4923
   62SAPC   H3S 4891   2.557   3.592  10.205  0.1922  1.8667  0.1678
   62SAPC   C24 4892   2.585   3.725  10.056  0.2776 -0.5532  1.1746
   62SAPC   H4R 4893   2.668   3.748   9.986 -0.9581 -0.7069 -0.3627
   62SAPC   H4S 4894   2.592   3.792  10.145  1.2663 -0.1859  0.8251
   62SAPC   C25 4895   2.446   3.731   9.992  0.7952 -0.1889  0.5663
   62SAPC   H5R 4896   2.365   3.671  10.035 -0.3431 -0.5148 -1.9271
   62SAPC   C26 4897   2.415   3.798   9.881 -0.1067  0.2621 -0.2015
   62SAPC   H6R 4898   2.310   3.802   9.846  0.1157  1.2485 -0.7839
   62SAPC   C27 4899   2.510   3.875   9.797 -0.6758 -0.2882  0.6668
   62SAPC   H7R 4900   2.464   3.873   9.696 -0.3866  2.5557  0.4313
   62SAPC   H7S 4901   2.603   3.817   9.779 -0.4509  0.1054  0.5520
   62SAPC   C28 4902   2.548   4.018   9.838  1.0538 -0.0913  0.2370
   62SAPC   H8R 4903   2.512   4.040   9.939  1.2706  0.9848  0.0857
   62SAPC   C29 4904   2.610   4.110   9.766 -0.5568  0.6902  0.7445
   62SAPC   H9R 4905   2.615   4.209   9.816 -1.2368  0.6565  0.8817
   62SAPC  C210 4906   2.659   4.090   9.626  0.5076 -0.2228 -0.5451
   62SAPC  H10R 4907   2.685   4.185   9.575  0.8028 -0.6238 -1.1400
   62SAPC  H10S 4908   2.583   4.034   9.568  1.3291 -1.1438 -0.7360
   62SAPC  C211 4909   2.786   4.007   9.621 -0.1484 -0.6378 -0.4510
   62SAPC  H11R 4910   2.819   3.961   9.716 -2.7089 -0.4825  0.5335
   62SAPC  C212 4911   2.864   3.996   9.510 -0.1936 -0.0492  0.3813
   62SAPC  H12R 4912   2.951   3.928   9.504  0.4237  0.7757 -0.1372
   62SAPC  C213 4913   2.829   4.051   9.373 -0.3992 -0.9551 -0.6380
   62SAPC  H13R 4914   2.725   4.088   9.364 -0.0171  0.0540 -0.9357
   62SAPC  H13S 4915   2.830   3.971   9.296 -0.0525 -0.5743 -1.0283
   62SAPC  C214 4916   2.918   4.164   9.326 -0.0875 -0.3828  0.0710
   62SAPC  H14R 4917   2.938   4.238   9.404 -1.1783 -0.6974  0.6679
   62SAPC  C215 4918   2.966   4.182   9.197 -0.1006  0.1895  0.1385
   62SAPC  H15R 4919   3.045   4.258   9.182 -1.4488  0.9759 -3.3434
   62SAPC  C216 4920   2.944   4.087   9.083  0.4761  0.1958  0.2794
   62SAPC  H16R 4921   2.879   4.002   9.112  0.3378 -0.3248 -1.5527
   62SAPC  H16S 4922   3.039   4.035   9.058  0.6212  0.2186  0.7727
   62SAPC  C217 4923   2.883   4.154   8.957  0.4828 -0.2720 -0.2762
   62SAPC  H17R 4924   2.777   4.183   8.970  0.9524  1.2582  0.1888
   62SAPC  H17S 4925   2.893   4.077   8.878  0.4210  1.2608 -1.7978
   62SAPC  C218 4926   2.960   4.290   8.926 -0.1722  0.2876 -1.1406
   62SAPC  H18R 4927   3.067   4.262   8.914 -0.4240 -0.6307 -1.2888
   62SAPC  H18S 4928   2.959   4.362   9.011  0.6304  0.4491 -1.2640
   62SAPC  C219 4929   2.901   4.361   8.809 -0.3929 -0.2615 -0.4959
   62SAPC  H19R 4930   2.928   4.469   8.803  1.0733 -0.6019 -0.1367
   62SAPC  H19S 4931   2.791   4.361   8.824 -0.7726  1.1664 -2.9430
   62SAPC  C220 4932   2.934   4.306   8.667  0.0442 -0.1447  0.0786
   62SAPC  H20R 4933   3.038   4.331   8.638 -0.4124 -0.6226 -2.0678
   62SAPC  H20S 4934   2.863   4.352   8.595  0.8467  0.7665 -0.1364
   62SAPC  H20T 4935   2.927   4.196   8.648  1.9411 -0.3002  0.2430
   62SAPC   C33 4936   2.516   3.009   9.689 -0.4669  0.7666 -0.8703
   62SAPC   H3X 4937   2.496   3.004   9.579 -1.8179  1.7255 -0.6809
   62SAPC   H3Y 4938   2.588   2.934   9.727  0.5099  1.7136 -0.8212
   62SAPC   C34 4939   2.576   3.152   9.700 -0.3577 -0.2176  0.0609
   62SAPC   H4X 4940   2.613   3.163   9.804  1.2793  0.0397 -0.5405
   62SAPC   H4Y 4941   2.495   3.229   9.699  2.0669  2.4223 -0.1828
   62SAPC   C35 4942   2.701   3.183   9.616  0.6196  0.0127 -0.2021
   62SAPC   H5X 4943   2.756   3.086   9.624  1.0344  0.2365 -0.3601
   62SAPC   H5Y 4944   2.761   3.266   9.657  1.4477  0.4043 -2.1797
   62SAPC   C36 4945   2.673   3.202   9.474  0.5166 -0.1651 -0.5269
   62SAPC   H6X 4946   2.616   3.298   9.471 -0.4705 -0.7902 -2.3913
   62SAPC   H6Y 4947   2.600   3.131   9.429  0.4987 -0.2840 -0.3118
   62SAPC   C37 4948   2.804   3.204   9.391  0.2538  0.3734  0.2205
   62SAPC   H7X 4949   2.787   3.164   9.289  2.7840  1.3894 -0.6363
   62SAPC   H7Y 4950   2.870   3.130   9.442  0.1020 -0.5248 -0.8763
   62SAPC   C38 4951   2.875   3.341   9.379 -0.4415 -0.1264  0.1489
   62SAPC   H8X 4952   2.897   3.366   9.485 -0.6323  1.7478 -0.2412
   62SAPC   H8Y 4953   2.804   3.416   9.339  2.0264  1.2378 -1.7767
   62SAPC   C39 4954   2.996   3.360   9.287  0.6358  0.6929 -0.4259
   62SAPC   H9X 4955   3.060   3.284   9.335 -1.0175 -0.8739 -0.6375
   62SAPC   H9Y 4956   3.046   3.459   9.295 -0.5936  1.1397  2.4409
   62SAPC  C310 4957   2.984   3.319   9.142 -0.0094  0.0855  0.0723
   62SAPC  H10X 4958   2.916   3.387   9.087  2.3298  2.3042 -0.1378
   62SAPC  H10Y 4959   2.944   3.218   9.119 -0.8349  0.3936  0.1385
   62SAPC  C311 4960   3.123   3.330   9.079  0.2386  0.1714  0.2583
   62SAPC  H11X 4961   3.126   3.273   8.984 -1.2283  0.4731  0.0257
   62SAPC  H11Y 4962   3.200   3.292   9.151 -1.0418  1.1918  2.2089
   62SAPC  C312 4963   3.158   3.475   9.039  0.0017 -0.7129 -0.5833
   62SAPC  H12X 4964   3.169   3.537   9.131 -0.0813 -0.4883 -0.7239
   62SAPC  H12Y 4965   3.080   3.528   8.981  1.2075  0.9047 -0.7771
   62SAPC  C313 4966   3.281   3.474   8.950  0.2536  0.4140  0.0727
   62SAPC  H13X 4967   3.302   3.581   8.926 -1.3637  0.8112  0.3590
   62SAPC  H13Y 4968   3.257   3.429   8.851  0.0170 -0.1353  0.3843
   62SAPC  C314 4969   3.406   3.413   9.025  0.9035  0.0404 -0.2373
   62SAPC  H14X 4970   3.384   3.305   9.037 -1.1022  0.4508 -0.1085
   62SAPC  H14Y 4971   3.399   3.451   9.129 -2.3509  1.2640 -0.8441
   62SAPC  C315 4972   3.537   3.444   8.948 -0.4142 -0.5323  0.3278
   62SAPC  H15X 4973   3.617   3.379   8.989 -0.1244 -0.8486 -0.7302
   62SAPC  H15Y 4974   3.559   3.553   8.959  1.5380 -0.7357 -1.3047
   62SAPC  C316 4975   3.536   3.399   8.801  0.7225  0.0438 -0.1349
   62SAPC  H16X 4976   3.457   3.461   8.754  2.3282  2.3573  0.1337
   62SAPC  H16Y 4977   3.501   3.294   8.802 -0.4087  0.4130 -0.5388
   62SAPC  C317 4978   3.664   3.416   8.716 -0.6709 -0.2401  0.9230
   62SAPC  H17X 4979   3.662   3.329   8.647  0.9137 -0.2567  0.8917
   62SAPC  H17Y 4980   3.753   3.414   8.782  0.6936  2.1860 -0.7599
   62SAPC  C318 4981   3.671   3.546   8.643 -0.3114  0.4293  0.7430
   62SAPC  H18X 4982   3.752   3.545   8.567 -1.3903 -1.2455 -0.4090
   62SAPC  H18Y 4983   3.679   3.633   8.711  2.8678  0.6039  0.2326
   62SAPC  H18Z 4984   3.578   3.560   8.584 -0.4131  0.7073  0.9662
   63SAPC     N 4985   5.539   2.263   6.246  0.5175  0.1473  0.3416
   63SAPC   C12 4986   5.422   2.350   6.192 -0.0452 -0.3600  0.1617
   63SAPC  H12A 4987   5.335   2.324   6.251 -0.5961 -0.7499 -0.8246
   63SAPC  H12B 4988   5.398   2.313   6.094  3.1279 -0.3271 -0.6593
   63SAPC   C13 4989   5.572   2.306   6.385 -0.3932  0.0973  0.3151
   63SAPC  H13A 4990   5.656   2.250   6.425  0.1428 -1.2352 -2.5643
   63SAPC  H13B 4991   5.596   2.411   6.397  1.9058 -0.2596 -0.8795
   63SAPC  H13C 4992   5.483   2.293   6.446  0.4694 -0.5216  1.4705
   63SAPC   C14 4993   5.502   2.119   6.236  0.2981  0.4914 -1.0282
   63SAPC  H14A 4994   5.452   2.095   6.143  0.9079 -3.3729 -0.4311
   63SAPC  H14B 4995   5.589   2.056   6.245  0.9950  1.5840 -0.0424
   63SAPC  H14C 4996   5.439   2.092   6.319  1.3303 -0.4510 -0.5376
   63SAPC   C15 4997   5.653   2.281   6.149  0.0924 -0.2138  0.0866
   63SAPC  H15A 4998   5.643   2.221   6.060  1.4664  2.2940 -1.8379
   63SAPC  H15B 4999   5.670   2.384   6.121  1.3901  0.1884  2.1724
   63SAPC  H15C 5000   5.745   2.246   6.193  0.4594  0.2970 -0.2681
   63SAPC   C11 5001   5.440   2.502   6.176  0.9740  0.3558  0.2707
   63SAPC  H11A 5002   5.349   2.541   6.124  1.6781  0.8660 -0.5892
   63SAPC  H11B 5003   5.520   2.522   6.102 -0.5729  2.1013 -0.9944
   63SAPC     P 5004   5.327   2.609   6.406 -0.0510 -0.1905  0.1219
   63SAPC   O13 5005   5.216   2.515   6.373 -0.1761  0.1297 -0.3485
   63SAPC   O14 5006   5.373   2.609   6.548  0.7071 -0.1714  0.2685
   63SAPC   O12 5007   5.452   2.569   6.307  0.6731  0.7089 -0.0430
   63SAPC   O11 5008   5.285   2.751   6.355 -0.2219 -0.0318 -0.4255
   63SAPC    C1 5009   5.386   2.853   6.327  0.0171 -0.4020  0.2870
   63SAPC    HA 5010   5.455   2.818   6.248  0.1958 -0.7459  0.5911
   63SAPC    HB 5011   5.336   2.937   6.275  0.7742 -0.2575 -0.2158
   63SAPC    C2 5012   5.472   2.887   6.456  0.6064 -0.0780  1.1981
   63SAPC    HS 5013   5.492   2.795   6.516 -1.2053 -0.5608  1.1023
   63SAPC   O21 5014   5.405   2.973   6.547 -0.3346  0.1325 -0.4736
   63SAPC   C21 5015   5.447   2.981   6.674  0.0215 -0.0145  0.2359
   63SAPC   O22 5016   5.544   2.924   6.725  0.1981  0.3467  0.0706
   63SAPC   C22 5017   5.362   3.084   6.754  0.3609 -0.7920  0.6646
   63SAPC   H2R 5018   5.411   3.181   6.730  0.5570 -0.9331  0.4991
   63SAPC   H2S 5019   5.260   3.074   6.710  1.3559 -1.0692 -1.6232
   63SAPC    C3 5020   5.591   2.967   6.397  0.0675 -0.1238 -0.3202
   63SAPC    HX 5021   5.548   3.043   6.329 -0.1933  0.5543  0.5901
   63SAPC    HY 5022   5.647   2.892   6.339  3.6763  0.7636  1.8269
   63SAPC   O31 5023   5.674   3.025   6.497 -0.2244 -0.2583 -0.1950
   63SAPC   C31 5024   5.773   2.949   6.539 -0.4036 -0.3118 -0.2393
   63SAPC   O32 5025   5.810   2.845   6.487  0.1812  0.0519 -0.2890
   63SAPC   C32 5026   5.848   3.027   6.649 -0.2559  0.6715 -0.5327
   63SAPC   H2X 5027   5.772   3.086   6.703  0.0999 -0.8758  1.6973
   63SAPC   H2Y 5028   5.918   3.103   6.607 -1.5126  1.4664 -1.2415
   63SAPC   C23 5029   5.364   3.058   6.910 -0.1342  0.4035 -0.0487
   63SAPC   H3R 5030   5.329   3.152   6.957  0.4542  0.9606 -0.7093
   63SAPC   H3S 5031   5.470   3.045   6.943  0.4868  3.1130 -0.8312
   63SAPC   C24 5032   5.266   2.952   6.957 -0.4856 -0.1129  0.2010
   63SAPC   H4R 5033   5.161   2.965   6.923 -0.9908 -1.5829  1.1330
   63SAPC   H4S 5034   5.268   2.967   7.067  1.6847  0.3090  0.1185
   63SAPC   C25 5035   5.290   2.808   6.916  0.7548  0.3785 -0.1764
   63SAPC   H5R 5036   5.315   2.791   6.811 -1.9730  1.1163 -0.9883
   63SAPC   C26 5037   5.299   2.698   6.992 -0.9218 -0.6110 -0.1892
   63SAPC   H6R 5038   5.299   2.599   6.944 -0.6658 -1.0855  0.7860
   63SAPC   C27 5039   5.300   2.696   7.144 -0.0677  0.0491 -0.1166
   63SAPC   H7R 5040   5.395   2.749   7.164  1.8903 -3.0181 -0.8989
   63SAPC   H7S 5041   5.319   2.592   7.179 -0.0637 -1.0944 -3.3261
   63SAPC   C28 5042   5.184   2.761   7.222  0.6178 -0.5021  0.1576
   63SAPC   H8R 5043   5.084   2.768   7.176  0.4947  1.0294  0.6333
   63SAPC   C29 5044   5.191   2.805   7.348 -0.1216  0.2306 -0.5551
   63SAPC   H9R 5045   5.095   2.837   7.391 -0.0911 -0.3974 -0.0178
   63SAPC  C210 5046   5.318   2.817   7.428 -0.0326  0.6850  0.5088
   63SAPC  H10R 5047   5.375   2.910   7.411  2.4266 -0.3209  2.7124
   63SAPC  H10S 5048   5.395   2.747   7.389  0.7676  0.6798  2.0338
   63SAPC  C211 5049   5.283   2.801   7.573 -0.2830  0.3294 -0.0569
   63SAPC  H11R 5050   5.189   2.842   7.613 -1.3546 -2.4155  0.3373
   63SAPC  C212 5051   5.355   2.728   7.664 -0.1747  0.3795 -0.0067
   63SAPC  H12R 5052   5.328   2.727   7.770  1.9482 -1.2930  0.5584
   63SAPC  C213 5053   5.489   2.664   7.634  0.2032 -0.0771  0.6215
   63SAPC  H13R 5054   5.566   2.729   7.682 -1.9899  2.2865  1.0546
   63SAPC  H13S 5055   5.508   2.661   7.525  1.3742 -0.5108  0.8274
   63SAPC  C214 5056   5.510   2.531   7.688 -0.6552 -0.1668  0.0284
   63SAPC  H14R 5057   5.496   2.449   7.616 -0.8571  1.2872 -1.6516
   63SAPC  C215 5058   5.561   2.510   7.811 -0.2479 -0.5099 -0.0050
   63SAPC  H15R 5059   5.558   2.408   7.851  0.4387 -0.9353 -1.0050
   63SAPC  C216 5060   5.597   2.623   7.909  0.1134 -0.4762  0.8174
   63SAPC  H16R 5061   5.502   2.678   7.926 -0.5087 -1.1318 -0.4624
   63SAPC  H16S 5062   5.668   2.698   7.867 -1.8226 -0.1354 -2.0016
   63SAPC  C217 5063   5.661   2.564   8.035 -0.3900 -0.3002 -0.1054
   63SAPC  H17R 5064   5.746   2.498   8.008  0.9445  1.1354  0.5036
   63SAPC  H17S 5065   5.579   2.514   8.090 -0.7982 -0.3367 -0.7467
   63SAPC  C218 5066   5.711   2.675   8.124 -0.1360 -0.0110 -0.9345
   63SAPC  H18R 5067   5.624   2.742   8.138 -2.1214 -3.0374  1.8233
   63SAPC  H18S 5068   5.800   2.711   8.067  0.6406  0.0769  0.3210
   63SAPC  C219 5069   5.757   2.620   8.261  0.2900  0.1478 -0.1995
   63SAPC  H19R 5070   5.669   2.566   8.303  1.2542 -1.5868 -0.3569
   63SAPC  H19S 5071   5.783   2.700   8.333 -0.9981  0.5368 -0.1504
   63SAPC  C220 5072   5.870   2.517   8.240 -0.3358 -0.2039 -0.7151
   63SAPC  H20R 5073   5.934   2.518   8.331 -2.3813  0.7439  0.7324
   63SAPC  H20S 5074   5.936   2.550   8.156 -1.7081  0.4187 -1.5667
   63SAPC  H20T 5075   5.833   2.419   8.201  0.7003  0.5239 -3.7088
   63SAPC   C33 5076   5.930   2.943   6.758 -0.8405  0.5124  0.2491
   63SAPC   H3X 5077   6.009   2.881   6.712 -0.4221  1.6576 -0.6037
   63SAPC   H3Y 5078   5.868   2.886   6.831  0.0296  1.3515  1.6830
   63SAPC   C34 5079   5.988   3.040   6.864 -0.4671  0.1354  0.4472
   63SAPC   H4X 5080   6.045   3.114   6.804 -0.5918  1.4525  1.9237
   63SAPC   H4Y 5081   6.067   2.981   6.917 -0.3075  0.9056  1.0644
   63SAPC   C35 5082   5.882   3.107   6.954  0.4472 -0.6925 -0.0215
   63SAPC   H5X 5083   5.835   3.183   6.889  1.5326 -1.0198 -1.2120
   63SAPC   H5Y 5084   5.932   3.160   7.037  0.4226  0.0866 -0.5009
   63SAPC   C36 5085   5.769   3.016   7.007 -0.2505  0.4977 -0.3153
   63SAPC   H6X 5086   5.721   2.960   6.925 -0.4383 -1.9703  1.3958
   63SAPC   H6Y 5087   5.691   3.084   7.047 -1.1501  0.5866 -2.1953
   63SAPC   C37 5088   5.814   2.922   7.126 -0.9801  0.2122  0.1419
   63SAPC   H7X 5089   5.879   2.982   7.193 -0.8023  0.0415  0.1223
   63SAPC   H7Y 5090   5.874   2.836   7.091 -1.3102  0.1240 -0.2164
   63SAPC   C38 5091   5.695   2.875   7.200 -0.0273 -0.0196  0.3535
   63SAPC   H8X 5092   5.637   2.807   7.133  2.8894 -2.0278 -0.2294
   63SAPC   H8Y 5093   5.626   2.957   7.230  0.6671 -0.3020  2.8015
   63SAPC   C39 5094   5.729   2.793   7.323 -0.1341 -0.1759 -0.1320
   63SAPC   H9X 5095   5.802   2.714   7.296  0.8243  0.3595  0.8271
   63SAPC   H9Y 5096   5.641   2.749   7.374  1.1682 -1.4988  1.0564
   63SAPC  C310 5097   5.798   2.877   7.440  0.4374 -0.1994  0.2247
   63SAPC  H10X 5098   5.725   2.938   7.498  1.6502  0.0937  1.4484
   63SAPC  H10Y 5099   5.872   2.947   7.397  0.9028 -0.4359  0.6443
   63SAPC  C311 5100   5.868   2.782   7.540 -0.5444 -0.1094 -0.5320
   63SAPC  H11X 5101   5.925   2.707   7.482 -0.1279 -1.2582  1.3211
   63SAPC  H11Y 5102   5.795   2.727   7.603  0.4189 -1.7386 -0.8154
   63SAPC  C312 5103   5.966   2.858   7.635  0.1377  0.2937 -0.0522
   63SAPC  H12X 5104   6.042   2.908   7.572  1.5800 -0.3020  1.1947
   63SAPC  H12Y 5105   6.015   2.787   7.704 -2.5470 -2.0011 -0.4350
   63SAPC  C313 5106   5.911   2.970   7.730 -0.0258 -0.5690  0.6296
   63SAPC  H13X 5107   5.824   2.925   7.783  0.3972 -0.6468  1.2619
   63SAPC  H13Y 5108   5.872   3.052   7.666  1.7593 -0.1506  0.0461
   63SAPC  C314 5109   6.018   3.020   7.834  0.9056 -0.4207 -0.0016
   63SAPC  H14X 5110   5.985   3.115   7.880  0.4325 -0.5789 -0.0062
   63SAPC  H14Y 5111   6.112   3.024   7.775  0.8292 -0.2453 -0.1083
   63SAPC  C315 5112   6.050   2.918   7.946  0.3264  0.5315  0.0241
   63SAPC  H15X 5113   6.089   2.834   7.884  1.5377  1.0137  0.1110
   63SAPC  H15Y 5114   5.957   2.890   8.000 -0.0913  2.3457  0.2744
   63SAPC  C316 5115   6.147   2.963   8.059 -0.5920 -0.2124 -0.5288
   63SAPC  H16X 5116   6.101   3.050   8.110  1.2834 -0.3443  1.4476
   63SAPC  H16Y 5117   6.238   3.002   8.009 -0.8879 -0.0229 -0.9296
   63SAPC  C317 5118   6.172   2.852   8.162 -0.1292 -0.4449 -1.1558
   63SAPC  H17X 5119   6.199   2.752   8.122 -0.8061 -0.0984 -2.4979
   63SAPC  H17Y 5120   6.079   2.831   8.218  0.2775 -0.6550 -0.5525
   63SAPC  C318 5121   6.261   2.904   8.288  0.4480  0.4513 -0.0616
   63SAPC  H18X 5122   6.356   2.956   8.263  1.2599 -1.0088 -0.0737
   63SAPC  H18Y 5123   6.270   2.826   8.367  1.3126  1.0235  0.4188
   63SAPC  H18Z 5124   6.196   2.983   8.334 -2.2952 -0.8340 -1.5928
   64SAPC     N 5125   1.669   2.207   6.273  0.7524 -0.0419 -0.0132
   64SAPC   C12 5126   1.674   2.358   6.262 -0.1030  0.5065 -0.7166
   64SAPC  H12A 5127   1.729   2.401   6.344  0.9229  3.6162 -2.9496
   64SAPC  H12B 5128   1.578   2.407   6.276  0.5243  1.8492 -1.0217
   64SAPC   C13 5129   1.802   2.154   6.298 -0.1191  0.4159  0.3829
   64SAPC  H13A 5130   1.843   2.208   6.382 -1.6841  0.5602  1.0764
   64SAPC  H13B 5131   1.791   2.051   6.326 -1.9303  0.6628  0.6240
   64SAPC  H13C 5132   1.875   2.159   6.218  1.1101 -3.0917  1.1989
   64SAPC   C14 5133   1.578   2.166   6.383 -0.0509 -0.1334  0.0331
   64SAPC  H14A 5134   1.577   2.058   6.381  0.4429 -0.1159 -2.0880
   64SAPC  H14B 5135   1.634   2.201   6.469 -1.2044  0.5836  0.5074
   64SAPC  H14C 5136   1.473   2.191   6.383  0.3169  1.4255 -0.4438
   64SAPC   C15 5137   1.620   2.150   6.146 -0.4417 -0.5318 -0.3239
   64SAPC  H15A 5138   1.652   2.047   6.145 -0.6855 -0.6364  1.1936
   64SAPC  H15B 5139   1.513   2.154   6.156 -0.3677 -1.9819  1.2930
   64SAPC  H15C 5140   1.668   2.201   6.064  0.5159 -1.2206 -0.1991
   64SAPC   C11 5141   1.740   2.432   6.150 -0.0395 -0.2396 -0.1996
   64SAPC  H11A 5142   1.832   2.370   6.147 -0.7914 -1.4120  0.6283
   64SAPC  H11B 5143   1.763   2.538   6.175 -0.0925  0.0155 -1.2180
   64SAPC     P 5144   1.555   2.526   5.994 -0.0251  0.1625  0.3979
   64SAPC   O13 5145   1.628   2.638   5.937  0.1780  0.0691  0.1944
   64SAPC   O14 5146   1.449   2.467   5.908 -0.7347 -0.3674  0.4570
   64SAPC   O12 5147   1.663   2.416   6.036  0.4555  0.2011 -0.0936
   64SAPC   O11 5148   1.504   2.576   6.133 -0.1342 -0.0942  0.5553
   64SAPC    C1 5149   1.378   2.613   6.173  0.0433 -0.5038  0.2648
   64SAPC    HA 5150   1.383   2.723   6.185 -0.1440 -0.5960  1.2954
   64SAPC    HB 5151   1.304   2.604   6.092 -0.1239  1.1665  0.2192
   64SAPC    C2 5152   1.338   2.549   6.305  0.3971  0.3025 -0.3357
   64SAPC    HS 5153   1.244   2.598   6.337  1.1550  0.9125  1.0146
   64SAPC   O21 5154   1.446   2.573   6.401 -0.2655 -0.2738 -0.0608
   64SAPC   C21 5155   1.449   2.696   6.448  0.0407  0.1481  0.5516
   64SAPC   O22 5156   1.372   2.787   6.432 -0.5507  0.5077 -0.2601
   64SAPC   C22 5157   1.563   2.707   6.544  0.5120  0.3962 -0.3259
   64SAPC   H2R 5158   1.625   2.615   6.549 -1.2612 -0.7742  0.6611
   64SAPC   H2S 5159   1.633   2.770   6.484  1.0001 -2.1724 -2.5749
   64SAPC    C3 5160   1.325   2.389   6.291 -0.5823  0.6866 -0.0069
   64SAPC    HX 5161   1.402   2.364   6.215 -2.0950  0.0271 -1.3729
   64SAPC    HY 5162   1.226   2.368   6.244  0.5437  2.7577 -3.4641
   64SAPC   O31 5163   1.344   2.330   6.418 -0.6068  0.6545 -0.0470
   64SAPC   C31 5164   1.230   2.318   6.495 -0.5280  0.4818  0.5106
   64SAPC   O32 5165   1.126   2.369   6.468 -0.6267  0.6284  0.2813
   64SAPC   C32 5166   1.273   2.257   6.624  0.9152  0.5935  0.2391
   64SAPC   H2X 5167   1.381   2.234   6.613  0.9993  1.4525 -0.7895
   64SAPC   H2Y 5168   1.209   2.173   6.658  1.5083  0.4846  1.0790
   64SAPC   C23 5169   1.531   2.792   6.673  0.3087  0.1766 -0.0227
   64SAPC   H3R 5170   1.455   2.867   6.642  1.0655  0.8553 -0.2349
   64SAPC   H3S 5171   1.618   2.843   6.718  0.6071 -0.5349  0.2097
   64SAPC   C24 5172   1.463   2.709   6.781 -0.5700  0.7509  0.4252
   64SAPC   H4R 5173   1.374   2.662   6.733 -1.0297  1.3890  0.6548
   64SAPC   H4S 5174   1.420   2.779   6.855 -0.8322  0.2932  0.7022
   64SAPC   C25 5175   1.552   2.616   6.855 -0.0811  0.4499  0.0866
   64SAPC   H5R 5176   1.656   2.614   6.818 -0.0851  0.0449  0.0930
   64SAPC   C26 5177   1.520   2.555   6.974 -0.4173 -0.2163 -0.3711
   64SAPC   H6R 5178   1.591   2.492   7.030 -0.1546 -0.1025 -0.5764
   64SAPC   C27 5179   1.381   2.565   7.038 -0.0149  0.0872  0.2659
   64SAPC   H7R 5180   1.357   2.464   7.078  0.6681 -0.4485 -0.6414
   64SAPC   H7S 5181   1.300   2.572   6.963  2.2559  1.3129 -2.1634
   64SAPC   C28 5182   1.354   2.675   7.133  0.7570  0.0275 -0.0750
   64SAPC   H8R 5183   1.340   2.774   7.086  0.0557 -1.1897 -2.4995
   64SAPC   C29 5184   1.352   2.667   7.268 -0.1219 -0.0775  1.1838
   64SAPC   H9R 5185   1.310   2.751   7.326  0.0963  0.3058  0.7905
   64SAPC  C210 5186   1.376   2.544   7.354 -0.0574 -1.0339  1.0032
   64SAPC  H10R 5187   1.331   2.449   7.317 -0.2615  0.0440 -1.6614
   64SAPC  H10S 5188   1.319   2.553   7.449  0.2867  0.6642  1.0559
   64SAPC  C211 5189   1.521   2.513   7.378  0.2129  0.1860 -0.2380
   64SAPC  H11R 5190   1.589   2.522   7.291 -0.1655 -1.3294 -0.7016
   64SAPC  C212 5191   1.581   2.480   7.499 -0.2243  0.0121  0.6675
   64SAPC  H12R 5192   1.690   2.467   7.496  0.1143  2.5049  0.8207
   64SAPC  C213 5193   1.508   2.457   7.629 -0.3818  0.2014  0.7254
   64SAPC  H13R 5194   1.526   2.352   7.660 -1.1335  0.2194  1.2459
   64SAPC  H13S 5195   1.398   2.457   7.613  0.0441 -1.1036 -2.5433
   64SAPC  C214 5196   1.550   2.551   7.738  0.5673  0.1869 -0.3492
   64SAPC  H14R 5197   1.581   2.652   7.706 -0.7267 -0.1137 -2.6687
   64SAPC  C215 5198   1.547   2.522   7.871 -0.4155 -0.9656  1.0624
   64SAPC  H15R 5199   1.575   2.601   7.942  0.4473 -0.3186  0.0222
   64SAPC  C216 5200   1.514   2.398   7.945  0.0507 -0.1038 -0.1314
   64SAPC  H16R 5201   1.589   2.317   7.933  1.1064  0.7345  0.7832
   64SAPC  H16S 5202   1.421   2.351   7.904 -2.0322  2.8381  1.0411
   64SAPC  C217 5203   1.470   2.423   8.084  0.0831 -0.1704 -0.3561
   64SAPC  H17R 5204   1.390   2.499   8.099 -0.7902 -1.4834  2.0119
   64SAPC  H17S 5205   1.555   2.457   8.146  0.4207  3.4191 -2.6367
   64SAPC  C218 5206   1.420   2.293   8.153 -0.2818  0.9668  0.4070
   64SAPC  H18R 5207   1.332   2.255   8.097 -0.0523  2.6123 -1.1120
   64SAPC  H18S 5208   1.395   2.326   8.255 -0.2553  1.9116  0.1078
   64SAPC  C219 5209   1.536   2.196   8.170 -0.3095 -0.2042 -0.1730
   64SAPC  H19R 5210   1.622   2.254   8.211 -0.5686  0.4790 -0.5927
   64SAPC  H19S 5211   1.552   2.167   8.064 -1.9243  2.1355 -1.1035
   64SAPC  C220 5212   1.506   2.077   8.257  0.0403  0.1611 -0.6860
   64SAPC  H20R 5213   1.414   2.025   8.222 -0.4808 -0.8642  2.0304
   64SAPC  H20S 5214   1.478   2.109   8.360 -0.6290 -0.4004 -0.6866
   64SAPC  H20T 5215   1.589   2.002   8.254 -0.9604 -0.9421 -1.1569
   64SAPC   C33 5216   1.267   2.363   6.738 -0.6250 -0.6214  0.2668
   64SAPC   H3X 5217   1.325   2.453   6.710 -0.6813 -1.4310 -2.5502
   64SAPC   H3Y 5218   1.303   2.312   6.830  2.9321 -0.7710 -1.1530
   64SAPC   C34 5219   1.132   2.416   6.767  0.4950 -0.0292  0.0600
   64SAPC   H4X 5220   1.096   2.484   6.687 -1.2753  1.8580  2.3890
   64SAPC   H4Y 5221   1.133   2.477   6.860 -3.2489  1.0934 -0.5743
   64SAPC   C35 5222   1.022   2.307   6.790 -0.1131  0.2427 -0.1414
   64SAPC   H5X 5223   1.055   2.213   6.840  2.0921  0.5372 -0.9756
   64SAPC   H5Y 5224   1.004   2.266   6.688  0.1552  0.7571 -0.3971
   64SAPC   C36 5225   0.894   2.363   6.858 -0.0722 -0.3374  0.0249
   64SAPC   H6X 5226   0.826   2.276   6.865  1.5601 -1.5012  1.6685
   64SAPC   H6Y 5227   0.834   2.413   6.779 -1.7589 -1.3718  0.6388
   64SAPC   C37 5228   0.918   2.436   6.993  0.6042 -0.0039 -0.1080
   64SAPC   H7X 5229   0.822   2.449   7.047 -0.0971  0.6698 -1.4962
   64SAPC   H7Y 5230   0.975   2.531   6.991  1.1176 -0.3147 -0.4651
   64SAPC   C38 5231   0.990   2.341   7.093 -0.2331 -0.2600  0.2056
   64SAPC   H8X 5232   1.098   2.321   7.073  0.5865  2.7562  1.4440
   64SAPC   H8Y 5233   0.924   2.251   7.086 -1.2706  0.5779 -0.9487
   64SAPC   C39 5234   0.985   2.386   7.241  0.1969 -0.2554 -0.1307
   64SAPC   H9X 5235   0.888   2.434   7.267  0.5399 -1.2670  3.1418
   64SAPC   H9Y 5236   1.065   2.462   7.257 -1.5709  1.4982  0.6316
   64SAPC  C310 5237   1.006   2.271   7.342  0.3075  0.1309 -1.0053
   64SAPC  H10X 5238   1.104   2.221   7.326  0.3665 -0.2093  0.3659
   64SAPC  H10Y 5239   0.910   2.216   7.344  0.2008  0.3333 -0.3925
   64SAPC  C311 5240   1.030   2.341   7.482  0.3467 -0.2462 -0.0977
   64SAPC  H11X 5241   0.940   2.406   7.494 -1.3191 -2.0275 -2.3505
   64SAPC  H11Y 5242   1.113   2.414   7.474 -1.7905  2.4560  1.3043
   64SAPC  C312 5243   1.062   2.258   7.606  0.0254  0.0415 -0.8501
   64SAPC  H12X 5244   1.167   2.225   7.622 -0.4020 -1.5289 -1.2385
   64SAPC  H12Y 5245   1.002   2.166   7.598  0.4271 -0.1955 -1.1573
   64SAPC  C313 5246   1.014   2.326   7.732  0.2327 -0.0561  0.6301
   64SAPC  H13X 5247   1.043   2.258   7.815  0.8158  0.6122  0.9802
   64SAPC  H13Y 5248   0.907   2.351   7.747 -0.0475  0.2736 -1.7292
   64SAPC  C314 5249   1.094   2.458   7.753 -0.5004  0.3299  0.5561
   64SAPC  H14X 5250   1.060   2.538   7.683 -1.4194 -0.8819 -0.3987
   64SAPC  H14Y 5251   1.201   2.449   7.724  0.5438  1.9721  3.7397
   64SAPC  C315 5252   1.098   2.514   7.899  0.2133  0.7890  0.2863
   64SAPC  H15X 5253   1.141   2.440   7.970  0.8867  0.3710 -0.5528
   64SAPC  H15Y 5254   0.993   2.536   7.927 -0.2110 -1.2748  0.3953
   64SAPC  C316 5255   1.173   2.653   7.924 -0.4365  0.1644 -0.0573
   64SAPC  H16X 5256   1.274   2.642   7.970 -1.2453 -0.6786  1.5586
   64SAPC  H16Y 5257   1.110   2.704   7.999 -0.2099  1.7382 -0.9148
   64SAPC  C317 5258   1.194   2.737   7.801  0.3624 -0.2653  0.2174
   64SAPC  H17X 5259   1.091   2.747   7.761  0.4658 -0.1707 -0.0272
   64SAPC  H17Y 5260   1.235   2.670   7.721  2.7466 -0.0790  1.2584
   64SAPC  C318 5261   1.269   2.866   7.824  1.0563  0.1721 -0.1483
   64SAPC  H18X 5262   1.213   2.940   7.885  1.8906  1.3891 -0.8523
   64SAPC  H18Y 5263   1.285   2.921   7.729  2.5597  1.6946  0.9659
   64SAPC  H18Z 5264   1.370   2.861   7.870  1.1174 -1.7385 -0.4628
   65SAPC     N 5265   1.805   3.885   5.913  0.5673  0.2266  0.0081
   65SAPC   C12 5266   1.764   3.901   6.062  0.5731  0.4633  0.0544
   65SAPC  H12A 5267   1.836   3.846   6.121  3.5674  2.9867 -1.0570
   65SAPC  H12B 5268   1.671   3.853   6.086  1.7942 -1.1812  1.6454
   65SAPC   C13 5269   1.929   3.967   5.876  1.1055 -0.4813  0.2906
   65SAPC  H13A 5270   2.008   3.967   5.949 -0.6832 -1.4035  2.2578
   65SAPC  H13B 5271   1.961   3.935   5.778 -1.9809 -0.8156 -0.6643
   65SAPC  H13C 5272   1.909   4.074   5.878 -0.2222 -0.6787 -1.2694
   65SAPC   C14 5273   1.831   3.741   5.893 -0.1571  0.1563  0.4363
   65SAPC  H14A 5274   1.914   3.708   5.954  1.5798  0.3769 -1.7413
   65SAPC  H14B 5275   1.752   3.672   5.918  0.1338 -0.4036 -0.1584
   65SAPC  H14C 5276   1.852   3.711   5.792 -0.6808 -0.8394  0.6163
   65SAPC   C15 5277   1.686   3.924   5.835 -0.9704 -0.1358 -0.1267
   65SAPC  H15A 5278   1.621   3.843   5.806 -0.8051 -0.4104  0.2765
   65SAPC  H15B 5279   1.635   4.009   5.878  0.8711  0.6272  0.5998
   65SAPC  H15C 5280   1.728   3.965   5.744 -0.1340 -0.5772  0.0611
   65SAPC   C11 5281   1.759   4.042   6.121  0.0999  0.5669  0.1714
   65SAPC  H11A 5282   1.846   4.106   6.097  0.6995 -1.2087 -2.6975
   65SAPC  H11B 5283   1.765   4.032   6.231  1.4816  0.6121  0.1066
   65SAPC     P 5284   1.618   4.261   6.087  0.6418  0.2421 -0.2553
   65SAPC   O13 5285   1.726   4.337   6.021  0.0572 -0.7723  0.3170
   65SAPC   O14 5286   1.473   4.285   6.045  0.3369 -0.5124 -0.4440
   65SAPC   O12 5287   1.636   4.103   6.082 -0.4684 -0.0907 -0.1807
   65SAPC   O11 5288   1.627   4.279   6.243  0.2584  0.1492 -0.3995
   65SAPC    C1 5289   1.570   4.395   6.305  0.5468  0.0551  0.1093
   65SAPC    HA 5290   1.619   4.485   6.261 -3.8124  0.4257 -4.4391
   65SAPC    HB 5291   1.464   4.404   6.275 -0.4837  0.7647  3.8144
   65SAPC    C2 5292   1.575   4.381   6.461 -0.1550  0.2758 -0.6528
   65SAPC    HS 5293   1.504   4.460   6.493 -0.3938 -0.2839  0.2398
   65SAPC   O21 5294   1.705   4.406   6.510  0.2326  0.1571  0.1720
   65SAPC   C21 5295   1.741   4.532   6.523 -0.0552 -0.2942 -0.1086
   65SAPC   O22 5296   1.670   4.629   6.508 -0.4450  0.3066 -0.1641
   65SAPC   C22 5297   1.887   4.540   6.557 -0.1274 -0.7221 -0.3953
   65SAPC   H2R 5298   1.938   4.444   6.577  0.9560 -0.1777 -0.5038
   65SAPC   H2S 5299   1.937   4.591   6.472 -0.6460 -1.0265 -0.8872
   65SAPC    C3 5300   1.514   4.253   6.514  0.1986  0.3194 -0.1942
   65SAPC    HX 5301   1.572   4.160   6.496  1.6763  0.9387  1.2360
   65SAPC    HY 5302   1.420   4.241   6.457  0.2623 -0.0462 -0.2211
   65SAPC   O31 5303   1.495   4.264   6.653 -0.0610 -0.1878 -0.3267
   65SAPC   C31 5304   1.598   4.232   6.730  0.8053  0.6432 -0.0702
   65SAPC   O32 5305   1.712   4.208   6.690 -0.8639  0.5119 -0.3752
   65SAPC   C32 5306   1.553   4.228   6.882 -0.1358 -0.3558 -0.4148
   65SAPC   H2X 5307   1.456   4.281   6.897 -0.6892 -0.9085 -1.9018
   65SAPC   H2Y 5308   1.636   4.269   6.943 -0.2500 -0.3197 -0.2830
   65SAPC   C23 5309   1.923   4.633   6.672  0.1737 -0.0007 -0.3462
   65SAPC   H3R 5310   1.903   4.739   6.644  1.0185  0.7659  1.8937
   65SAPC   H3S 5311   2.033   4.630   6.687 -0.0073  0.4898  1.0923
   65SAPC   C24 5312   1.854   4.600   6.810  0.9095 -0.4155 -0.5573
   65SAPC   H4R 5313   1.746   4.609   6.789  0.5032 -0.7416  1.3083
   65SAPC   H4S 5314   1.892   4.682   6.874  1.2419  1.0166 -2.5378
   65SAPC   C25 5315   1.889   4.469   6.877 -0.5326 -0.2595  0.3025
   65SAPC   H5R 5316   1.943   4.397   6.814 -0.5656 -0.0683  0.0529
   65SAPC   C26 5317   1.861   4.434   7.005 -0.5676  0.2241  0.7298
   65SAPC   H6R 5318   1.886   4.331   7.035  0.7094 -0.9770 -4.0493
   65SAPC   C27 5319   1.796   4.524   7.103 -0.6593  0.2859 -0.1825
   65SAPC   H7R 5320   1.696   4.485   7.131 -1.0440 -0.1443 -2.0828
   65SAPC   H7S 5321   1.761   4.619   7.056 -1.6576  0.7043  1.3610
   65SAPC   C28 5322   1.881   4.564   7.223 -0.9058  0.8405 -0.2348
   65SAPC   H8R 5323   1.966   4.627   7.192  0.3470 -1.1306 -0.8886
   65SAPC   C29 5324   1.860   4.531   7.358 -0.3893 -0.3437 -0.0131
   65SAPC   H9R 5325   1.938   4.567   7.427  1.8109 -2.3312 -1.3666
   65SAPC  C210 5326   1.746   4.454   7.414  0.5344 -0.1080 -0.1598
   65SAPC  H10R 5327   1.678   4.421   7.333  1.3425  0.0913 -0.9285
   65SAPC  H10S 5328   1.695   4.533   7.473 -0.1080  0.4131 -1.3872
   65SAPC  C211 5329   1.803   4.356   7.513 -0.4398  0.3597 -0.0103
   65SAPC  H11R 5330   1.862   4.279   7.459 -0.9120 -0.4466  0.6154
   65SAPC  C212 5331   1.793   4.352   7.648  0.6925 -0.0771 -0.3083
   65SAPC  H12R 5332   1.856   4.283   7.706  1.1556 -0.3090 -1.0851
   65SAPC  C213 5333   1.714   4.441   7.730  0.2700  0.6563 -0.0372
   65SAPC  H13R 5334   1.676   4.384   7.817  0.2799 -0.6653 -0.8994
   65SAPC  H13S 5335   1.623   4.465   7.672 -0.6635 -4.3680 -0.8185
   65SAPC  C214 5336   1.780   4.567   7.772 -0.8386  0.4628  0.2273
   65SAPC  H14R 5337   1.764   4.643   7.693 -0.5659 -1.1363 -1.4041
   65SAPC  C215 5338   1.847   4.590   7.882 -0.3867  1.1709  0.5149
   65SAPC  H15R 5339   1.878   4.694   7.900  0.1683  1.0573  0.2181
   65SAPC  C216 5340   1.870   4.488   7.995  0.2852  0.5197  0.1468
   65SAPC  H16R 5341   1.962   4.518   8.050  0.8974 -1.4786  0.2399
   65SAPC  H16S 5342   1.889   4.388   7.951  0.3437  0.1164  1.0927
   65SAPC  C217 5343   1.745   4.474   8.087 -0.0740 -0.4029 -0.3168
   65SAPC  H17R 5344   1.775   4.393   8.157 -3.0220  0.5243  2.1303
   65SAPC  H17S 5345   1.649   4.448   8.038  1.1045 -3.0589 -1.2729
   65SAPC  C218 5346   1.733   4.600   8.178  0.3949  0.7541  0.3612
   65SAPC  H18R 5347   1.694   4.686   8.118  0.3849  0.3415 -0.2342
   65SAPC  H18S 5348   1.835   4.638   8.196  0.7837 -0.3941  0.6193
   65SAPC  C219 5349   1.663   4.566   8.305  0.2711 -0.2481 -0.4035
   65SAPC  H19R 5350   1.608   4.474   8.276 -0.4226 -0.3361  1.1160
   65SAPC  H19S 5351   1.587   4.641   8.335 -0.6336 -1.4162  0.2620
   65SAPC  C220 5352   1.749   4.523   8.422 -0.0636  0.2773  0.1220
   65SAPC  H20R 5353   1.847   4.484   8.387  0.2414  1.2214 -0.0810
   65SAPC  H20S 5354   1.696   4.453   8.490  2.7337 -1.0934  0.9913
   65SAPC  H20T 5355   1.776   4.619   8.471 -1.1362  0.9300 -0.5349
   65SAPC   C33 5356   1.529   4.078   6.917  0.2150  0.2024  0.0597
   65SAPC   H3X 5357   1.621   4.027   6.881  0.1348 -0.7191  1.1072
   65SAPC   H3Y 5358   1.446   4.037   6.856 -0.4534 -0.6193  1.4905
   65SAPC   C34 5359   1.477   4.038   7.057  0.2881  0.1184  0.4429
   65SAPC   H4X 5360   1.466   3.927   7.050  4.4721 -0.6351  3.8306
   65SAPC   H4Y 5361   1.378   4.086   7.069 -1.3005 -3.0882  0.7194
   65SAPC   C35 5362   1.585   4.066   7.163 -0.5032  0.2781 -0.6220
   65SAPC   H5X 5363   1.642   4.149   7.116 -0.3243  0.7695  0.4313
   65SAPC   H5Y 5364   1.643   3.972   7.176 -0.1852  0.5670  0.1027
   65SAPC   C36 5365   1.536   4.104   7.308  0.3537  0.3923  0.7655
   65SAPC   H6X 5366   1.467   4.191   7.302  0.9840  0.8698  0.2584
   65SAPC   H6Y 5367   1.626   4.127   7.368  2.2736 -1.7977 -1.1571
   65SAPC   C37 5368   1.480   3.970   7.364  0.3234 -0.6506 -0.5658
   65SAPC   H7X 5369   1.562   3.896   7.369  1.5237  0.6688 -0.1530
   65SAPC   H7Y 5370   1.401   3.930   7.297  1.1897 -0.2792 -1.8285
   65SAPC   C38 5371   1.406   3.979   7.506  0.2576 -0.5104  0.2158
   65SAPC   H8X 5372   1.357   3.883   7.531 -2.2198  1.3229  2.6497
   65SAPC   H8Y 5373   1.316   4.042   7.491 -0.2633 -0.7833  2.0550
   65SAPC   C39 5374   1.504   4.014   7.619  0.0993  0.9033  0.5958
   65SAPC   H9X 5375   1.546   4.116   7.607 -0.1366  0.7364 -1.7549
   65SAPC   H9Y 5376   1.591   3.945   7.616  0.0625  0.9471 -2.2475
   65SAPC  C310 5377   1.450   4.000   7.762 -0.6492  0.5691  0.7176
   65SAPC  H10X 5378   1.438   3.898   7.803  2.3974 -0.1884 -0.1030
   65SAPC  H10Y 5379   1.355   4.057   7.753 -0.7053  0.1861 -1.3404
   65SAPC  C311 5380   1.555   4.055   7.863  0.3038  0.2095  0.6785
   65SAPC  H11X 5381   1.591   4.152   7.821 -1.3515  0.0888 -1.1111
   65SAPC  H11Y 5382   1.650   3.998   7.854  0.6289  0.7024  0.9250
   65SAPC  C312 5383   1.521   4.068   8.016 -0.1596  0.3701  0.3759
   65SAPC  H12X 5384   1.554   3.971   8.059  1.4677  1.0124  0.6295
   65SAPC  H12Y 5385   1.413   4.087   8.028 -0.3942  0.2060 -1.4260
   65SAPC  C313 5386   1.602   4.182   8.094 -0.8841  0.1391 -0.3105
   65SAPC  H13X 5387   1.551   4.280   8.077  0.7964  0.7548 -1.9598
   65SAPC  H13Y 5388   1.701   4.171   8.046 -0.0440 -3.2271  2.0563
   65SAPC  C314 5389   1.621   4.148   8.246 -0.2085 -0.1995 -0.1475
   65SAPC  H14X 5390   1.710   4.206   8.280  0.1694 -0.7609 -0.1799
   65SAPC  H14Y 5391   1.627   4.038   8.260  3.4177  0.0054  0.3597
   65SAPC  C315 5392   1.499   4.202   8.327 -0.4809 -0.2529  0.0540
   65SAPC  H15X 5393   1.408   4.139   8.323  0.2379 -1.3905  1.4755
   65SAPC  H15Y 5394   1.461   4.299   8.287  0.1638  0.0721  0.2137
   65SAPC  C316 5395   1.515   4.205   8.479 -0.3070  0.8611  0.1695
   65SAPC  H16X 5396   1.467   4.301   8.509  1.8846  2.3099 -0.7522
   65SAPC  H16Y 5397   1.624   4.210   8.502 -0.2031  0.2953 -0.1858
   65SAPC  C317 5398   1.438   4.094   8.561 -0.0471 -0.1320  0.3487
   65SAPC  H17X 5399   1.483   3.997   8.530 -2.1958 -0.6437 -1.3164
   65SAPC  H17Y 5400   1.329   4.086   8.544  0.2498 -1.8433 -0.9127
   65SAPC  C318 5401   1.462   4.107   8.713 -0.1094 -0.3114  0.1222
   65SAPC  H18X 5402   1.569   4.129   8.727 -0.0575 -1.4210  1.5994
   65SAPC  H18Y 5403   1.426   4.013   8.760  0.2552 -0.5305 -0.0366
   65SAPC  H18Z 5404   1.409   4.197   8.751  0.1710  0.9442 -2.3344
   66SAPC     N 5405   5.939   3.996   5.722  0.2477 -0.0337 -0.8337
   66SAPC   C12 5406   5.908   3.996   5.869  0.2485 -0.3856 -0.6295
   66SAPC  H12A 5407   5.997   3.975   5.927 -1.1661 -0.9729  1.3982
   66SAPC  H12B 5408   5.839   3.916   5.893  2.1865 -1.4930  1.4213
   66SAPC   C13 5409   5.812   4.024   5.640 -0.0238 -0.5494  0.2788
   66SAPC  H13A 5410   5.734   3.950   5.649  0.4839 -1.0944  0.2914
   66SAPC  H13B 5411   5.780   4.120   5.678  0.6306  0.1052 -0.8136
   66SAPC  H13C 5412   5.827   4.024   5.533 -0.7763  0.7904  0.1691
   66SAPC   C14 5413   6.039   4.103   5.685 -0.0693 -0.4617  0.1554
   66SAPC  H14A 5414   5.999   4.203   5.677  1.3091  0.0835 -0.1077
   66SAPC  H14B 5415   6.122   4.102   5.754 -0.7952 -0.2184  1.0314
   66SAPC  H14C 5416   6.092   4.079   5.594 -0.6925  0.5231 -0.4749
   66SAPC   C15 5417   6.004   3.865   5.672  0.6429 -0.3131 -0.5535
   66SAPC  H15A 5418   6.110   3.871   5.694  0.0667  3.4581  1.6853
   66SAPC  H15B 5419   5.978   3.783   5.737 -2.1249 -0.4564 -1.7810
   66SAPC  H15C 5420   5.980   3.838   5.570 -0.3972 -0.1805 -0.3524
   66SAPC   C11 5421   5.853   4.127   5.934  0.1038  0.1101  0.2150
   66SAPC  H11A 5422   5.906   4.217   5.898  0.8068 -0.2444  0.3678
   66SAPC  H11B 5423   5.872   4.123   6.044  1.4062  1.6018  0.0633
   66SAPC     P 5424   5.601   4.045   5.945 -0.2430  0.0553  0.8727
   66SAPC   O13 5425   5.462   4.103   5.915  0.7519  0.0111 -0.1010
   66SAPC   O14 5426   5.629   3.917   5.884  0.1381  0.3899 -0.4374
   66SAPC   O12 5427   5.709   4.154   5.916  0.2359 -0.7563  0.0035
   66SAPC   O11 5428   5.614   4.023   6.097  0.1407  0.9131 -0.3935
   66SAPC    C1 5429   5.569   4.128   6.182  0.5228  0.5534 -0.0891
   66SAPC    HA 5430   5.602   4.225   6.141  0.4289  0.7888  0.3978
   66SAPC    HB 5431   5.458   4.133   6.191  0.6686  3.4271  0.3679
   66SAPC    C2 5432   5.631   4.118   6.332  0.0886 -0.0824  0.9911
   66SAPC    HS 5433   5.546   4.126   6.403  1.0241  0.3344  2.0875
   66SAPC   O21 5434   5.722   4.228   6.349  0.1528  0.5228 -0.0985
   66SAPC   C21 5435   5.663   4.347   6.376 -0.2655 -1.2727  0.4301
   66SAPC   O22 5436   5.545   4.378   6.368  0.4701  0.6291  0.5078
   66SAPC   C22 5437   5.772   4.450   6.422  0.3974  0.2473  0.0887
   66SAPC   H2R 5438   5.863   4.405   6.468 -1.1788 -2.7468  0.3924
   66SAPC   H2S 5439   5.812   4.492   6.327  0.0148  0.6909  0.1239
   66SAPC    C3 5440   5.695   3.980   6.353 -0.1270  0.2212 -0.1708
   66SAPC    HX 5441   5.776   3.976   6.278 -1.0993 -0.8382 -1.1842
   66SAPC    HY 5442   5.624   3.898   6.327  1.9362 -1.8895  0.7028
   66SAPC   O31 5443   5.751   3.961   6.490  0.2844 -0.2025  0.2646
   66SAPC   C31 5444   5.657   3.917   6.576  0.3260  0.3803 -0.4304
   66SAPC   O32 5445   5.547   3.879   6.550  0.0028 -0.2785 -0.3305
   66SAPC   C32 5446   5.721   3.898   6.710  0.5079 -0.2390 -0.0560
   66SAPC   H2X 5447   5.832   3.901   6.709  0.5672 -1.7431  0.4653
   66SAPC   H2Y 5448   5.698   3.798   6.753 -0.0268 -0.2676 -0.4056
   66SAPC   C23 5449   5.700   4.575   6.481  0.7531  0.2605 -0.2376
   66SAPC   H3R 5450   5.634   4.623   6.405 -1.2945 -2.0345  0.0544
   66SAPC   H3S 5451   5.782   4.648   6.500  0.8042 -0.1877  1.3334
   66SAPC   C24 5452   5.638   4.550   6.619 -0.7789 -0.1728  0.3723
   66SAPC   H4R 5453   5.711   4.487   6.673 -0.6169 -0.0933  0.2474
   66SAPC   H4S 5454   5.548   4.488   6.600 -0.1074 -0.7098 -1.1182
   66SAPC   C25 5455   5.598   4.675   6.700  0.0686  0.2844  0.3463
   66SAPC   H5R 5456   5.503   4.717   6.664  0.6287  1.8129  0.6006
   66SAPC   C26 5457   5.663   4.733   6.802  0.0246 -0.1829 -0.1500
   66SAPC   H6R 5458   5.623   4.823   6.851  2.0674  1.5297 -1.5007
   66SAPC   C27 5459   5.798   4.684   6.857  0.0970  0.0353 -0.1606
   66SAPC   H7R 5460   5.849   4.773   6.899  1.0576  0.1978 -1.6713
   66SAPC   H7S 5461   5.868   4.649   6.779  0.5422  0.5713  0.0008
   66SAPC   C28 5462   5.768   4.581   6.965 -0.4159  0.0025 -0.8135
   66SAPC   H8R 5463   5.692   4.506   6.938  2.1963 -2.4745 -1.5808
   66SAPC   C29 5464   5.817   4.583   7.091 -0.0341  0.1255 -0.3431
   66SAPC   H9R 5465   5.785   4.504   7.160 -0.3952  1.2570  0.8047
   66SAPC  C210 5466   5.909   4.689   7.144 -0.4819  0.2938 -0.3025
   66SAPC  H10R 5467   5.858   4.781   7.179  0.3801  0.1939  1.2960
   66SAPC  H10S 5468   5.974   4.719   7.059 -0.0835 -0.2909 -0.2066
   66SAPC  C211 5469   5.984   4.646   7.272 -1.0970  0.3407  0.5961
   66SAPC  H11R 5470   6.091   4.626   7.260 -1.1194  1.5474 -1.9465
   66SAPC  C212 5471   5.934   4.637   7.397 -1.1925 -0.4545 -1.0897
   66SAPC  H12R 5472   5.997   4.586   7.472 -0.4534  1.6508 -0.2335
   66SAPC  C213 5473   5.790   4.667   7.438  0.1120 -0.0724 -0.3022
   66SAPC  H13R 5474   5.722   4.685   7.352 -1.7370 -0.1167  1.1185
   66SAPC  H13S 5475   5.787   4.772   7.475  0.3952 -0.3158  0.4161
   66SAPC  C214 5476   5.736   4.577   7.544 -0.4698  0.1598 -0.2941
   66SAPC  H14R 5477   5.667   4.502   7.504 -1.3257  0.6080  0.3137
   66SAPC  C215 5478   5.756   4.580   7.678 -0.3986  1.0881  0.0504
   66SAPC  H15R 5479   5.698   4.511   7.741 -0.3055  1.4303  0.5060
   66SAPC  C216 5480   5.843   4.681   7.754  0.6512 -0.6022  0.2553
   66SAPC  H16R 5481   5.782   4.736   7.829  2.2352 -0.3575  1.3702
   66SAPC  H16S 5482   5.864   4.768   7.688  0.4425 -1.5213 -1.0378
   66SAPC  C217 5483   5.957   4.614   7.832 -0.0570 -0.5228 -0.5006
   66SAPC  H17R 5484   5.919   4.540   7.906  0.6746 -0.1043  0.3048
   66SAPC  H17S 5485   5.997   4.698   7.894  1.4063  0.6282 -2.9414
   66SAPC  C218 5486   6.071   4.561   7.747  0.7419  0.1709  0.2226
   66SAPC  H18R 5487   6.100   4.642   7.676 -0.7935  0.0305 -0.5883
   66SAPC  H18S 5488   6.034   4.484   7.677  2.7009 -0.1048 -0.5428
   66SAPC  C219 5489   6.195   4.522   7.821 -0.2280  0.2702  0.1295
   66SAPC  H19R 5490   6.162   4.448   7.898 -0.2411 -2.2601 -2.2419
   66SAPC  H19S 5491   6.242   4.612   7.868 -0.1981  0.7473 -0.8056
   66SAPC  C220 5492   6.299   4.453   7.730 -0.5530 -0.5706 -0.3506
   66SAPC  H20R 5493   6.262   4.353   7.699  0.1284 -1.1788  0.7578
   66SAPC  H20S 5494   6.393   4.444   7.789 -2.3574  0.5110  2.8680
   66SAPC  H20T 5495   6.320   4.504   7.634 -0.5547 -1.3141 -0.7422
   66SAPC   C33 5496   5.676   3.996   6.820  0.4901 -0.1880  0.2108
   66SAPC   H3X 5497   5.565   4.000   6.815  0.5678  0.4810 -1.4616
   66SAPC   H3Y 5498   5.720   4.097   6.803 -0.5395  0.4552  1.3062
   66SAPC   C34 5499   5.717   3.942   6.957 -0.3320 -0.4854 -0.1212
   66SAPC   H4X 5500   5.816   3.891   6.954 -0.0398 -0.0104  1.1494
   66SAPC   H4Y 5501   5.633   3.879   6.992 -1.1131  0.9715  0.6736
   66SAPC   C35 5502   5.729   4.054   7.055 -0.3867  0.0921  0.1811
   66SAPC   H5X 5503   5.637   4.116   7.052  0.1976  1.0027  0.8319
   66SAPC   H5Y 5504   5.816   4.121   7.035 -0.8255 -0.1526 -2.7699
   66SAPC   C36 5505   5.734   4.011   7.202  0.9118  0.8548 -0.6361
   66SAPC   H6X 5506   5.832   3.963   7.226 -0.0618 -1.4564 -1.1812
   66SAPC   H6Y 5507   5.661   3.933   7.233  3.1701  0.4426  4.1569
   66SAPC   C37 5508   5.742   4.127   7.296  0.3255 -0.5441  0.4872
   66SAPC   H7X 5509   5.664   4.204   7.273 -0.6133 -1.5510  0.2551
   66SAPC   H7Y 5510   5.838   4.182   7.285 -0.0341  0.3194  1.5254
   66SAPC   C38 5511   5.732   4.079   7.444 -0.9478 -0.2782  0.2818
   66SAPC   H8X 5512   5.802   3.994   7.459 -1.6451 -1.0389 -0.7612
   66SAPC   H8Y 5513   5.634   4.030   7.459 -0.8227  0.5503  4.4998
   66SAPC   C39 5514   5.754   4.187   7.540 -0.2524 -0.0013 -0.7960
   66SAPC   H9X 5515   5.686   4.273   7.522  0.8011  0.4526 -2.7699
   66SAPC   H9Y 5516   5.857   4.226   7.526  1.0987 -3.0558  0.2858
   66SAPC  C310 5517   5.739   4.128   7.680  0.0085 -0.7484 -0.0703
   66SAPC  H10X 5518   5.825   4.058   7.688  0.0382 -0.8271 -1.0046
   66SAPC  H10Y 5519   5.644   4.077   7.704  0.0445  0.3676  2.6009
   66SAPC  C311 5520   5.763   4.238   7.785 -0.0486 -0.4046  0.0866
   66SAPC  H11X 5521   5.674   4.305   7.792  0.2116  0.0638 -0.9919
   66SAPC  H11Y 5522   5.844   4.303   7.747  1.0416 -0.5954  2.0225
   66SAPC  C312 5523   5.797   4.200   7.931 -0.0937 -0.0607 -0.0614
   66SAPC  H12X 5524   5.778   4.287   7.996 -0.8770 -0.4254  0.2036
   66SAPC  H12Y 5525   5.898   4.164   7.960 -0.4225 -1.3769 -0.4699
   66SAPC  C313 5526   5.708   4.091   7.996  1.1482 -0.3555 -0.3743
   66SAPC  H13X 5527   5.730   3.996   7.943  0.7003 -0.0321 -1.1517
   66SAPC  H13Y 5528   5.600   4.107   7.973  0.8660 -1.7391 -0.0367
   66SAPC  C314 5529   5.741   4.070   8.148 -0.1119  1.0127  0.9681
   66SAPC  H14X 5530   5.847   4.101   8.163  0.1518  1.0238 -0.8155
   66SAPC  H14Y 5531   5.727   3.961   8.165 -0.3074  0.6975 -1.0616
   66SAPC  C315 5532   5.643   4.144   8.238 -0.1538  0.6714 -0.0371
   66SAPC  H15X 5533   5.627   4.249   8.203 -1.1584  0.8499  0.9018
   66SAPC  H15Y 5534   5.682   4.148   8.342 -1.7046  0.7206  0.5573
   66SAPC  C316 5535   5.512   4.061   8.248 -0.3156 -0.2141 -0.7398
   66SAPC  H16X 5536   5.537   3.955   8.270  0.1007  0.1002  0.3051
   66SAPC  H16Y 5537   5.457   4.053   8.151  2.2659 -0.2594 -2.2364
   66SAPC  C317 5538   5.409   4.120   8.349 -0.0217  0.6128 -0.4477
   66SAPC  H17X 5539   5.376   4.213   8.298 -1.5706  0.0242 -0.5293
   66SAPC  H17Y 5540   5.459   4.152   8.443  0.6980 -1.7544 -0.0092
   66SAPC  C318 5541   5.290   4.029   8.365 -0.8173  0.1013 -0.8536
   66SAPC  H18X 5542   5.214   4.076   8.431 -1.3211 -0.0975 -1.2809
   66SAPC  H18Y 5543   5.323   3.928   8.398 -0.1366  0.4994 -0.3215
   66SAPC  H18Z 5544   5.242   4.006   8.267  2.3525 -1.6560 -2.0665
   67SAPC     N 5545   1.083   5.846   6.176  0.3536 -0.4274  0.4357
   67SAPC   C12 5546   1.029   5.849   6.317  0.0384  0.1765 -0.7499
   67SAPC  H12A 5547   0.925   5.820   6.317 -0.5493  2.1700 -1.1237
   67SAPC  H12B 5548   1.019   5.951   6.352  1.1381  0.2884 -0.7323
   67SAPC   C13 5549   1.086   5.704   6.134 -1.2338 -1.1389  0.1463
   67SAPC  H13A 5550   0.992   5.655   6.152 -1.2859 -1.4577 -0.9419
   67SAPC  H13B 5551   1.093   5.692   6.027  0.6453 -2.0004  0.3581
   67SAPC  H13C 5552   1.160   5.655   6.194  0.6788  1.3610 -0.0879
   67SAPC   C14 5553   0.989   5.922   6.079 -0.2844 -0.6303  0.0305
   67SAPC  H14A 5554   1.037   5.905   5.983  1.0747 -0.0081  0.5764
   67SAPC  H14B 5555   0.884   5.898   6.084 -0.8055  1.5132 -0.0853
   67SAPC  H14C 5556   1.002   6.028   6.100  0.3773  0.1831 -4.0314
   67SAPC   C15 5557   1.225   5.900   6.158 -0.5468  0.1402  0.7345
   67SAPC  H15A 5558   1.291   5.856   6.232 -1.0493 -0.2112  0.9802
   67SAPC  H15B 5559   1.252   5.884   6.055 -0.9695 -0.5553  0.7276
   67SAPC  H15C 5560   1.216   6.005   6.181 -0.4307  0.0799  1.0623
   67SAPC   C11 5561   1.111   5.775   6.427  0.0479 -0.0718  0.0517
   67SAPC  H11A 5562   1.114   5.670   6.391  2.4929 -0.7139  1.9620
   67SAPC  H11B 5563   1.055   5.783   6.523 -0.1104  1.6701 -0.1819
   67SAPC     P 5564   1.285   5.964   6.502  0.0568 -0.7729 -0.1325
   67SAPC   O13 5565   1.327   6.059   6.398  0.1223 -0.1730  0.0093
   67SAPC   O14 5566   1.170   6.001   6.578  0.3441 -0.1948 -0.0416
   67SAPC   O12 5567   1.252   5.822   6.435  0.5602  0.0927 -0.6886
   67SAPC   O11 5568   1.406   5.947   6.602 -1.1679 -0.0877  0.2111
   67SAPC    C1 5569   1.473   5.821   6.633  0.3673  0.2237  0.3356
   67SAPC    HA 5570   1.505   5.765   6.542  0.3404  1.5195 -0.4812
   67SAPC    HB 5571   1.568   5.842   6.687  1.2103 -0.7410 -0.7479
   67SAPC    C2 5572   1.385   5.728   6.726 -0.2702  0.4688 -0.1384
   67SAPC    HS 5573   1.284   5.715   6.682 -0.6109  0.5484  0.6078
   67SAPC   O21 5574   1.383   5.780   6.859 -0.0412  0.1735 -0.3408
   67SAPC   C21 5575   1.279   5.756   6.936  0.2059 -0.5549  0.8896
   67SAPC   O22 5576   1.177   5.691   6.901 -0.5529  0.2947  0.0134
   67SAPC   C22 5577   1.310   5.790   7.077  0.5954  0.3800  0.0915
   67SAPC   H2R 5578   1.373   5.702   7.105  0.1623  0.3316  0.9253
   67SAPC   H2S 5579   1.353   5.892   7.093 -0.5941  1.1086 -1.2483
   67SAPC    C3 5580   1.449   5.586   6.729  0.0682 -0.2590 -0.3474
   67SAPC    HX 5581   1.553   5.603   6.764 -0.4689  2.3236  0.0721
   67SAPC    HY 5582   1.462   5.557   6.622  0.8629  0.1703 -0.3680
   67SAPC   O31 5583   1.386   5.488   6.813  0.0097  0.0972 -0.1469
   67SAPC   C31 5584   1.299   5.404   6.754  0.2508 -0.6469  0.8288
   67SAPC   O32 5585   1.283   5.382   6.633 -0.0294  0.8146  0.3239
   67SAPC   C32 5586   1.238   5.309   6.854 -0.0423 -0.3089  0.2111
   67SAPC   H2X 5587   1.143   5.277   6.805  0.9842 -0.8867 -1.4327
   67SAPC   H2Y 5588   1.226   5.361   6.951  0.6271 -0.0573  0.1612
   67SAPC   C23 5589   1.180   5.782   7.162 -0.3351  0.2714 -0.8943
   67SAPC   H3R 5590   1.135   5.682   7.145 -1.6039  1.0060 -1.9025
   67SAPC   H3S 5591   1.099   5.849   7.126  1.7841  3.1354 -0.5041
   67SAPC   C24 5592   1.210   5.774   7.313 -0.0009  0.2480  0.3430
   67SAPC   H4R 5593   1.276   5.688   7.336 -1.5073 -0.1620  3.4721
   67SAPC   H4S 5594   1.113   5.744   7.358  1.2463 -3.0200  1.0160
   67SAPC   C25 5595   1.272   5.897   7.379  1.2700  0.3552  0.0992
   67SAPC   H5R 5596   1.335   5.965   7.320 -1.1452  2.3488 -0.2719
   67SAPC   C26 5597   1.241   5.930   7.502  0.1731  0.7240 -0.2813
   67SAPC   H6R 5598   1.278   6.022   7.551 -0.8862  0.5397  0.8989
   67SAPC   C27 5599   1.149   5.858   7.594  0.2306 -0.0947 -0.4373
   67SAPC   H7R 5600   1.049   5.882   7.552 -1.2230  0.2346  3.1215
   67SAPC   H7S 5601   1.148   5.900   7.696 -0.7490 -0.7572 -0.1641
   67SAPC   C28 5602   1.171   5.709   7.617 -0.2174 -0.5121  0.5597
   67SAPC   H8R 5603   1.230   5.646   7.549 -1.8759 -2.7578  1.1227
   67SAPC   C29 5604   1.128   5.645   7.726 -0.2434 -0.0031  0.8172
   67SAPC   H9R 5605   1.154   5.538   7.731  1.3655  0.2620 -1.1011
   67SAPC  C210 5606   1.037   5.699   7.830 -0.1147  0.2368 -0.3170
   67SAPC  H10R 5607   0.980   5.788   7.796 -0.9289 -0.1886 -0.0587
   67SAPC  H10S 5608   1.101   5.734   7.914 -2.4730  1.9334  0.8374
   67SAPC  C211 5609   0.941   5.589   7.867 -0.1269 -0.1332 -0.3571
   67SAPC  H11R 5610   0.943   5.490   7.820 -2.5510 -0.8389  0.9222
   67SAPC  C212 5611   0.844   5.593   7.969  0.1250 -0.3274 -0.4171
   67SAPC  H12R 5612   0.772   5.511   7.983 -0.6670  0.1888 -1.4321
   67SAPC  C213 5613   0.820   5.713   8.055 -0.8029 -0.1564  0.6861
   67SAPC  H13R 5614   0.722   5.698   8.106 -0.5386  2.1233  1.9417
   67SAPC  H13S 5615   0.805   5.806   7.996  1.9523  0.7702  1.3863
   67SAPC  C214 5616   0.930   5.721   8.162  0.1626 -0.5756 -0.0963
   67SAPC  H14R 5617   0.977   5.820   8.172 -0.9563 -0.2228  2.0336
   67SAPC  C215 5618   0.958   5.629   8.259 -0.1816  0.6482 -0.6026
   67SAPC  H15R 5619   1.036   5.652   8.333 -0.4564 -2.1871  0.6125
   67SAPC  C216 5620   0.904   5.491   8.282  0.2507  0.2274 -0.0383
   67SAPC  H16R 5621   0.877   5.444   8.185 -0.3172 -3.0217  1.6205
   67SAPC  H16S 5622   0.815   5.485   8.348  0.1054 -2.9597 -0.4608
   67SAPC  C217 5623   1.004   5.387   8.337 -0.0740  0.0684  0.3482
   67SAPC  H17R 5624   1.040   5.421   8.436  1.4759  0.9344 -0.4914
   67SAPC  H17S 5625   1.088   5.382   8.264  0.1520  0.3236  0.5885
   67SAPC  C218 5626   0.951   5.241   8.338  0.0425  0.1458 -0.0511
   67SAPC  H18R 5627   0.907   5.228   8.237  2.5816 -1.4946 -0.9762
   67SAPC  H18S 5628   0.876   5.233   8.420  2.3610 -1.7014  1.9499
   67SAPC  C219 5629   1.070   5.146   8.367 -0.5263  0.0721 -0.0558
   67SAPC  H19R 5630   1.122   5.181   8.458 -1.1350  0.4282  0.1567
   67SAPC  H19S 5631   1.136   5.153   8.278 -0.5838 -3.3725 -0.4615
   67SAPC  C220 5632   1.036   4.991   8.389 -0.4869  0.2518 -0.2319
   67SAPC  H20R 5633   0.958   4.977   8.467  1.0076 -1.4742  1.0253
   67SAPC  H20S 5634   1.121   4.935   8.434 -1.6381 -0.3618  1.2405
   67SAPC  H20T 5635   1.017   4.933   8.296  0.4689 -0.2084 -0.1443
   67SAPC   C33 5636   1.347   5.201   6.873  0.4624 -0.0633  0.0723
   67SAPC   H3X 5637   1.449   5.244   6.884  1.1430 -2.0351  1.6952
   67SAPC   H3Y 5638   1.351   5.137   6.783  0.7231  0.1645 -0.0780
   67SAPC   C34 5639   1.330   5.110   6.997  0.3178  0.0083  1.0184
   67SAPC   H4X 5640   1.336   5.193   7.071  0.1233  1.5130 -0.5915
   67SAPC   H4Y 5641   1.420   5.046   7.001  0.1157 -0.4391 -0.9717
   67SAPC   C35 5642   1.192   5.037   7.006  0.1253  0.8120 -0.2791
   67SAPC   H5X 5643   1.179   4.973   6.916  0.5672  0.5051 -0.1251
   67SAPC   H5Y 5644   1.108   5.108   7.024  0.5502  1.2536 -0.0552
   67SAPC   C36 5645   1.201   4.950   7.130  0.7411  0.5888  0.0267
   67SAPC   H6X 5646   1.256   5.010   7.206  2.2120 -0.6313 -0.0535
   67SAPC   H6Y 5647   1.264   4.864   7.099  1.0826  0.9892 -0.4069
   67SAPC   C37 5648   1.062   4.904   7.180  0.4501  0.1342 -0.1001
   67SAPC   H7X 5649   1.020   4.834   7.104 -0.5374  0.0880  0.4871
   67SAPC   H7Y 5650   1.014   5.001   7.201  2.2150  1.0145 -0.0047
   67SAPC   C38 5651   1.077   4.816   7.310  0.2489  0.3898 -0.4945
   67SAPC   H8X 5652   1.176   4.842   7.355 -1.1528  2.6213  1.4161
   67SAPC   H8Y 5653   1.080   4.711   7.275  0.2981  0.6129 -1.1660
   67SAPC   C39 5654   0.969   4.834   7.414  0.3336  0.0379  0.0229
   67SAPC   H9X 5655   0.878   4.791   7.368  0.1370  0.6263 -0.1540
   67SAPC   H9Y 5656   0.962   4.944   7.433  2.8669  0.6692 -2.2941
   67SAPC  C310 5657   0.994   4.750   7.543 -0.2378  0.5689 -0.6398
   67SAPC  H10X 5658   1.086   4.793   7.588 -0.5224 -0.5449  1.0643
   67SAPC  H10Y 5659   1.035   4.651   7.513  0.3009 -0.0891  2.1166
   67SAPC  C311 5660   0.890   4.756   7.647  0.0308 -0.2035 -0.5604
   67SAPC  H11X 5661   0.795   4.710   7.612  1.3973 -1.1019 -3.2242
   67SAPC  H11Y 5662   0.860   4.861   7.665 -1.6495 -0.9125  0.8904
   67SAPC  C312 5663   0.939   4.701   7.780 -0.4628  0.2924  0.8231
   67SAPC  H12X 5664   1.036   4.740   7.818  0.2458 -0.1918 -0.4525
   67SAPC  H12Y 5665   0.959   4.593   7.764 -1.2141  0.1389  0.9029
   67SAPC  C313 5666   0.844   4.706   7.907 -0.5491  0.1968  0.2565
   67SAPC  H13X 5667   0.743   4.682   7.865 -0.6146 -0.7661  0.9545
   67SAPC  H13Y 5668   0.837   4.812   7.939  0.0254  0.6997 -1.2519
   67SAPC  C314 5669   0.886   4.622   8.031  0.0636 -0.6962  0.1111
   67SAPC  H14X 5670   0.989   4.650   8.065  0.1241 -2.0788  1.0935
   67SAPC  H14Y 5671   0.901   4.517   7.998 -0.6636 -0.6660 -0.3172
   67SAPC  C315 5672   0.795   4.657   8.147  0.2419  0.3989 -0.5345
   67SAPC  H15X 5673   0.699   4.608   8.121 -2.0892  3.9034  1.1390
   67SAPC  H15Y 5674   0.762   4.763   8.137 -0.8009  0.0598 -0.6477
   67SAPC  C316 5675   0.854   4.636   8.282  0.6358  0.1689  0.4944
   67SAPC  H16X 5676   0.948   4.694   8.295  0.3114  1.1571 -1.3195
   67SAPC  H16Y 5677   0.885   4.530   8.282  1.1832  0.3302  0.5163
   67SAPC  C317 5678   0.751   4.654   8.382  0.0094 -0.4174  0.0809
   67SAPC  H17X 5679   0.652   4.607   8.366  0.5812 -1.4725 -0.4506
   67SAPC  H17Y 5680   0.723   4.761   8.390  0.4061 -0.1369 -2.0839
   67SAPC  C318 5681   0.799   4.601   8.519  0.1358 -0.6700 -0.0485
   67SAPC  H18X 5682   0.892   4.652   8.551  0.6498 -1.6500  0.0123
   67SAPC  H18Y 5683   0.806   4.491   8.522  2.0106 -0.5277  1.9189
   67SAPC  H18Z 5684   0.721   4.633   8.591  1.1012  1.3571  0.1386
   68SAPC     N 5685   5.467   5.183   6.057 -0.2622  0.3715  0.0755
   68SAPC   C12 5686   5.612   5.161   6.016 -0.4078  0.7138 -0.4529
   68SAPC  H12A 5687   5.645   5.219   5.932  2.9227  0.5018  0.6120
   68SAPC  H12B 5688   5.624   5.056   5.994  0.3540  0.8585 -0.7427
   68SAPC   C13 5689   5.435   5.316   6.109 -0.0864  0.7935 -0.2352
   68SAPC  H13A 5690   5.518   5.341   6.173 -0.2792 -1.3923  0.9471
   68SAPC  H13B 5691   5.426   5.393   6.034 -0.6117  0.7418 -0.2285
   68SAPC  H13C 5692   5.341   5.315   6.162 -0.4078 -1.5813 -0.7997
   68SAPC   C14 5693   5.373   5.165   5.941  0.1663  0.2763  0.0896
   68SAPC  H14A 5694   5.380   5.064   5.902 -1.7871  0.0704  0.2046
   68SAPC  H14B 5695   5.270   5.192   5.957  0.0282 -0.6813  0.8558
   68SAPC  H14C 5696   5.397   5.217   5.849 -1.3802  0.1111 -0.4301
   68SAPC   C15 5697   5.429   5.084   6.154  1.0306 -0.1148 -0.4143
   68SAPC  H15A 5698   5.327   5.093   6.188  0.3137  1.3396 -2.8236
   68SAPC  H15B 5699   5.440   4.983   6.116 -2.3301 -0.6016 -0.2162
   68SAPC  H15C 5700   5.505   5.087   6.230 -0.4246 -0.7349  1.1046
   68SAPC   C11 5701   5.715   5.197   6.126  0.4136  0.4025  0.1131
   68SAPC  H11A 5702   5.714   5.307   6.137  0.2227  0.4686 -0.5402
   68SAPC  H11B 5703   5.817   5.194   6.082  0.6544 -0.7744  0.7331
   68SAPC     P 5704   5.755   4.963   6.224  0.1089  0.3609 -0.1274
   68SAPC   O13 5705   5.628   4.883   6.233  0.1247  0.3253 -0.4037
   68SAPC   O14 5706   5.815   4.948   6.092  0.0624  0.1155 -0.0555
   68SAPC   O12 5707   5.712   5.116   6.246 -0.0517  0.0822 -0.2536
   68SAPC   O11 5708   5.861   4.923   6.332  0.9242  0.8648  0.4337
   68SAPC    C1 5709   5.974   5.001   6.380 -0.2677 -0.5542  0.3534
   68SAPC    HA 5710   6.066   4.960   6.332  0.7483  2.2097 -0.1284
   68SAPC    HB 5711   5.972   5.104   6.340  2.4887 -1.4516 -2.3208
   68SAPC    C2 5712   5.989   4.993   6.535  0.2732  0.2589  0.3507
   68SAPC    HS 5713   6.074   5.061   6.557  0.6941  0.1180 -0.7729
   68SAPC   O21 5714   6.028   4.862   6.564  0.8175  0.0732 -0.1640
   68SAPC   C21 5715   6.154   4.828   6.567  0.0659  0.2272  0.6977
   68SAPC   O22 5716   6.253   4.901   6.554 -0.2030  0.1213 -0.2051
   68SAPC   C22 5717   6.154   4.679   6.595  0.6020 -0.9138  0.4547
   68SAPC   H2R 5718   6.048   4.648   6.607 -0.5995  1.5631 -3.0348
   68SAPC   H2S 5719   6.201   4.629   6.507  0.2409 -0.0866 -0.2188
   68SAPC    C3 5720   5.859   5.021   6.618  0.8330 -0.8219 -0.5251
   68SAPC    HX 5721   5.772   4.955   6.598  0.6903 -0.0724 -2.5386
   68SAPC    HY 5722   5.835   5.124   6.583  2.3140 -1.3422 -3.2701
   68SAPC   O31 5723   5.892   5.013   6.756  0.6293 -0.1855 -0.4352
   68SAPC   C31 5724   5.854   5.112   6.827  0.5171 -0.1267 -0.4105
   68SAPC   O32 5725   5.814   5.221   6.786 -0.0887 -0.8263  0.3755
   68SAPC   C32 5726   5.858   5.067   6.978 -0.8515 -0.2316 -0.2657
   68SAPC   H2X 5727   5.960   5.026   6.994 -0.5849 -0.6744 -2.8066
   68SAPC   H2Y 5728   5.786   4.982   6.985  1.2714 -2.1537 -0.9959
   68SAPC   C23 5729   6.236   4.635   6.719  0.4416 -0.0969  0.4075
   68SAPC   H3R 5730   6.341   4.671   6.717  0.8377 -1.2316  0.2021
   68SAPC   H3S 5731   6.240   4.524   6.719 -0.5299 -0.1424 -0.4101
   68SAPC   C24 5732   6.169   4.679   6.847  0.3586 -0.1082 -0.2819
   68SAPC   H4R 5733   6.079   4.617   6.865 -0.3181  1.5322  2.1484
   68SAPC   H4S 5734   6.144   4.787   6.851  0.2118 -0.1139 -0.9240
   68SAPC   C25 5735   6.269   4.666   6.961  0.1205  0.3355 -0.1608
   68SAPC   H5R 5736   6.279   4.561   6.992 -0.1387  0.5233  0.5692
   68SAPC   C26 5737   6.341   4.756   7.038  0.1143 -0.2171  0.3406
   68SAPC   H6R 5738   6.410   4.711   7.111  1.6220  1.8680  0.2482
   68SAPC   C27 5739   6.322   4.908   7.029 -0.5510  0.6894  0.3671
   68SAPC   H7R 5740   6.213   4.925   7.022 -0.4681  1.7438  1.5035
   68SAPC   H7S 5741   6.364   4.953   6.936 -1.4968  0.8272  0.0079
   68SAPC   C28 5742   6.381   4.990   7.138  0.3317  0.0169  0.2184
   68SAPC   H8R 5743   6.439   5.071   7.093  1.3806 -0.7240  0.2155
   68SAPC   C29 5744   6.350   4.988   7.272  0.0562 -0.0730 -0.0145
   68SAPC   H9R 5745   6.407   5.038   7.353 -2.5025 -1.1718  2.5556
   68SAPC  C210 5746   6.240   4.897   7.333  0.1799  0.9076  0.1999
   68SAPC  H10R 5747   6.286   4.803   7.371 -0.4001 -0.1181 -1.5604
   68SAPC  H10S 5748   6.182   4.860   7.245  3.7806  0.4222 -2.0697
   68SAPC  C211 5749   6.153   4.964   7.441 -0.2764 -0.4809 -0.1114
   68SAPC  H11R 5750   6.069   5.025   7.404  0.3171  1.3814  1.5101
   68SAPC  C212 5751   6.164   4.959   7.570 -0.6981  0.3757  0.1355
   68SAPC  H12R 5752   6.092   5.010   7.635  0.4040  2.4554 -0.2529
   68SAPC  C213 5753   6.279   4.887   7.642  0.3231  0.5701  0.6312
   68SAPC  H13R 5754   6.328   4.806   7.584 -0.2786  0.8315 -0.2531
   68SAPC  H13S 5755   6.251   4.833   7.735  3.8491 -0.0914  1.3762
   68SAPC  C214 5756   6.393   4.977   7.674 -0.6858  0.5943 -0.0417
   68SAPC  H14R 5757   6.466   4.975   7.591 -0.4065  0.2557  0.2109
   68SAPC  C215 5758   6.418   5.052   7.781  1.2681  0.8061 -0.1436
   68SAPC  H15R 5759   6.510   5.113   7.787  1.1741  0.8259  1.4451
   68SAPC  C216 5760   6.339   5.073   7.906  0.8218  0.0126 -0.3700
   68SAPC  H16R 5761   6.411   5.049   7.987 -1.5909 -1.4959  1.4131
   68SAPC  H16S 5762   6.254   5.005   7.931  0.0900  0.9944 -0.1628
   68SAPC  C217 5763   6.283   5.221   7.925 -0.4949 -0.8732 -0.1394
   68SAPC  H17R 5764   6.198   5.233   7.854 -1.4299  1.1683  1.2630
   68SAPC  H17S 5765   6.359   5.290   7.884  0.1426 -1.9844 -0.8719
   68SAPC  C218 5766   6.242   5.245   8.072 -0.6594 -0.1066  0.2237
   68SAPC  H18R 5767   6.198   5.151   8.112  4.8406 -3.6736 -1.5805
   68SAPC  H18S 5768   6.161   5.321   8.071  0.2897  0.9383  1.3968
   68SAPC  C219 5769   6.350   5.299   8.160  0.2330 -0.5248  0.0727
   68SAPC  H19R 5770   6.405   5.387   8.119 -0.6749 -0.1916 -0.4716
   68SAPC  H19S 5771   6.428   5.222   8.171  0.3292 -0.5433 -0.7233
   68SAPC  C220 5772   6.286   5.332   8.296  0.0973  0.3612  0.9369
   68SAPC  H20R 5773   6.355   5.367   8.375  0.1691  0.6821  0.7326
   68SAPC  H20S 5774   6.257   5.234   8.338  2.0625 -0.1358  1.1562
   68SAPC  H20T 5775   6.206   5.409   8.291  0.1265  0.3846  0.8209
   68SAPC   C33 5776   5.825   5.180   7.073 -0.0959 -0.0053  0.2232
   68SAPC   H3X 5777   5.735   5.228   7.028 -0.7922 -0.1322  1.4361
   68SAPC   H3Y 5778   5.899   5.263   7.071 -0.9321  0.9517  4.1484
   68SAPC   C34 5779   5.789   5.128   7.209 -0.1631 -0.0110 -0.2215
   68SAPC   H4X 5780   5.865   5.055   7.244 -1.9632 -1.5764  0.4774
   68SAPC   H4Y 5781   5.689   5.081   7.210  0.5879 -1.7413  3.9789
   68SAPC   C35 5782   5.779   5.242   7.312 -0.4349  0.5037 -0.1260
   68SAPC   H5X 5783   5.709   5.208   7.391 -2.7814  2.5136 -1.2612
   68SAPC   H5Y 5784   5.724   5.322   7.258 -0.6892 -0.0750 -0.7363
   68SAPC   C36 5785   5.908   5.290   7.383 -0.4465  0.3180 -0.5179
   68SAPC   H6X 5786   5.967   5.335   7.300 -1.1246  1.3371 -0.4721
   68SAPC   H6Y 5787   5.969   5.204   7.416  0.0934  0.6519 -0.6464
   68SAPC   C37 5788   5.890   5.404   7.491 -0.8805  0.6513 -0.6743
   68SAPC   H7X 5789   5.836   5.484   7.436 -0.0183  1.3995 -0.4492
   68SAPC   H7Y 5790   5.998   5.423   7.509 -0.8101  0.9582 -1.4304
   68SAPC   C38 5791   5.831   5.355   7.625 -0.1139 -0.2202  0.2596
   68SAPC   H8X 5792   5.728   5.319   7.604  0.2354 -2.0745  1.5586
   68SAPC   H8Y 5793   5.832   5.438   7.699 -3.6194 -0.5801  0.8238
   68SAPC   C39 5794   5.903   5.237   7.695 -0.1823  0.5595 -0.0087
   68SAPC   H9X 5795   6.005   5.278   7.713  0.6842 -2.0363  1.3471
   68SAPC   H9Y 5796   5.910   5.156   7.619 -0.8968  2.5605 -2.2423
   68SAPC  C310 5797   5.847   5.194   7.832  0.1265  0.4472 -0.0915
   68SAPC  H10X 5798   5.749   5.141   7.830  0.6182 -0.7172  3.5919
   68SAPC  H10Y 5799   5.827   5.282   7.896 -1.1285 -0.2263  0.4646
   68SAPC  C311 5800   5.941   5.103   7.911  0.6863  1.1990 -0.1870
   68SAPC  H11X 5801   6.012   5.165   7.970  0.6372 -0.3157  1.5340
   68SAPC  H11Y 5802   6.000   5.035   7.847  0.5033  0.9679 -0.1120
   68SAPC  C312 5803   5.856   5.021   8.011 -0.2426 -0.0951  0.3993
   68SAPC  H12X 5804   5.778   4.957   7.964 -0.6818  0.6441  0.0955
   68SAPC  H12Y 5805   5.798   5.098   8.066 -2.3162 -2.3087  1.4071
   68SAPC  C313 5806   5.935   4.929   8.105 -0.7436  0.4481  0.5847
   68SAPC  H13X 5807   6.009   4.984   8.167 -1.1808  1.0438  0.5831
   68SAPC  H13Y 5808   5.998   4.869   8.036  1.3939  2.5502  0.6364
   68SAPC  C314 5809   5.855   4.842   8.207  0.3283  0.0672  0.2399
   68SAPC  H14X 5810   5.781   4.771   8.162 -0.1626  1.4196 -1.1534
   68SAPC  H14Y 5811   5.782   4.900   8.267 -1.9005 -1.6213 -0.7684
   68SAPC  C315 5812   5.950   4.758   8.300  0.1071  0.0520  0.2244
   68SAPC  H15X 5813   5.887   4.695   8.367 -0.5872 -0.5651 -0.9904
   68SAPC  H15Y 5814   6.004   4.823   8.372  0.9551 -1.0125  0.5635
   68SAPC  C316 5815   6.055   4.668   8.218  0.4156  0.0278 -0.2956
   68SAPC  H16X 5816   6.144   4.731   8.197 -0.1284  1.6155  1.8763
   68SAPC  H16Y 5817   6.022   4.631   8.119 -1.2296 -0.4576  0.4153
   68SAPC  C317 5818   6.094   4.551   8.307 -0.0987  0.4346 -0.3697
   68SAPC  H17X 5819   6.007   4.481   8.309 -0.5088  0.9618  0.4546
   68SAPC  H17Y 5820   6.097   4.590   8.410  0.9571  2.7730 -1.2488
   68SAPC  C318 5821   6.216   4.465   8.282 -0.3857  0.5695  0.5166
   68SAPC  H18X 5822   6.301   4.536   8.279  0.3483 -0.3014  0.2537
   68SAPC  H18Y 5823   6.218   4.429   8.177  1.1526 -0.9736  1.0499
   68SAPC  H18Z 5824   6.233   4.379   8.351 -1.1386  1.5715  1.9664
   69SLPC     N 5825   4.814   3.111  11.209 -0.0594 -0.2369  0.4743
   69SLPC   C13 5826   4.704   3.207  11.239 -0.6013  0.4893 -0.0924
   69SLPC  H13A 5827   4.687   3.198  11.346  0.3249  0.8565  0.0873
   69SLPC  H13B 5828   4.729   3.308  11.211 -0.1955  0.6813  0.9467
   69SLPC  H13C 5829   4.620   3.183  11.175  1.7730 -0.1443 -3.0363
   69SLPC   C14 5830   4.785   2.983  11.268 -0.0642  0.9336 -0.1359
   69SLPC  H14A 5831   4.853   2.913  11.222  2.2508  2.1171  1.4099
   69SLPC  H14B 5832   4.791   2.988  11.376  0.3758  0.4903 -0.1407
   69SLPC  H14C 5833   4.693   2.938  11.234  0.0058  0.1629  0.6717
   69SLPC   C15 5834   4.932   3.170  11.276 -0.5282 -0.3562 -0.0358
   69SLPC  H15A 5835   4.949   3.271  11.242 -0.8752  0.1628  1.2796
   69SLPC  H15B 5836   4.919   3.183  11.383  2.0088  1.1679  0.1311
   69SLPC  H15C 5837   5.015   3.102  11.260 -1.8953 -1.6046 -2.0762
   69SLPC   C12 5838   4.839   3.097  11.063 -0.8026 -0.4189  0.3945
   69SLPC  H12A 5839   4.940   3.066  11.040 -0.2325  0.9074  1.0879
   69SLPC  H12B 5840   4.838   3.196  11.021 -0.9799 -0.8409 -0.6008
   69SLPC   C11 5841   4.739   3.004  10.985  0.1030 -0.5209 -0.6316
   69SLPC  H11A 5842   4.765   3.028  10.880  0.1948  0.9613 -0.2841
   69SLPC  H11B 5843   4.636   3.041  11.003  0.5136 -0.9721  2.9591
   69SLPC     P 5844   4.884   2.787  10.975 -0.2384 -0.4034 -0.1684
   69SLPC   O13 5845   5.016   2.840  11.021 -0.2612  0.2322  0.3411
   69SLPC   O14 5846   4.858   2.644  11.004  0.4637  0.6361  0.0094
   69SLPC   O12 5847   4.754   2.864  11.013 -0.1451 -0.1539 -0.1105
   69SLPC   O11 5848   4.868   2.806  10.821  0.4371  0.1714  0.0123
   69SLPC    C1 5849   4.757   2.740  10.750 -0.1222  0.1118  0.3800
   69SLPC    HA 5850   4.748   2.629  10.752  1.8296 -0.0485  1.1401
   69SLPC    HB 5851   4.657   2.781  10.778 -1.2326 -0.1787 -2.9613
   69SLPC    C2 5852   4.760   2.779  10.600  0.5685  0.5444  0.4351
   69SLPC    HS 5853   4.659   2.750  10.562  0.8016 -2.9960  2.3209
   69SLPC   O21 5854   4.860   2.701  10.536 -0.0792  0.8893  0.1599
   69SLPC   C21 5855   4.829   2.646  10.415 -0.1109 -0.2506  1.4527
   69SLPC   O22 5856   4.725   2.645  10.358 -0.1985 -0.6027  0.5172
   69SLPC   C22 5857   4.958   2.589  10.350 -0.3765  0.0447 -0.9132
   69SLPC   H2R 5858   5.038   2.631  10.414 -0.0122 -3.2164  0.8726
   69SLPC   H2S 5859   4.946   2.478  10.358 -1.9857  0.1306 -1.7912
   69SLPC    C3 5860   4.779   2.930  10.580 -0.1137 -0.3460 -0.3101
   69SLPC    HX 5861   4.876   2.961  10.623  0.5187 -0.3796 -1.7150
   69SLPC    HY 5862   4.698   2.981  10.636  0.5661 -1.5010  1.7859
   69SLPC   O31 5863   4.775   2.985  10.440  0.1024  0.2800 -0.1167
   69SLPC   C31 5864   4.666   2.978  10.368  0.4297  0.3542 -0.3967
   69SLPC   O32 5865   4.569   2.917  10.405  0.3346 -0.5070  0.0297
   69SLPC   C32 5866   4.686   3.040  10.225  0.0007  0.2930  0.4283
   69SLPC   H2X 5867   4.791   3.019  10.194 -0.3787 -0.9271 -0.0954
   69SLPC   H2Y 5868   4.674   3.149  10.239 -0.7870  0.4210 -1.1530
   69SLPC   C23 5869   4.980   2.628  10.198 -0.5461 -0.5114  1.1228
   69SLPC   H3R 5870   4.891   2.598  10.138  0.2627  1.2335 -1.0281
   69SLPC   H3S 5871   5.073   2.583  10.158  1.6730  3.5702  1.5075
   69SLPC   C24 5872   5.003   2.781  10.191  0.1871 -0.3170 -0.0375
   69SLPC   H4R 5873   5.078   2.816  10.265  0.7889 -1.0892 -0.2764
   69SLPC   H4S 5874   4.910   2.835  10.216  0.4508 -0.3473  1.0434
   69SLPC   C25 5875   5.039   2.852  10.056  0.1814  0.0512 -0.1773
   69SLPC   H5R 5876   5.144   2.836  10.024  0.1744 -0.3321 -0.0201
   69SLPC   H5S 5877   5.025   2.961  10.070  0.1388  0.0080  0.1159
   69SLPC   C26 5878   4.950   2.801   9.944  0.1709 -0.4472 -0.1058
   69SLPC   H6R 5879   4.850   2.819   9.989  1.6537  2.1067  2.3713
   69SLPC   H6S 5880   4.955   2.692   9.925  1.4871 -0.1358 -1.6320
   69SLPC   C27 5881   4.972   2.868   9.805  0.6264  0.1569  0.2303
   69SLPC   H7R 5882   4.935   2.969   9.830 -0.7976 -0.9890  2.9203
   69SLPC   H7S 5883   4.910   2.813   9.731  1.1487 -0.2706  0.1004
   69SLPC   C28 5884   5.121   2.879   9.755  0.5010  0.8797 -0.0273
   69SLPC   H8R 5885   5.186   2.941   9.821  0.0472  1.7390 -0.3824
   69SLPC   H8S 5886   5.130   2.932   9.657  1.2433  1.4418  0.3373
   69SLPC   C29 5887   5.180   2.735   9.744 -0.0394 -0.1519  0.5376
   69SLPC   H9R 5888   5.218   2.705   9.843 -2.0192 -1.6298  0.8914
   69SLPC  C210 5889   5.167   2.647   9.643 -0.5306  0.0246 -0.4766
   69SLPC  H10R 5890   5.213   2.550   9.663 -0.1817 -0.1326 -2.0400
   69SLPC  C211 5891   5.095   2.668   9.516 -0.4364 -0.3058  0.2686
   69SLPC  H11R 5892   5.173   2.690   9.441 -0.6686 -2.6659 -0.6954
   69SLPC  H11S 5893   5.021   2.751   9.522 -0.8695 -0.5506 -1.5189
   69SLPC  C212 5894   5.023   2.543   9.479 -0.1358 -0.4295 -0.4067
   69SLPC  H12R 5895   4.974   2.495   9.564 -0.6129  2.2131  0.8725
   69SLPC  C213 5896   5.001   2.485   9.359 -0.1849 -0.2328  0.7936
   69SLPC  H13R 5897   4.935   2.397   9.350 -2.8466  1.7827  0.0156
   69SLPC  C214 5898   5.043   2.543   9.226  0.4287 -0.3994 -0.4664
   69SLPC  H14R 5899   5.141   2.596   9.231 -0.2417  0.7468  0.8822
   69SLPC  H14S 5900   4.977   2.631   9.211 -0.6616 -1.0401  0.5676
   69SLPC  C215 5901   5.034   2.441   9.113  0.2151 -0.0119  0.1014
   69SLPC  H15R 5902   4.935   2.390   9.118  0.4341 -0.5019 -0.5762
   69SLPC  H15S 5903   5.109   2.362   9.135 -2.5973 -2.4327  1.3429
   69SLPC  C216 5904   5.045   2.513   8.975  0.3435  0.5745  0.3712
   69SLPC  H16R 5905   5.141   2.568   8.969  0.4730  0.1267 -2.3357
   69SLPC  H16S 5906   4.962   2.586   8.970 -0.9933 -1.0230 -1.7293
   69SLPC  C217 5907   5.039   2.415   8.864 -0.0147  0.2964  0.6321
   69SLPC  H17R 5908   5.011   2.462   8.767 -3.0014  1.6697  2.1305
   69SLPC  H17S 5909   4.954   2.344   8.871  0.3677 -0.1916  0.4314
   69SLPC  C218 5910   5.166   2.328   8.841 -0.8961 -0.2510  0.2340
   69SLPC  H18R 5911   5.174   2.253   8.923 -0.1857 -1.1099 -0.6119
   69SLPC  H18S 5912   5.255   2.394   8.846 -0.8362 -0.3525  0.5250
   69SLPC  H18T 5913   5.154   2.268   8.749  1.3811 -0.5096  0.0735
   69SLPC   C33 5914   4.602   2.973  10.116 -0.2160 -0.1697 -0.2166
   69SLPC   H3X 5915   4.496   2.992  10.144 -0.4098 -0.8164 -0.5177
   69SLPC   H3Y 5916   4.612   2.863  10.114 -0.4027 -0.1959  0.2114
   69SLPC   C34 5917   4.628   3.043   9.980  0.0373 -0.1450 -0.6216
   69SLPC   H4X 5918   4.739   3.044   9.967  0.2378 -0.2346  1.0072
   69SLPC   H4Y 5919   4.596   3.149   9.990 -0.3033 -0.4050  1.1149
   69SLPC   C35 5920   4.553   2.965   9.863  0.8357  0.4530  0.8953
   69SLPC   H5X 5921   4.449   2.963   9.903  0.6125 -1.2206  0.2760
   69SLPC   H5Y 5922   4.601   2.865   9.857 -1.5183 -0.5944 -2.1301
   69SLPC   C36 5923   4.572   3.036   9.730  0.3976 -0.4847  0.0421
   69SLPC   H6X 5924   4.491   3.010   9.659  0.5768  2.7914 -1.4533
   69SLPC   H6Y 5925   4.666   3.007   9.678 -0.1129 -0.4967 -0.8736
   69SLPC   C37 5926   4.570   3.191   9.736  0.2680 -0.2132  0.0615
   69SLPC   H7X 5927   4.666   3.219   9.783  0.0298  3.0428 -1.2660
   69SLPC   H7Y 5928   4.492   3.241   9.798  0.7598  1.7325 -0.8551
   69SLPC   C38 5929   4.549   3.267   9.603  0.2977  0.3693 -0.4076
   69SLPC   H8X 5930   4.445   3.244   9.570 -0.5798  4.8264 -1.0131
   69SLPC   H8Y 5931   4.628   3.224   9.538  0.3176  0.0408 -0.1685
   69SLPC   C39 5932   4.558   3.421   9.615  0.2014  0.3694 -0.4537
   69SLPC   H9X 5933   4.663   3.447   9.642  0.1656 -0.5185  0.5575
   69SLPC   H9Y 5934   4.489   3.434   9.700  1.9274 -2.3232  1.4466
   69SLPC  C310 5935   4.510   3.483   9.483 -0.1598  0.0948 -0.0682
   69SLPC  H10X 5936   4.531   3.592   9.477 -0.3380  0.1318  0.0031
   69SLPC  H10Y 5937   4.399   3.485   9.488 -0.2326 -0.1651 -1.4942
   69SLPC  C311 5938   4.559   3.413   9.353  1.0031  0.0134  0.1383
   69SLPC  H11X 5939   4.531   3.306   9.341 -1.7994  0.9785 -2.8080
   69SLPC  H11Y 5940   4.668   3.422   9.336  0.8058 -1.5015 -2.2719
   69SLPC  C312 5941   4.496   3.500   9.233  0.4874 -0.0884 -1.1636
   69SLPC  H12X 5942   4.515   3.605   9.263  1.7344 -0.6303 -0.0083
   69SLPC  H12Y 5943   4.387   3.481   9.246 -0.1321  2.3879 -2.3857
   69SLPC  C313 5944   4.524   3.462   9.089 -0.1576 -0.7723 -0.3343
   69SLPC  H13X 5945   4.458   3.381   9.051 -0.6754 -1.7893  2.6145
   69SLPC  H13Y 5946   4.629   3.427   9.092  0.2326  0.4773  1.3163
   69SLPC  C314 5947   4.539   3.573   8.986  0.5738 -0.2692  0.0731
   69SLPC  H14X 5948   4.613   3.569   8.904  0.4349  0.0708 -0.0711
   69SLPC  H14Y 5949   4.570   3.663   9.044  1.1396 -0.1888 -0.3595
   69SLPC  C315 5950   4.397   3.619   8.939  0.6233  0.2814  0.4149
   69SLPC  H15X 5951   4.344   3.661   9.026 -0.3628  2.1214 -1.0407
   69SLPC  H15Y 5952   4.334   3.536   8.902  2.0879 -0.6367 -0.0829
   69SLPC  C316 5953   4.405   3.732   8.837  0.3761  0.1300 -0.2890
   69SLPC  H16X 5954   4.445   3.822   8.889 -1.9044  1.2724 -0.4567
   69SLPC  H16Y 5955   4.304   3.770   8.812 -0.2766 -0.7965  0.8919
   69SLPC  C317 5956   4.492   3.708   8.717  1.0044 -0.5168  0.2241
   69SLPC  H17X 5957   4.489   3.601   8.688 -0.4874 -0.4461  0.1119
   69SLPC  H17Y 5958   4.600   3.729   8.734  0.7898 -0.9091  2.1627
   69SLPC  C318 5959   4.445   3.796   8.599 -0.1455 -0.5045 -0.0111
   69SLPC  H18X 5960   4.336   3.803   8.581 -0.3190 -0.3020  1.0965
   69SLPC  H18Y 5961   4.487   3.762   8.502 -0.1491 -0.9862  0.1574
   69SLPC  H18Z 5962   4.479   3.901   8.613  0.1428 -0.5364 -0.4373
   70SLPC     N 5963   5.461   0.244  11.141  0.0205  0.1498  0.3497
   70SLPC   C13 5964   5.586   0.236  11.225  0.5636  0.2542 -0.1841
   70SLPC  H13A 5965   5.629   0.137  11.219  0.5575  0.2896 -0.9208
   70SLPC  H13B 5966   5.655   0.315  11.197 -1.6799  1.1028 -3.6421
   70SLPC  H13C 5967   5.556   0.241  11.328  0.0890  2.5943 -0.4138
   70SLPC   C14 5968   5.399   0.384  11.160 -0.0743 -0.2887  0.1059
   70SLPC  H14A 5969   5.405   0.413  11.264  0.4657 -0.3170  0.0872
   70SLPC  H14B 5970   5.446   0.449  11.087  1.0642  1.3791  2.2283
   70SLPC  H14C 5971   5.296   0.381  11.130 -0.1169 -1.3775  0.3476
   70SLPC   C15 5972   5.366   0.144  11.211 -0.5311  0.6856 -0.6852
   70SLPC  H15A 5973   5.274   0.135  11.155 -1.5343 -1.1016  1.2065
   70SLPC  H15B 5974   5.408   0.044  11.211  0.0375  0.9214 -0.2148
   70SLPC  H15C 5975   5.331   0.167  11.310  3.0287 -1.8381  1.2423
   70SLPC   C12 5976   5.488   0.207  10.998  0.9234  0.4195  0.5626
   70SLPC  H12A 5977   5.545   0.117  10.983  0.8832  0.5722 -0.5474
   70SLPC  H12B 5978   5.544   0.289  10.954  0.0690 -0.1519 -1.6644
   70SLPC   C11 5979   5.361   0.196  10.901 -0.0083  0.2813 -0.1490
   70SLPC  H11A 5980   5.390   0.220  10.796  1.1115  0.2082  0.1344
   70SLPC  H11B 5981   5.288   0.274  10.930 -0.8176 -0.0355 -1.2884
   70SLPC     P 5982   5.375  -0.052  10.836  0.4121  0.0097 -0.2449
   70SLPC   O13 5983   5.520  -0.048  10.838  0.0658  0.2237  0.6063
   70SLPC   O14 5984   5.323  -0.182  10.888 -0.4967 -0.3987  0.2200
   70SLPC   O12 5985   5.313   0.061  10.922 -0.1635  0.0594  0.7613
   70SLPC   O11 5986   5.331  -0.030  10.693 -0.2857 -0.1784  0.3110
   70SLPC    C1 5987   5.199   0.017  10.650 -0.4397 -0.1994  0.0341
   70SLPC    HA 5988   5.124   0.005  10.731  1.1125 -1.4780  1.3089
   70SLPC    HB 5989   5.217   0.124  10.625  1.9572 -0.4976  0.3195
   70SLPC    C2 5990   5.153  -0.066  10.522 -0.1117  0.2465 -0.5682
   70SLPC    HS 5991   5.154  -0.173  10.554 -2.3799 -0.2371 -2.0114
   70SLPC   O21 5992   5.244  -0.029  10.421 -0.5448 -0.6231 -0.1121
   70SLPC   C21 5993   5.264  -0.122  10.330 -0.6471 -0.4924  0.2865
   70SLPC   O22 5994   5.214  -0.235  10.331  0.0891  0.0503 -0.2297
   70SLPC   C22 5995   5.350  -0.060  10.216 -0.6397 -0.1207  0.9606
   70SLPC   H2R 5996   5.416   0.014  10.268 -1.3397  1.5054 -0.4187
   70SLPC   H2S 5997   5.415  -0.139  10.173 -0.7369  0.6426 -0.6256
   70SLPC    C3 5998   5.009  -0.038  10.474  0.6230 -0.3922 -0.1744
   70SLPC    HX 5999   4.936  -0.055  10.555 -2.5602  1.3303 -2.5531
   70SLPC    HY 6000   4.987  -0.121  10.403 -1.2204  0.7239 -0.9372
   70SLPC   O31 6001   4.989   0.086  10.397  0.1776  0.2177  0.2047
   70SLPC   C31 6002   4.968   0.199  10.472  0.2555  0.7885  0.1602
   70SLPC   O32 6003   4.953   0.198  10.592  0.5615  0.8925  0.0914
   70SLPC   C32 6004   4.982   0.329  10.392  0.2174 -0.0507 -0.4252
   70SLPC   H2X 6005   5.084   0.358  10.359 -0.6076  2.6484 -0.7555
   70SLPC   H2Y 6006   4.955   0.404  10.469 -2.2689 -0.4677 -0.8641
   70SLPC   C23 6007   5.270   0.013  10.100 -0.2545 -0.4206  0.0862
   70SLPC   H3R 6008   5.209   0.096  10.141  1.1422 -0.1092  1.5995
   70SLPC   H3S 6009   5.198  -0.061  10.059  0.0678 -1.3164  1.1074
   70SLPC   C24 6010   5.367   0.054   9.990  0.5813  0.8658  0.3983
   70SLPC   H4R 6011   5.398  -0.039   9.939 -0.1778 -1.2656  3.6505
   70SLPC   H4S 6012   5.458   0.111  10.021  0.0132  1.0090  1.8659
   70SLPC   C25 6013   5.293   0.148   9.886 -0.8300 -0.1586  0.4715
   70SLPC   H5R 6014   5.258   0.232   9.950 -0.7714  1.0995 -1.1175
   70SLPC   H5S 6015   5.204   0.094   9.847  0.6844 -1.5428 -1.1604
   70SLPC   C26 6016   5.385   0.187   9.778 -0.3308  0.3627  0.1612
   70SLPC   H6R 6017   5.408   0.104   9.708  0.0050  1.0606 -0.5697
   70SLPC   H6S 6018   5.487   0.215   9.813  0.8314 -0.5195 -2.4161
   70SLPC   C27 6019   5.336   0.313   9.709  0.4023 -0.0239 -0.1438
   70SLPC   H7R 6020   5.427   0.337   9.649  0.2879  0.3543 -0.1704
   70SLPC   H7S 6021   5.318   0.400   9.776 -1.3202  0.9543 -1.8163
   70SLPC   C28 6022   5.213   0.284   9.614  0.9158  0.0979  0.7655
   70SLPC   H8R 6023   5.202   0.372   9.547 -1.0262  0.8023  1.9544
   70SLPC   H8S 6024   5.119   0.284   9.675  1.0594  1.2900  1.0015
   70SLPC   C29 6025   5.236   0.158   9.532 -0.2772 -0.7188  0.9962
   70SLPC   H9R 6026   5.286   0.077   9.588  0.6577  0.1617  1.4657
   70SLPC  C210 6027   5.225   0.127   9.398 -0.2318  0.1188  0.5703
   70SLPC  H10R 6028   5.246   0.028   9.355 -1.5657  0.6473 -1.3272
   70SLPC  C211 6029   5.175   0.223   9.289 -0.2544  0.5291 -0.3823
   70SLPC  H11R 6030   5.100   0.294   9.331 -0.4671 -0.5717  1.1403
   70SLPC  H11S 6031   5.112   0.167   9.216  2.3755 -1.1743 -1.4081
   70SLPC  C212 6032   5.285   0.292   9.216 -0.1827  0.1249  0.3621
   70SLPC  H12R 6033   5.337   0.368   9.276  1.2148  0.7783 -1.6026
   70SLPC  C213 6034   5.346   0.256   9.103 -0.4147 -0.4744 -0.0296
   70SLPC  H13R 6035   5.433   0.313   9.068 -1.1359  1.9450  1.9585
   70SLPC  C214 6036   5.317   0.142   9.009  0.6598  0.1111  0.1573
   70SLPC  H14R 6037   5.254   0.071   9.068 -0.2752  1.8220  1.2694
   70SLPC  H14S 6038   5.411   0.088   8.987  0.0273 -1.3421  0.9205
   70SLPC  C215 6039   5.234   0.158   8.882  0.0978 -0.6728  0.3297
   70SLPC  H15R 6040   5.135   0.184   8.926 -0.2698  0.0718 -0.9251
   70SLPC  H15S 6041   5.233   0.064   8.824  1.3829 -1.7352  1.9886
   70SLPC  C216 6042   5.299   0.251   8.773 -0.5916  0.2624  0.7796
   70SLPC  H16R 6043   5.315   0.348   8.825 -1.7454  0.4159  0.8793
   70SLPC  H16S 6044   5.230   0.270   8.687 -0.9988 -0.4111  0.9567
   70SLPC  C217 6045   5.433   0.195   8.727  0.2628 -0.3714  0.0739
   70SLPC  H17R 6046   5.432   0.088   8.696  3.2046 -0.4280  0.0955
   70SLPC  H17S 6047   5.503   0.200   8.812 -0.6883 -0.7985  0.9008
   70SLPC  C218 6048   5.492   0.273   8.608 -0.4744  0.3115 -0.0846
   70SLPC  H18R 6049   5.595   0.238   8.583 -0.4208  0.5767 -0.2316
   70SLPC  H18S 6050   5.499   0.382   8.628 -1.8990  0.7159 -1.6556
   70SLPC  H18T 6051   5.428   0.262   8.518  0.7633  0.7695 -1.0398
   70SLPC   C33 6052   4.878   0.355  10.278  0.4115  0.6657  0.1011
   70SLPC   H3X 6053   4.870   0.463  10.252 -1.1097  0.1576 -1.6254
   70SLPC   H3Y 6054   4.778   0.323  10.314  0.0085 -0.4272 -1.9431
   70SLPC   C34 6055   4.923   0.292  10.150  0.3806 -0.2879 -0.8025
   70SLPC   H4X 6056   4.966   0.193  10.177 -1.0116 -0.1423  2.1820
   70SLPC   H4Y 6057   5.014   0.343  10.111  1.2987 -2.7241 -1.9212
   70SLPC   C35 6058   4.820   0.277  10.034 -0.5911 -0.3065 -0.2701
   70SLPC   H5X 6059   4.883   0.270   9.943  0.0929 -0.8762  0.2307
   70SLPC   H5Y 6060   4.766   0.373  10.028  2.0819  1.3466  1.2035
   70SLPC   C36 6061   4.720   0.162  10.052  0.4331  0.1187  0.0325
   70SLPC   H6X 6062   4.635   0.174  10.122  0.2145  0.0270 -0.2142
   70SLPC   H6Y 6063   4.784   0.080  10.091  0.1698 -0.6280 -1.0805
   70SLPC   C37 6064   4.670   0.121   9.907  0.3142 -0.2885 -0.1033
   70SLPC   H7X 6065   4.642   0.013   9.901  0.1232 -0.2854  0.6653
   70SLPC   H7Y 6066   4.748   0.129   9.829  0.2735  0.0495 -0.1071
   70SLPC   C38 6067   4.537   0.204   9.870 -0.1074  0.3864 -0.3548
   70SLPC   H8X 6068   4.553   0.310   9.840 -1.7724  1.4522  2.3583
   70SLPC   H8Y 6069   4.467   0.202   9.956 -1.0035 -0.5030 -1.0913
   70SLPC   C39 6070   4.471   0.154   9.740 -0.8519  0.0443 -0.2281
   70SLPC   H9X 6071   4.442   0.053   9.774  1.3608 -0.8134 -0.8437
   70SLPC   H9Y 6072   4.532   0.146   9.648  0.2491  0.0369  0.4949
   70SLPC  C310 6073   4.342   0.234   9.706  0.4609 -0.2109 -0.8676
   70SLPC  H10X 6074   4.366   0.334   9.664  1.4591 -0.9253 -2.0471
   70SLPC  H10Y 6075   4.276   0.243   9.795 -0.6244  0.1094 -1.6938
   70SLPC  C311 6076   4.263   0.166   9.593  0.4497 -0.0468  0.0137
   70SLPC  H11X 6077   4.224   0.076   9.645 -0.2178  0.4805  0.4248
   70SLPC  H11Y 6078   4.325   0.140   9.504 -1.5500  0.1635 -1.4865
   70SLPC  C312 6079   4.139   0.236   9.545 -0.8369  0.1551 -0.9948
   70SLPC  H12X 6080   4.170   0.323   9.483  1.8367  0.3608  0.5450
   70SLPC  H12Y 6081   4.073   0.273   9.627  0.5840 -0.1258  0.2925
   70SLPC  C313 6082   4.050   0.156   9.454  0.6251  0.3083 -0.0005
   70SLPC  H13X 6083   4.020   0.061   9.503 -2.0532  0.7284 -0.7902
   70SLPC  H13Y 6084   4.105   0.127   9.362 -0.5305 -1.1838 -0.2307
   70SLPC  C314 6085   3.922   0.225   9.424 -0.3164  0.7702 -0.2345
   70SLPC  H14X 6086   3.877   0.269   9.516 -0.9054 -1.7536  0.7015
   70SLPC  H14Y 6087   3.845   0.149   9.399  2.2603 -1.4247 -1.6402
   70SLPC  C315 6088   3.909   0.315   9.298 -0.2500 -0.0150 -0.2601
   70SLPC  H15X 6089   3.953   0.269   9.207 -0.8613 -0.7469 -0.1825
   70SLPC  H15Y 6090   3.962   0.413   9.300 -1.0451  0.4619 -1.6285
   70SLPC  C316 6091   3.760   0.352   9.266  1.0058 -0.0058  0.2729
   70SLPC  H16X 6092   3.725   0.401   9.359 -1.4257 -1.5105  0.2078
   70SLPC  H16Y 6093   3.713   0.251   9.260 -1.0508  1.0260 -2.2436
   70SLPC  C317 6094   3.737   0.433   9.135 -0.0697  0.3161  0.3263
   70SLPC  H17X 6095   3.785   0.532   9.148  2.2663 -0.3344 -2.6709
   70SLPC  H17Y 6096   3.628   0.436   9.113 -0.0722 -3.7468 -0.6757
   70SLPC  C318 6097   3.801   0.378   9.008  0.0169  0.1572 -0.4580
   70SLPC  H18X 6098   3.758   0.427   8.917 -0.4666  0.5399 -0.0225
   70SLPC  H18Y 6099   3.765   0.273   9.012 -0.9179  0.5444  2.9486
   70SLPC  H18Z 6100   3.911   0.389   9.011  0.0508 -0.2122 -0.4222
   71SLPC     N 6101   4.510   5.557  10.911  0.3951 -0.2192 -0.2441
   71SLPC   C13 6102   4.534   5.550  11.057  0.0791  0.0488  0.0770
   71SLPC  H13A 6103   4.471   5.593  11.134  2.2508 -1.1267  2.5910
   71SLPC  H13B 6104   4.535   5.448  11.091  0.2246  0.7158  2.1690
   71SLPC  H13C 6105   4.635   5.585  11.073 -0.3861 -0.0174  3.5959
   71SLPC   C14 6106   4.620   5.479  10.846 -0.8017 -0.1673  0.1026
   71SLPC  H14A 6107   4.590   5.455  10.745  0.4450  3.1414 -1.1270
   71SLPC  H14B 6108   4.713   5.533  10.844 -0.3318 -0.9923 -1.4625
   71SLPC  H14C 6109   4.639   5.377  10.876 -0.8745 -1.3786 -3.6995
   71SLPC   C15 6110   4.519   5.704  10.855  0.7560  0.4979 -0.2359
   71SLPC  H15A 6111   4.426   5.748  10.889 -0.2192 -2.4997  1.1632
   71SLPC  H15B 6112   4.610   5.758  10.876 -0.5248  2.3210  0.7623
   71SLPC  H15C 6113   4.499   5.697  10.749 -0.7326  1.5646 -0.0369
   71SLPC   C12 6114   4.365   5.499  10.887  0.8481  0.7480  0.9888
   71SLPC  H12A 6115   4.292   5.522  10.963 -1.2611 -3.5678  0.3988
   71SLPC  H12B 6116   4.380   5.395  10.913  0.1037  0.9077  2.0991
   71SLPC   C11 6117   4.276   5.540  10.758 -0.4883 -0.2164  0.3194
   71SLPC  H11A 6118   4.200   5.462  10.735 -1.1545  1.0090 -1.7591
   71SLPC  H11B 6119   4.351   5.537  10.676  2.6103  0.9638  3.0123
   71SLPC     P 6120   4.181   5.765  10.674  0.2668  0.0089 -0.3174
   71SLPC   O13 6121   4.035   5.782  10.673  0.0414 -0.1893 -0.4740
   71SLPC   O14 6122   4.256   5.890  10.690  0.3700 -0.6513 -0.4459
   71SLPC   O12 6123   4.224   5.666  10.789  0.0667  0.2712  0.5714
   71SLPC   O11 6124   4.220   5.697  10.539 -0.7295 -0.4654 -0.2275
   71SLPC    C1 6125   4.127   5.621  10.466 -0.3335  0.5494 -0.4349
   71SLPC    HA 6126   4.194   5.559  10.402  0.7269 -0.4509  1.5842
   71SLPC    HB 6127   4.082   5.538  10.525  0.0462  0.8784  0.3332
   71SLPC    C2 6128   4.020   5.693  10.374  0.0602  0.2743 -0.2373
   71SLPC    HS 6129   3.938   5.734  10.438  0.4169 -0.0198  0.4116
   71SLPC   O21 6130   3.979   5.607  10.266  0.7007  0.0661 -0.9836
   71SLPC   C21 6131   3.863   5.554  10.278  0.1389 -0.5038  0.0583
   71SLPC   O22 6132   3.780   5.579  10.361  0.0869 -0.1935  0.3568
   71SLPC   C22 6133   3.843   5.455  10.172  0.2428  0.6615 -0.0434
   71SLPC   H2R 6134   3.878   5.364  10.224  1.6612  0.6138 -1.0449
   71SLPC   H2S 6135   3.736   5.433  10.150  0.3574 -1.5276  1.4306
   71SLPC    C3 6136   4.091   5.816  10.306 -0.5971  0.0414  0.4410
   71SLPC    HX 6137   4.125   5.888  10.384 -1.4949  1.2481 -0.2563
   71SLPC    HY 6138   4.014   5.872  10.249  2.0135  2.1744 -1.1250
   71SLPC   O31 6139   4.197   5.782  10.212  0.0783 -0.4569  0.8374
   71SLPC   C31 6140   4.261   5.889  10.160  0.0706 -0.0018 -0.3223
   71SLPC   O32 6141   4.233   6.003  10.178  0.1114 -0.2062  0.4071
   71SLPC   C32 6142   4.399   5.852  10.104 -0.8051  0.0201  0.1780
   71SLPC   H2X 6143   4.413   5.742  10.090  1.5130  0.2104  0.8148
   71SLPC   H2Y 6144   4.480   5.882  10.174 -0.4405  1.0252 -0.6682
   71SLPC   C23 6145   3.912   5.474  10.035  0.4739 -0.3118 -0.5003
   71SLPC   H3R 6146   3.982   5.389  10.026  2.1737  1.0482 -0.5831
   71SLPC   H3S 6147   3.981   5.562  10.033  1.5927 -1.1199  1.1743
   71SLPC   C24 6148   3.821   5.504   9.913  0.5786 -0.0019 -1.2248
   71SLPC   H4R 6149   3.882   5.536   9.825  0.8316 -0.6161 -1.2713
   71SLPC   H4S 6150   3.743   5.575   9.948  0.6134 -1.9436  3.0041
   71SLPC   C25 6151   3.750   5.383   9.871 -0.0511 -0.3947 -0.2286
   71SLPC   H5R 6152   3.665   5.357   9.938 -1.4091 -1.2460 -2.2320
   71SLPC   H5S 6153   3.819   5.297   9.862  0.2015 -0.2628  0.3983
   71SLPC   C26 6154   3.683   5.400   9.731 -1.0801 -0.1107 -0.1187
   71SLPC   H6R 6155   3.662   5.508   9.715  1.9627  0.8141  1.6453
   71SLPC   H6S 6156   3.586   5.346   9.722  0.3397 -2.7246 -0.4172
   71SLPC   C27 6157   3.779   5.360   9.609 -0.1682 -0.4532 -0.5014
   71SLPC   H7R 6158   3.762   5.251   9.598 -2.3459 -0.0746 -1.1489
   71SLPC   H7S 6159   3.884   5.381   9.638  0.0095  0.7996 -1.9829
   71SLPC   C28 6160   3.726   5.430   9.479 -0.9319 -0.1779  0.0637
   71SLPC   H8R 6161   3.697   5.535   9.500 -0.3413  0.8012 -3.6941
   71SLPC   H8S 6162   3.640   5.374   9.437 -0.6302  0.8552 -2.0024
   71SLPC   C29 6163   3.827   5.433   9.367 -0.0418 -0.5263  0.2957
   71SLPC   H9R 6164   3.917   5.493   9.386 -3.1158  4.1581  0.7826
   71SLPC  C210 6165   3.836   5.360   9.258 -0.5744  0.3175 -0.4038
   71SLPC  H10R 6166   3.909   5.385   9.179 -1.3074 -1.5838 -1.7347
   71SLPC  C211 6167   3.747   5.240   9.214  0.3196  0.2449 -0.0419
   71SLPC  H11R 6168   3.641   5.271   9.214  0.9220  2.3814  0.2439
   71SLPC  H11S 6169   3.753   5.162   9.293  0.9184  0.2508 -0.0761
   71SLPC  C212 6170   3.787   5.172   9.080  0.2463  0.2105 -0.3292
   71SLPC  H12R 6171   3.835   5.075   9.100 -0.1499  0.3248  1.2376
   71SLPC  C213 6172   3.765   5.216   8.956  0.2892 -0.9192  0.7124
   71SLPC  H13R 6173   3.814   5.180   8.864 -0.9149  0.4047 -0.4763
   71SLPC  C214 6174   3.696   5.347   8.923  0.0332  0.1933 -0.0165
   71SLPC  H14R 6175   3.649   5.389   9.014 -1.9542 -2.5244  0.3012
   71SLPC  H14S 6176   3.612   5.332   8.851 -0.2077 -3.5838  0.9542
   71SLPC  C215 6177   3.788   5.452   8.858 -0.5262  0.1841  0.1549
   71SLPC  H15R 6178   3.828   5.405   8.766  1.5812  0.7350  0.7704
   71SLPC  H15S 6179   3.873   5.477   8.925  0.1817  0.0303 -0.6702
   71SLPC  C216 6180   3.721   5.587   8.828 -0.2285  0.0897 -0.3553
   71SLPC  H16R 6181   3.676   5.639   8.915 -1.0561 -0.7087 -0.3013
   71SLPC  H16S 6182   3.639   5.562   8.757 -0.6386 -0.1923  0.2174
   71SLPC  C217 6183   3.812   5.683   8.747  0.4269  0.1176  0.2333
   71SLPC  H17R 6184   3.755   5.763   8.696  4.4332  3.8505  1.2448
   71SLPC  H17S 6185   3.848   5.625   8.660 -2.0734 -0.6660 -0.3120
   71SLPC  C218 6186   3.926   5.748   8.825  0.7695 -0.5292  0.0041
   71SLPC  H18R 6187   3.998   5.677   8.871 -0.5519 -0.8802  1.5741
   71SLPC  H18S 6188   3.885   5.811   8.907  3.5202 -1.7229  2.4080
   71SLPC  H18T 6189   3.984   5.815   8.758  0.5276 -1.6126 -1.2949
   71SLPC   C33 6190   4.430   5.915   9.967 -0.2171 -0.2390 -0.1097
   71SLPC   H3X 6191   4.533   5.890   9.936  0.2824 -0.0250  1.3457
   71SLPC   H3Y 6192   4.420   6.026   9.975 -1.6334 -0.4504  1.3168
   71SLPC   C34 6193   4.334   5.864   9.860 -0.8327 -0.0492 -0.3313
   71SLPC   H4X 6194   4.227   5.844   9.883 -0.7733  0.5305  0.4625
   71SLPC   H4Y 6195   4.369   5.759   9.845  0.9614  0.4747  0.1705
   71SLPC   C35 6196   4.351   5.929   9.723 -0.5836 -0.8940  0.4064
   71SLPC   H5X 6197   4.460   5.936   9.702 -0.8738  0.6623 -0.5593
   71SLPC   H5Y 6198   4.320   6.035   9.727  1.6943 -0.1203 -1.3758
   71SLPC   C36 6199   4.272   5.862   9.616  0.6336 -0.9438 -0.2494
   71SLPC   H6X 6200   4.164   5.852   9.639  0.2062 -1.4705 -2.3605
   71SLPC   H6Y 6201   4.309   5.762   9.586  2.3126  0.2654 -2.3697
   71SLPC   C37 6202   4.278   5.943   9.487  0.3329  0.4386  0.4350
   71SLPC   H7X 6203   4.379   5.984   9.471  0.2130  0.7563  0.4925
   71SLPC   H7Y 6204   4.192   6.014   9.496  0.3657  0.7115 -1.1887
   71SLPC   C38 6205   4.246   5.857   9.364 -0.6966 -0.4431  0.0028
   71SLPC   H8X 6206   4.141   5.820   9.365 -0.1881 -1.9280  1.6618
   71SLPC   H8Y 6207   4.311   5.768   9.372 -2.6474 -1.8388  0.7166
   71SLPC   C39 6208   4.279   5.922   9.232  0.4927 -0.2321 -0.6748
   71SLPC   H9X 6209   4.387   5.945   9.239  0.0474  2.7838 -2.5759
   71SLPC   H9Y 6210   4.223   6.018   9.224 -1.5353 -1.3515 -0.3813
   71SLPC  C310 6211   4.258   5.826   9.119 -0.6233  0.4215  0.0896
   71SLPC  H10X 6212   4.149   5.817   9.099 -0.2844  0.8049 -2.0299
   71SLPC  H10Y 6213   4.296   5.723   9.133 -1.9653 -0.1146 -0.1298
   71SLPC  C311 6214   4.331   5.880   8.995 -0.4887 -0.0979  0.2382
   71SLPC  H11X 6215   4.438   5.892   9.024 -0.5321 -1.1519  0.8431
   71SLPC  H11Y 6216   4.291   5.980   8.968  0.0043  0.0590  0.0744
   71SLPC  C312 6217   4.308   5.791   8.875  0.7167 -0.3215 -0.7799
   71SLPC  H12X 6218   4.203   5.758   8.872 -0.1568  2.1590  0.6139
   71SLPC  H12Y 6219   4.376   5.703   8.880  1.9548  0.7032  1.0103
   71SLPC  C313 6220   4.344   5.857   8.738 -0.0189  0.3518 -0.0342
   71SLPC  H13X 6221   4.452   5.882   8.749  0.3470  0.0075 -2.4442
   71SLPC  H13Y 6222   4.282   5.950   8.738 -1.4629 -0.5983 -0.9196
   71SLPC  C314 6223   4.337   5.774   8.613  0.2257  0.0293 -0.5959
   71SLPC  H14X 6224   4.366   5.838   8.528  1.0807 -2.2309 -2.0657
   71SLPC  H14Y 6225   4.237   5.731   8.589 -0.4440  1.8051 -1.0306
   71SLPC  C315 6226   4.445   5.658   8.626 -0.0932  0.0342 -0.2805
   71SLPC  H15X 6227   4.388   5.572   8.667  0.4672 -0.8692 -1.3726
   71SLPC  H15Y 6228   4.527   5.699   8.690 -1.7845  2.8011  0.2219
   71SLPC  C316 6229   4.489   5.612   8.485  0.2856  0.2804 -0.3234
   71SLPC  H16X 6230   4.501   5.698   8.416  0.7558 -0.8121 -1.6246
   71SLPC  H16Y 6231   4.408   5.548   8.444  0.3893 -1.1518  1.6277
   71SLPC  C317 6232   4.622   5.526   8.492  0.5939 -0.0080  0.4039
   71SLPC  H17X 6233   4.629   5.471   8.396  0.6687 -0.9338  0.9328
   71SLPC  H17Y 6234   4.615   5.459   8.580 -0.8908  2.1173  1.9527
   71SLPC  C318 6235   4.745   5.619   8.503 -0.2270  0.0678  0.2621
   71SLPC  H18X 6236   4.837   5.558   8.492 -1.8114 -2.5279  0.9502
   71SLPC  H18Y 6237   4.735   5.686   8.591  0.0547  0.8163 -0.2652
   71SLPC  H18Z 6238   4.756   5.689   8.417  3.6048 -2.9935 -1.9134
   72SLPC     N 6239   6.147   3.917  10.903  0.2382 -0.2889  0.0182
   72SLPC   C13 6240   6.149   4.045  10.989  1.3585  0.5727  0.2426
   72SLPC  H13A 6241   6.167   4.028  11.095 -1.5224  0.9465  0.8181
   72SLPC  H13B 6242   6.228   4.110  10.954 -0.2236  1.7206 -1.2197
   72SLPC  H13C 6243   6.053   4.093  10.979  0.5475 -1.2311 -0.7906
   72SLPC   C14 6244   6.018   3.855  10.925 -0.2384 -0.2649 -0.5669
   72SLPC  H14A 6245   6.009   3.805  11.021  1.0165  0.3741 -0.0936
   72SLPC  H14B 6246   5.938   3.928  10.922  1.3191  1.4948 -0.4191
   72SLPC  H14C 6247   6.000   3.779  10.851 -0.0887 -0.4632 -0.4009
   72SLPC   C15 6248   6.261   3.826  10.933 -0.1839 -0.7952 -0.1040
   72SLPC  H15A 6249   6.352   3.880  10.913 -0.2225 -0.9736 -0.7961
   72SLPC  H15B 6250   6.259   3.790  11.035 -0.7672  0.5369  0.3603
   72SLPC  H15C 6251   6.262   3.746  10.860 -1.6086 -0.2090 -0.7881
   72SLPC   C12 6252   6.155   3.951  10.754 -0.0939 -0.3211 -1.4031
   72SLPC  H12A 6253   6.181   3.864  10.696  2.7822 -3.0923  3.6550
   72SLPC  H12B 6254   6.238   4.017  10.735  0.7384 -0.8423  0.2713
   72SLPC   C11 6255   6.039   4.023  10.677  0.3660 -0.1662  0.0829
   72SLPC  H11A 6256   5.951   3.956  10.687 -0.2400  0.5078 -0.6957
   72SLPC  H11B 6257   6.071   4.039  10.571  1.5243 -0.8881  0.3076
   72SLPC     P 6258   6.078   4.282  10.718 -0.1180  0.2967  0.1286
   72SLPC   O13 6259   6.028   4.383  10.811 -0.0207 -0.4279  0.0940
   72SLPC   O14 6260   6.220   4.262  10.720  0.8082  0.2870 -0.3234
   72SLPC   O12 6261   5.995   4.144  10.743 -0.1507 -0.3146 -0.4410
   72SLPC   O11 6262   6.027   4.323  10.570 -0.5342  0.0582  0.1479
   72SLPC    C1 6263   5.900   4.368  10.529 -0.6845 -0.1122 -0.7320
   72SLPC    HA 6264   5.864   4.445  10.601  3.8967  1.4272  0.0844
   72SLPC    HB 6265   5.900   4.415  10.428 -0.1206 -2.0666 -1.6523
   72SLPC    C2 6266   5.795   4.252  10.518 -0.0233  0.0751 -0.7147
   72SLPC    HS 6267   5.792   4.203  10.617 -0.1728 -1.2484 -1.3578
   72SLPC   O21 6268   5.832   4.158  10.415  0.3747 -0.6193  0.5417
   72SLPC   C21 6269   5.774   4.044  10.421 -0.0269  0.3396  0.1253
   72SLPC   O22 6270   5.684   4.010  10.500  0.4039 -0.2152 -0.5608
   72SLPC   C22 6271   5.796   3.957  10.296 -0.1285  0.7946  0.2434
   72SLPC   H2R 6272   5.892   3.982  10.246  1.0559 -0.3658  1.8786
   72SLPC   H2S 6273   5.795   3.849  10.321  1.4228  0.2344 -1.9168
   72SLPC    C3 6274   5.655   4.310  10.496  0.0095  0.5958 -0.3755
   72SLPC    HX 6275   5.631   4.387  10.573  1.2469 -0.5944  1.2524
   72SLPC    HY 6276   5.583   4.226  10.500  0.7903 -0.0599 -0.1189
   72SLPC   O31 6277   5.637   4.369  10.364 -0.0594  0.4359 -0.0549
   72SLPC   C31 6278   5.656   4.499  10.352 -0.5007 -0.0948 -0.1881
   72SLPC   O32 6279   5.689   4.575  10.440  0.1784 -0.5026 -0.4519
   72SLPC   C32 6280   5.614   4.539  10.205 -0.9980 -0.7736 -0.0880
   72SLPC   H2X 6281   5.504   4.524  10.205 -0.7618 -2.6562  0.4569
   72SLPC   H2Y 6282   5.668   4.469  10.137  1.5743  0.3575  0.7023
   72SLPC   C23 6283   5.680   3.971  10.198  0.1395  0.3017 -0.3421
   72SLPC   H3R 6284   5.586   3.990  10.253 -0.3412 -1.7349 -0.4310
   72SLPC   H3S 6285   5.664   3.882  10.133 -1.7755  0.4125 -0.0447
   72SLPC   C24 6286   5.707   4.091  10.101 -0.2808 -0.3305 -0.9126
   72SLPC   H4R 6287   5.814   4.071  10.078 -0.5376 -1.8165 -0.8544
   72SLPC   H4S 6288   5.683   4.184  10.157  0.0999 -1.3309  0.9663
   72SLPC   C25 6289   5.621   4.077   9.968 -0.6149 -0.4152 -0.4444
   72SLPC   H5R 6290   5.519   4.081  10.010  1.1385 -0.9655  4.1997
   72SLPC   H5S 6291   5.650   3.978   9.927  0.3443 -0.2970 -0.0846
   72SLPC   C26 6292   5.658   4.185   9.875  0.2737 -0.3764  0.3331
   72SLPC   H6R 6293   5.768   4.193   9.880  0.3712 -0.1788 -1.8905
   72SLPC   H6S 6294   5.609   4.278   9.911  1.8327  0.6348 -0.1433
   72SLPC   C27 6295   5.604   4.151   9.739  0.4610 -0.0025  0.7007
   72SLPC   H7R 6296   5.493   4.149   9.730  0.5809 -1.9277 -0.6746
   72SLPC   H7S 6297   5.649   4.056   9.702  1.1779 -0.2359  2.1721
   72SLPC   C28 6298   5.655   4.273   9.646 -0.6544 -0.0211 -0.6151
   72SLPC   H8R 6299   5.764   4.268   9.666 -0.2838  0.6687 -2.3649
   72SLPC   H8S 6300   5.615   4.360   9.701  1.9306 -0.4101  2.0112
   72SLPC   C29 6301   5.609   4.268   9.504  0.6790 -0.6678  0.1017
   72SLPC   H9R 6302   5.526   4.337   9.483  0.7174 -1.0168 -1.2866
   72SLPC  C210 6303   5.659   4.203   9.397  0.1349  0.2110  0.1691
   72SLPC  H10R 6304   5.624   4.218   9.294  0.6626  1.2114  0.1247
   72SLPC  C211 6305   5.783   4.116   9.399  0.0638 -0.0086  0.3373
   72SLPC  H11R 6306   5.842   4.156   9.484  0.1985  1.4057 -0.4051
   72SLPC  H11S 6307   5.832   4.136   9.301 -0.0071 -0.7207  0.1543
   72SLPC  C212 6308   5.753   3.968   9.411  0.2480  0.5129  0.4398
   72SLPC  H12R 6309   5.735   3.937   9.515  0.0230 -1.2908 -0.1171
   72SLPC  C213 6310   5.758   3.876   9.310  0.0836 -0.1943  0.2378
   72SLPC  H13R 6311   5.735   3.770   9.328  0.5163 -0.3382 -0.0502
   72SLPC  C214 6312   5.787   3.902   9.155  0.0622  0.1146  0.3661
   72SLPC  H14R 6313   5.874   3.841   9.122  1.5466  1.6614  1.4062
   72SLPC  H14S 6314   5.807   4.009   9.135 -0.0947  0.4019  1.7390
   72SLPC  C215 6315   5.663   3.868   9.080 -0.2033  0.0638  0.3092
   72SLPC  H15R 6316   5.663   3.918   8.981  0.0257 -1.1207 -0.2957
   72SLPC  H15S 6317   5.582   3.920   9.136 -0.0800  0.1532  0.4057
   72SLPC  C216 6318   5.649   3.717   9.066  0.4130  0.3834  0.2085
   72SLPC  H16R 6319   5.577   3.678   9.141  2.3042 -0.7094  1.4886
   72SLPC  H16S 6320   5.749   3.681   9.099 -0.0029 -0.4160  0.5906
   72SLPC  C217 6321   5.618   3.664   8.921  0.7502 -0.2737  0.0602
   72SLPC  H17R 6322   5.561   3.736   8.858  1.5051  0.1576 -0.1291
   72SLPC  H17S 6323   5.546   3.580   8.936  0.3017 -0.1665 -1.4033
   72SLPC  C218 6324   5.737   3.610   8.838 -0.6551  0.8065 -0.0191
   72SLPC  H18R 6325   5.821   3.682   8.842  0.8119 -0.7378 -1.9721
   72SLPC  H18S 6326   5.714   3.598   8.730 -1.5466  1.2839  0.1099
   72SLPC  H18T 6327   5.776   3.517   8.883  1.3532  3.0638  3.1327
   72SLPC   C33 6328   5.638   4.690  10.184  0.1898  0.3586 -0.5149
   72SLPC   H3X 6329   5.747   4.704  10.167  0.8090  0.4941  3.2489
   72SLPC   H3Y 6330   5.615   4.744  10.278  0.4445  1.9189 -1.3441
   72SLPC   C34 6331   5.552   4.742  10.072  0.2532 -0.2901 -0.3549
   72SLPC   H4X 6332   5.555   4.852  10.064 -2.2618 -0.2323 -1.2248
   72SLPC   H4Y 6333   5.445   4.718  10.090  0.1901  0.6886  0.6148
   72SLPC   C35 6334   5.577   4.674   9.941 -0.1533 -0.6704  0.0103
   72SLPC   H5X 6335   5.537   4.571   9.944  0.8447 -1.0323  1.4488
   72SLPC   H5Y 6336   5.685   4.676   9.912 -0.7900  0.3407 -2.4466
   72SLPC   C36 6337   5.498   4.736   9.824 -0.0441  0.2464  0.2235
   72SLPC   H6X 6338   5.505   4.847   9.835  1.4895  0.2536 -0.5901
   72SLPC   H6Y 6339   5.393   4.699   9.826  0.3991 -1.2938 -2.7372
   72SLPC   C37 6340   5.574   4.701   9.690  0.3546  0.0981  0.5319
   72SLPC   H7X 6341   5.551   4.593   9.679 -0.9183  0.2700  1.3830
   72SLPC   H7Y 6342   5.684   4.721   9.689  0.3353  0.2220 -1.4536
   72SLPC   C38 6343   5.509   4.762   9.562 -0.2279 -0.5004 -0.2823
   72SLPC   H8X 6344   5.544   4.867   9.557 -0.1398 -0.5108  0.0739
   72SLPC   H8Y 6345   5.398   4.762   9.556 -0.2702 -1.2739  0.3534
   72SLPC   C39 6346   5.539   4.687   9.431 -0.5252 -0.0937 -0.4626
   72SLPC   H9X 6347   5.480   4.594   9.438  2.1197 -1.6675  2.0908
   72SLPC   H9Y 6348   5.645   4.657   9.447 -0.8879 -0.6954  0.8048
   72SLPC  C310 6349   5.534   4.775   9.305  0.5278  1.0021 -0.7244
   72SLPC  H10X 6350   5.586   4.873   9.310 -1.2493  2.0687 -2.0717
   72SLPC  H10Y 6351   5.425   4.789   9.287  0.0741 -1.7132 -0.2735
   72SLPC  C311 6352   5.580   4.699   9.179  0.0735 -0.5377 -0.2021
   72SLPC  H11X 6353   5.530   4.601   9.167 -2.3699  0.8935 -2.5112
   72SLPC  H11Y 6354   5.688   4.675   9.183 -0.4529 -3.3901 -1.9338
   72SLPC  C312 6355   5.550   4.778   9.049  0.3738  0.7529 -0.1642
   72SLPC  H12X 6356   5.575   4.882   9.077  1.4424 -0.3044  3.0362
   72SLPC  H12Y 6357   5.441   4.777   9.025 -0.1026 -0.4396  1.9116
   72SLPC  C313 6358   5.627   4.734   8.921 -0.0530  0.3537  0.1928
   72SLPC  H13X 6359   5.736   4.715   8.936  0.1499  2.2946  1.2441
   72SLPC  H13Y 6360   5.627   4.819   8.850  2.1692  1.6186  1.6474
   72SLPC  C314 6361   5.554   4.615   8.865  0.0838  0.1000  0.4013
   72SLPC  H14X 6362   5.445   4.633   8.850  0.4379  1.2174 -0.8570
   72SLPC  H14Y 6363   5.550   4.532   8.939 -1.5006  0.9737  1.3202
   72SLPC  C315 6364   5.619   4.573   8.734 -0.3886 -0.0768 -0.3114
   72SLPC  H15X 6365   5.594   4.467   8.708  1.1643 -1.0764  2.0722
   72SLPC  H15Y 6366   5.729   4.585   8.734 -0.1949 -1.6710  0.5950
   72SLPC  C316 6367   5.557   4.656   8.614 -0.6031 -0.0058 -0.8228
   72SLPC  H16X 6368   5.538   4.755   8.661  1.1036 -0.3503  0.6641
   72SLPC  H16Y 6369   5.461   4.613   8.578  0.8838 -1.4792 -3.1690
   72SLPC  C317 6370   5.652   4.660   8.496 -0.4388  0.2148  1.1089
   72SLPC  H17X 6371   5.747   4.708   8.529  0.4420  0.2054 -1.3224
   72SLPC  H17Y 6372   5.602   4.727   8.422  1.6673  0.1811 -0.3969
   72SLPC  C318 6373   5.690   4.523   8.436 -0.3418  0.0867 -0.1600
   72SLPC  H18X 6374   5.751   4.465   8.508  0.7792  0.5877 -0.6956
   72SLPC  H18Y 6375   5.746   4.533   8.341  0.6234 -0.9141  0.2879
   72SLPC  H18Z 6376   5.602   4.467   8.396  0.4643 -0.8377 -0.6807
   73SLPC     N 6377   5.537   2.912  10.707 -0.7037  0.3564 -0.4434
   73SLPC   C13 6378   5.598   2.786  10.650  0.3172 -0.3225 -0.0441
   73SLPC  H13A 6379   5.544   2.700  10.688 -1.5579  0.4053 -0.9750
   73SLPC  H13B 6380   5.586   2.776  10.543  2.8417  0.0511 -0.3843
   73SLPC  H13C 6381   5.702   2.792  10.675  0.5780  1.5086 -1.4354
   73SLPC   C14 6382   5.539   3.015  10.600 -0.1399 -0.1157 -0.3917
   73SLPC  H14A 6383   5.493   3.105  10.637  0.2506 -0.3325  0.6555
   73SLPC  H14B 6384   5.643   3.028  10.573  0.8551 -0.9679  2.7916
   73SLPC  H14C 6385   5.485   2.985  10.512 -2.1624  1.2500  0.3578
   73SLPC   C15 6386   5.620   2.952  10.825  0.2122  1.0200 -0.1416
   73SLPC  H15A 6387   5.570   3.031  10.880  0.2897  0.7372  0.3299
   73SLPC  H15B 6388   5.632   2.866  10.888 -0.5163  1.0958  0.1123
   73SLPC  H15C 6389   5.718   2.991  10.803  0.9581 -0.1531  1.0147
   73SLPC   C12 6390   5.395   2.881  10.750  0.4088  0.1105 -0.1413
   73SLPC  H12A 6391   5.338   2.839  10.669 -2.2671 -0.7564  2.1127
   73SLPC  H12B 6392   5.342   2.972  10.775  0.3509 -0.3951  1.6692
   73SLPC   C11 6393   5.385   2.771  10.861  0.3054 -0.3344  0.6007
   73SLPC  H11A 6394   5.284   2.774  10.906  0.8905  0.0614  1.9383
   73SLPC  H11B 6395   5.457   2.780  10.946  0.3566  1.2117  0.4188
   73SLPC     P 6396   5.342   2.520  10.822 -0.3472  0.2364 -0.1886
   73SLPC   O13 6397   5.391   2.467  10.952  0.3391 -0.1373 -0.1526
   73SLPC   O14 6398   5.197   2.518  10.785  0.4177  0.2770  0.0513
   73SLPC   O12 6399   5.408   2.656  10.789  0.4550  0.2503 -1.2569
   73SLPC   O11 6400   5.412   2.430  10.723  0.6600  0.0981 -0.5833
   73SLPC    C1 6401   5.551   2.416  10.719  0.1003  0.5639  0.4602
   73SLPC    HA 6402   5.604   2.497  10.773 -0.7852  2.6607 -1.7642
   73SLPC    HB 6403   5.578   2.319  10.768 -1.7841 -0.4497 -0.4312
   73SLPC    C2 6404   5.598   2.427  10.578 -0.3280 -0.8548  1.1758
   73SLPC    HS 6405   5.594   2.536  10.553  0.5023 -0.9682  0.5317
   73SLPC   O21 6406   5.516   2.345  10.492  0.2571 -0.0035 -0.0788
   73SLPC   C21 6407   5.436   2.407  10.404 -0.4106  0.2088 -0.7739
   73SLPC   O22 6408   5.424   2.529  10.405  0.6080  0.1570 -0.2177
   73SLPC   C22 6409   5.370   2.310  10.306  0.0793 -0.1870 -0.6339
   73SLPC   H2R 6410   5.375   2.209  10.352 -1.1798 -0.1501 -0.3945
   73SLPC   H2S 6411   5.265   2.345  10.294  0.0019  0.5299  1.8208
   73SLPC    C3 6412   5.743   2.379  10.564  0.2942 -0.4904  0.3418
   73SLPC    HX 6413   5.752   2.279  10.613 -1.3580  0.4009  2.5880
   73SLPC    HY 6414   5.803   2.450  10.625  1.4275  0.1934 -1.5186
   73SLPC   O31 6415   5.793   2.376  10.430  0.3211  0.2655 -0.2548
   73SLPC   C31 6416   5.897   2.448  10.393  0.2459  0.8658 -0.4861
   73SLPC   O32 6417   5.936   2.548  10.449  0.0421  0.1514 -0.3001
   73SLPC   C32 6418   5.961   2.395  10.256 -0.0060  0.2998 -0.6065
   73SLPC   H2X 6419   5.889   2.423  10.176 -0.1712 -1.5207 -1.1158
   73SLPC   H2Y 6420   5.963   2.284  10.258 -2.0454  0.2278 -0.7869
   73SLPC   C23 6421   5.438   2.309  10.175 -0.4526 -0.3343 -0.7302
   73SLPC   H3R 6422   5.438   2.415  10.143 -0.6681  0.5289  2.0173
   73SLPC   H3S 6423   5.384   2.239  10.108  0.1698 -1.9314  0.3929
   73SLPC   C24 6424   5.582   2.255  10.182  0.0615  0.3568 -0.1236
   73SLPC   H4R 6425   5.582   2.179  10.263  0.3412  0.3639 -0.1149
   73SLPC   H4S 6426   5.643   2.340  10.219 -1.2360  0.8087  1.0253
   73SLPC   C25 6427   5.650   2.204  10.055 -0.2384 -0.0636  0.4291
   73SLPC   H5R 6428   5.598   2.124   9.999 -1.1317  1.5047 -1.0451
   73SLPC   H5S 6429   5.740   2.153  10.095  1.5448  0.8240 -2.2981
   73SLPC   C26 6430   5.707   2.311   9.963  0.7538  0.0751  0.6752
   73SLPC   H6R 6431   5.809   2.333  10.001  1.6826  1.4407 -2.4018
   73SLPC   H6S 6432   5.639   2.395   9.988  0.0574 -0.4477  0.5699
   73SLPC   C27 6433   5.719   2.279   9.818  0.4978 -0.8613 -0.1283
   73SLPC   H7R 6434   5.750   2.173   9.806  1.3634 -0.7540  1.1423
   73SLPC   H7S 6435   5.789   2.351   9.770  0.4392 -1.3029 -0.8929
   73SLPC   C28 6436   5.583   2.287   9.751  0.2021  0.4113  0.0482
   73SLPC   H8R 6437   5.514   2.213   9.797 -2.5348  1.9803 -1.4437
   73SLPC   H8S 6438   5.590   2.241   9.650  1.7104  1.2802 -0.2560
   73SLPC   C29 6439   5.523   2.421   9.738 -0.0414 -0.8075  0.1865
   73SLPC   H9R 6440   5.530   2.475   9.834 -1.1404 -1.7500  0.8206
   73SLPC  C210 6441   5.489   2.483   9.623 -0.9655 -0.6171  0.1200
   73SLPC  H10R 6442   5.428   2.574   9.636 -1.6898 -0.8533 -1.4745
   73SLPC  C211 6443   5.489   2.425   9.482 -0.3950 -0.2471  0.5730
   73SLPC  H11R 6444   5.588   2.395   9.442 -1.0812 -0.7686 -0.8122
   73SLPC  H11S 6445   5.462   2.512   9.418 -2.2032 -0.3865  1.1027
   73SLPC  C212 6446   5.382   2.313   9.457 -0.1045 -0.6192 -0.2842
   73SLPC  H12R 6447   5.277   2.342   9.476 -0.1727  0.1734 -1.7478
   73SLPC  C213 6448   5.411   2.194   9.401  0.2617 -0.1104  0.0006
   73SLPC  H13R 6449   5.328   2.128   9.373 -0.4161  0.2295  1.2230
   73SLPC  C214 6450   5.545   2.150   9.356  1.3616  0.2253 -0.7433
   73SLPC  H14R 6451   5.563   2.040   9.360 -1.4282 -0.1872  2.1349
   73SLPC  H14S 6452   5.617   2.201   9.423  0.2100  2.5274 -1.2494
   73SLPC  C215 6453   5.583   2.191   9.208  0.7156  0.9626 -0.4941
   73SLPC  H15R 6454   5.692   2.176   9.189  0.9912  1.4274  0.6316
   73SLPC  H15S 6455   5.571   2.302   9.206 -3.1637  0.5918 -1.6003
   73SLPC  C216 6456   5.497   2.118   9.106  0.6652  0.3499  0.1042
   73SLPC  H16R 6457   5.392   2.141   9.133  0.4754 -0.8115  0.3552
   73SLPC  H16S 6458   5.520   2.013   9.134  0.3026  0.5539  1.1895
   73SLPC  C217 6459   5.545   2.154   8.961  0.3217 -0.1813 -0.6107
   73SLPC  H17R 6460   5.652   2.124   8.959  0.5317  0.5779 -2.0368
   73SLPC  H17S 6461   5.544   2.263   8.939  1.1739 -0.0174  0.1092
   73SLPC  C218 6462   5.470   2.073   8.855  0.3319  0.3310  0.2469
   73SLPC  H18R 6463   5.362   2.091   8.873 -0.1237 -0.2435 -1.7730
   73SLPC  H18S 6464   5.496   1.965   8.864  1.7355  0.3974 -2.3876
   73SLPC  H18T 6465   5.488   2.112   8.752 -0.1470  0.8530  0.3615
   73SLPC   C33 6466   6.107   2.451  10.243  0.5274 -0.1783  0.5517
   73SLPC   H3X 6467   6.159   2.427  10.338  3.6407 -0.6176 -1.1897
   73SLPC   H3Y 6468   6.115   2.561  10.233  0.4746 -0.0458  1.8839
   73SLPC   C34 6469   6.173   2.383  10.126  0.5533 -0.5329 -0.6311
   73SLPC   H4X 6470   6.158   2.274  10.135 -0.9826 -0.3425 -0.7051
   73SLPC   H4Y 6471   6.284   2.391  10.127  0.3947  1.9979  0.8986
   73SLPC   C35 6472   6.109   2.423   9.993 -0.4166  0.1882 -0.6929
   73SLPC   H5X 6473   6.121   2.531   9.968 -0.6399  0.9749  2.3938
   73SLPC   H5Y 6474   5.998   2.408   9.993 -0.5543  1.0040 -2.9281
   73SLPC   C36 6475   6.172   2.346   9.884 -0.5261  0.2960  0.1729
   73SLPC   H6X 6476   6.169   2.237   9.902  0.5057  0.2998  0.3730
   73SLPC   H6Y 6477   6.275   2.386   9.873 -0.1338 -0.9602 -0.7923
   73SLPC   C37 6478   6.108   2.369   9.741  0.9896 -0.3077  0.3680
   73SLPC   H7X 6479   6.131   2.475   9.718 -0.4641  0.2021  1.1836
   73SLPC   H7Y 6480   5.999   2.349   9.737  0.6420  1.6922 -0.6928
   73SLPC   C38 6481   6.168   2.274   9.634  0.1148 -0.9539 -0.1579
   73SLPC   H8X 6482   6.153   2.170   9.673 -0.1377 -0.7704  0.2440
   73SLPC   H8Y 6483   6.275   2.301   9.624 -0.0174 -0.3325  0.0989
   73SLPC   C39 6484   6.100   2.283   9.498 -0.2247 -0.3510 -0.7310
   73SLPC   H9X 6485   6.107   2.389   9.463  1.8775 -0.1174  0.3236
   73SLPC   H9Y 6486   5.991   2.263   9.506 -0.2420  0.4919  1.2669
   73SLPC  C310 6487   6.156   2.183   9.398  0.5644 -0.2147 -0.2547
   73SLPC  H10X 6488   6.128   2.080   9.426  1.8499  0.1844  2.6871
   73SLPC  H10Y 6489   6.267   2.173   9.398  0.5224 -0.9702  1.6138
   73SLPC  C311 6490   6.118   2.221   9.250 -0.0036  0.0432  0.2998
   73SLPC  H11X 6491   6.155   2.325   9.235  1.5779 -0.8344 -2.2487
   73SLPC  H11Y 6492   6.007   2.217   9.235  0.3372  3.1961 -4.0930
   73SLPC  C312 6493   6.192   2.130   9.148  0.0183 -0.2996  0.8301
   73SLPC  H12X 6494   6.147   2.033   9.175 -0.4418 -0.9434 -2.1049
   73SLPC  H12Y 6495   6.302   2.128   9.165 -0.2664  0.0028  2.7681
   73SLPC  C313 6496   6.158   2.163   9.005 -0.3318  0.2626 -0.3024
   73SLPC  H13X 6497   6.154   2.272   8.986  0.3900  0.2946 -0.2781
   73SLPC  H13Y 6498   6.059   2.114   8.995 -0.1035  0.3625 -3.8951
   73SLPC  C314 6499   6.249   2.102   8.902 -0.3664  0.2445 -0.1674
   73SLPC  H14X 6500   6.228   2.152   8.805 -3.1784 -0.2447  0.1232
   73SLPC  H14Y 6501   6.213   1.998   8.886  0.2066 -0.1292  0.9379
   73SLPC  C315 6502   6.400   2.105   8.929 -0.4556  0.0323 -0.0782
   73SLPC  H15X 6503   6.449   2.025   8.988  1.8450  1.3530 -0.0982
   73SLPC  H15Y 6504   6.426   2.207   8.966 -0.7163  0.2960 -0.6232
   73SLPC  C316 6505   6.478   2.107   8.799 -0.4110 -0.4235 -1.1827
   73SLPC  H16X 6506   6.461   2.202   8.744  0.0949  0.1287 -0.4014
   73SLPC  H16Y 6507   6.439   2.029   8.730  1.5557 -1.8664 -0.7115
   73SLPC  C317 6508   6.631   2.093   8.821  0.4599 -0.0713 -0.2199
   73SLPC  H17X 6509   6.659   2.000   8.876  0.4652 -1.0894 -1.9147
   73SLPC  H17Y 6510   6.665   2.172   8.891  0.4454 -0.1801 -0.0896
   73SLPC  C318 6511   6.711   2.122   8.697 -0.2792  0.1158 -0.4269
   73SLPC  H18X 6512   6.685   2.222   8.654 -2.5501 -0.4855 -0.5480
   73SLPC  H18Y 6513   6.690   2.046   8.619 -0.5565 -1.0417  0.7619
   73SLPC  H18Z 6514   6.818   2.102   8.719 -0.3105 -1.7418 -1.8715
   74SLPC     N 6515   0.289   4.815  10.779 -0.1530 -0.3687 -0.0061
   74SLPC   C13 6516   0.386   4.920  10.752 -0.0502  0.3973  0.4467
   74SLPC  H13A 6517   0.351   5.003  10.693 -0.9528  1.4800  2.4708
   74SLPC  H13B 6518   0.422   4.964  10.843  1.5990  1.4061 -0.6685
   74SLPC  H13C 6519   0.476   4.885  10.702 -0.2841 -1.5785  1.3483
   74SLPC   C14 6520   0.193   4.864  10.878  0.7644 -0.8636 -0.8164
   74SLPC  H14A 6521   0.240   4.889  10.972 -0.4624 -0.5531 -0.2730
   74SLPC  H14B 6522   0.136   4.948  10.843  0.1921 -1.1857 -0.6576
   74SLPC  H14C 6523   0.123   4.788  10.908 -3.0502  2.5202 -0.7996
   74SLPC   C15 6524   0.366   4.700  10.833 -0.1575  0.3717  0.0216
   74SLPC  H15A 6525   0.420   4.644  10.757 -1.9075 -2.7579  0.9877
   74SLPC  H15B 6526   0.443   4.729  10.903  1.0204 -0.8097 -0.7571
   74SLPC  H15C 6527   0.308   4.629  10.889  2.2115 -1.6577 -0.0088
   74SLPC   C12 6528   0.215   4.765  10.654 -0.3340  0.9244  0.0234
   74SLPC  H12A 6529   0.148   4.844  10.624  0.0907  1.5570  0.7157
   74SLPC  H12B 6530   0.151   4.684  10.683 -3.3305  3.4013  0.5544
   74SLPC   C11 6531   0.309   4.719  10.533 -0.6078 -0.0946 -0.0005
   74SLPC  H11A 6532   0.371   4.806  10.503 -1.2671  1.2699  2.4324
   74SLPC  H11B 6533   0.253   4.698  10.439  2.2602  0.8299 -1.9733
   74SLPC     P 6534   0.342   4.454  10.563 -0.1082  0.3270  0.2706
   74SLPC   O13 6535   0.332   4.415  10.702  0.2825 -0.0042  0.2315
   74SLPC   O14 6536   0.220   4.440  10.478 -0.2081 -1.4156 -0.1898
   74SLPC   O12 6537   0.396   4.604  10.566 -0.9136  0.1852 -0.9712
   74SLPC   O11 6538   0.458   4.391  10.495 -0.0554  0.3257  0.2597
   74SLPC    C1 6539   0.523   4.439  10.380 -0.2424 -1.2576 -0.9036
   74SLPC    HA 6540   0.499   4.545  10.359  2.2428 -0.3831  0.4025
   74SLPC    HB 6541   0.633   4.436  10.398 -0.5392  1.3464  1.8051
   74SLPC    C2 6542   0.482   4.368  10.255  0.3338  0.2997  0.5209
   74SLPC    HS 6543   0.395   4.428  10.221 -0.1948 -0.8191 -0.1594
   74SLPC   O21 6544   0.447   4.231  10.286 -0.7883  0.0226  0.2837
   74SLPC   C21 6545   0.350   4.178  10.212  0.2142  0.4799 -0.0329
   74SLPC   O22 6546   0.281   4.238  10.130 -0.4887 -0.0161 -0.0960
   74SLPC   C22 6547   0.343   4.039  10.239 -0.2670  0.0711 -0.3390
   74SLPC   H2R 6548   0.443   3.992  10.252  0.4464  0.9714 -2.3785
   74SLPC   H2S 6549   0.294   4.034  10.339  1.6079 -0.6986  0.5735
   74SLPC    C3 6550   0.597   4.371  10.149 -0.4246 -0.6072 -0.0678
   74SLPC    HX 6551   0.673   4.293  10.172 -0.8657 -0.1050  3.2256
   74SLPC    HY 6552   0.658   4.463  10.155 -0.5369 -0.6500  1.7590
   74SLPC   O31 6553   0.548   4.360  10.018  0.3618  0.4041  0.6416
   74SLPC   C31 6554   0.477   4.457   9.965 -0.1890 -0.3730  1.0662
   74SLPC   O32 6555   0.449   4.564  10.014  0.3745 -0.5258 -0.3253
   74SLPC   C32 6556   0.437   4.415   9.821 -0.3972 -1.0074  0.3292
   74SLPC   H2X 6557   0.492   4.327   9.782  0.2394 -0.1020 -0.8431
   74SLPC   H2Y 6558   0.478   4.502   9.765  0.9179 -1.6263  0.3022
   74SLPC   C23 6559   0.263   3.962  10.140  0.3413 -0.3583  0.4724
   74SLPC   H3R 6560   0.162   4.003  10.115  0.9471  2.4050  2.3345
   74SLPC   H3S 6561   0.245   3.861  10.182 -0.9748 -0.6047 -0.6223
   74SLPC   C24 6562   0.333   3.950  10.002 -0.7241  0.0815  0.4296
   74SLPC   H4R 6563   0.439   3.919  10.010 -0.7454 -0.0767  0.1013
   74SLPC   H4S 6564   0.334   4.048   9.949  0.0817  0.0816  0.4453
   74SLPC   C25 6565   0.258   3.856   9.900  0.0086  0.5398 -0.2620
   74SLPC   H5R 6566   0.150   3.880   9.914 -0.1290 -0.8827  1.2270
   74SLPC   H5S 6567   0.278   3.751   9.929 -0.2201  0.8357  1.0084
   74SLPC   C26 6568   0.294   3.876   9.757  0.2469 -0.0618  0.4785
   74SLPC   H6R 6569   0.403   3.857   9.756  0.4334  0.9406  1.3226
   74SLPC   H6S 6570   0.270   3.979   9.724  0.7858 -0.0900 -0.0048
   74SLPC   C27 6571   0.213   3.773   9.664  0.5829 -0.3106  0.0114
   74SLPC   H7R 6572   0.105   3.795   9.683  0.5019  0.4939 -1.3727
   74SLPC   H7S 6573   0.223   3.672   9.709  5.5289  0.5927  1.2374
   74SLPC   C28 6574   0.251   3.787   9.515 -0.5675  0.4362  0.8053
   74SLPC   H8R 6575   0.199   3.698   9.473  1.0778 -1.0701  1.8781
   74SLPC   H8S 6576   0.358   3.763   9.496 -1.2325 -1.3201 -0.9178
   74SLPC   C29 6577   0.195   3.912   9.458  0.0461 -0.8838 -0.4540
   74SLPC   H9R 6578   0.231   3.998   9.517 -1.9613  0.1407 -0.6697
   74SLPC  C210 6579   0.120   3.925   9.345  0.3859  0.5233 -0.3965
   74SLPC  H10R 6580   0.086   4.028   9.326  1.2110  0.7528 -0.6708
   74SLPC  C211 6581   0.071   3.822   9.253  0.5063 -0.9900  0.2423
   74SLPC  H11R 6582  -0.002   3.866   9.183 -0.7995  1.8837  3.2804
   74SLPC  H11S 6583   0.020   3.741   9.310 -1.2487  0.5754  0.9442
   74SLPC  C212 6584   0.181   3.745   9.184 -0.3273  0.3269 -0.0551
   74SLPC  H12R 6585   0.247   3.691   9.253  0.8652 -0.0909 -1.4839
   74SLPC  C213 6586   0.220   3.761   9.055 -0.3494  0.1819 -0.5592
   74SLPC  H13R 6587   0.302   3.700   9.014 -2.1942 -2.4405 -0.4111
   74SLPC  C214 6588   0.157   3.851   8.953  0.3550 -0.1059  0.4969
   74SLPC  H14R 6589   0.219   3.857   8.861  1.5399 -2.0858  1.1238
   74SLPC  H14S 6590   0.152   3.951   9.000  0.6809  1.1602 -2.0866
   74SLPC  C215 6591   0.011   3.809   8.912 -0.1789 -0.0855  0.0656
   74SLPC  H15R 6592  -0.050   3.843   8.998  1.0062 -0.7759  1.1976
   74SLPC  H15S 6593  -0.003   3.699   8.909 -0.1011 -0.0781 -0.6954
   74SLPC  C216 6594  -0.047   3.880   8.789  0.1631  0.2458 -0.4975
   74SLPC  H16R 6595  -0.002   3.832   8.700  1.0971 -0.9520  0.5926
   74SLPC  H16S 6596  -0.015   3.985   8.801 -0.8027  0.2645  2.3097
   74SLPC  C217 6597  -0.200   3.870   8.786  0.8820 -0.0368 -0.2759
   74SLPC  H17R 6598  -0.236   3.943   8.710 -0.6272 -1.3168 -0.7999
   74SLPC  H17S 6599  -0.242   3.904   8.883 -0.8367  2.5005 -1.8370
   74SLPC  C218 6600  -0.238   3.723   8.746  0.4850 -0.1336  0.5516
   74SLPC  H18R 6601  -0.206   3.654   8.827  2.4925 -2.4777 -2.1289
   74SLPC  H18S 6602  -0.169   3.691   8.665  1.4204 -0.5742  1.5105
   74SLPC  H18T 6603  -0.344   3.716   8.715  0.4486  1.6257  0.2185
   74SLPC   C33 6604   0.287   4.419   9.790 -0.0806  0.6078  0.5403
   74SLPC   H3X 6605   0.277   4.455   9.685 -1.3915  0.0276  0.4560
   74SLPC   H3Y 6606   0.233   4.485   9.862  1.0556  0.3713  1.6323
   74SLPC   C34 6607   0.218   4.289   9.807 -0.2012 -0.2674  0.8760
   74SLPC   H4X 6608   0.257   4.226   9.890 -0.0311 -0.0283  0.9830
   74SLPC   H4Y 6609   0.241   4.235   9.713  0.0187  0.5215  0.4688
   74SLPC   C35 6610   0.062   4.299   9.804  0.0723 -0.1142 -0.0508
   74SLPC   H5X 6611   0.037   4.394   9.753 -0.8532  0.8010  2.0476
   74SLPC   H5Y 6612   0.024   4.302   9.908 -0.9079  1.5592 -0.4539
   74SLPC   C36 6613  -0.013   4.184   9.731  0.4977  0.1005 -0.2038
   74SLPC   H6X 6614   0.006   4.090   9.787  2.9957  0.8183  0.2164
   74SLPC   H6Y 6615   0.029   4.168   9.630  2.1295 -0.7683  0.5880
   74SLPC   C37 6616  -0.166   4.208   9.731  0.5654 -0.5712 -0.4801
   74SLPC   H7X 6617  -0.194   4.302   9.678 -1.1925  0.7594  2.6284
   74SLPC   H7Y 6618  -0.202   4.208   9.836 -0.9648 -2.1906 -0.9897
   74SLPC   C38 6619  -0.240   4.097   9.651  0.2162  0.2169 -0.4778
   74SLPC   H8X 6620  -0.341   4.089   9.696  0.0928  1.5554 -0.4807
   74SLPC   H8Y 6621  -0.184   4.002   9.665  2.0435  1.5743  1.9347
   74SLPC   C39 6622  -0.253   4.130   9.507  0.0661 -0.3143  0.6098
   74SLPC   H9X 6623  -0.149   4.122   9.470 -0.1915 -0.4459 -0.0844
   74SLPC   H9Y 6624  -0.287   4.234   9.485 -0.2068 -1.0071 -2.3727
   74SLPC  C310 6625  -0.339   4.025   9.426 -0.0309 -0.2389 -0.4043
   74SLPC  H10X 6626  -0.448   4.045   9.434 -0.4857 -1.5980 -2.6978
   74SLPC  H10Y 6627  -0.316   3.930   9.479 -1.5693 -0.5167 -0.2093
   74SLPC  C311 6628  -0.308   4.023   9.272  0.3113 -0.2555 -1.1583
   74SLPC  H11X 6629  -0.354   3.936   9.221 -0.3215 -0.2968 -0.5268
   74SLPC  H11Y 6630  -0.200   3.995   9.267  0.2321 -0.4750 -1.5662
   74SLPC  C312 6631  -0.337   4.144   9.192 -0.1171 -0.6241  0.0192
   74SLPC  H12X 6632  -0.312   4.233   9.254  0.1422 -2.9093  3.3490
   74SLPC  H12Y 6633  -0.446   4.156   9.174  0.0302  1.8897  0.5241
   74SLPC  C313 6634  -0.269   4.148   9.055 -0.0473  0.0729  0.3750
   74SLPC  H13X 6635  -0.320   4.073   8.991  0.9828  0.2871 -0.7180
   74SLPC  H13Y 6636  -0.168   4.105   9.070  0.0818  0.9865  2.4042
   74SLPC  C314 6637  -0.267   4.282   8.980  0.8195 -0.1650 -0.0075
   74SLPC  H14X 6638  -0.176   4.343   9.001  1.4230 -0.8950 -0.4538
   74SLPC  H14Y 6639  -0.362   4.329   9.013 -0.4367 -2.7467  0.1055
   74SLPC  C315 6640  -0.264   4.251   8.830 -0.1831  0.1718 -0.0557
   74SLPC  H15X 6641  -0.343   4.177   8.805  0.3479  0.1396 -1.6802
   74SLPC  H15Y 6642  -0.170   4.202   8.798  0.3735  3.2910 -3.5994
   74SLPC  C316 6643  -0.279   4.383   8.740 -0.9887  0.2307  0.6833
   74SLPC  H16X 6644  -0.189   4.444   8.764 -2.1801  1.2704  2.6388
   74SLPC  H16Y 6645  -0.366   4.443   8.772 -1.7993  0.3586 -1.6673
   74SLPC  C317 6646  -0.289   4.358   8.586  0.2234 -0.6476 -0.3826
   74SLPC  H17X 6647  -0.187   4.325   8.556  0.4037  0.4750 -1.0365
   74SLPC  H17Y 6648  -0.307   4.456   8.537  0.2523 -0.2821  0.3290
   74SLPC  C318 6649  -0.398   4.253   8.547 -0.1025  0.3619 -0.3068
   74SLPC  H18X 6650  -0.396   4.159   8.607  1.0487  0.6641  0.1462
   74SLPC  H18Y 6651  -0.396   4.221   8.441  0.3822  3.7960 -1.4180
   74SLPC  H18Z 6652  -0.499   4.296   8.564  0.2063  0.8132  0.4391
   75SLPC     N 6653   4.452   1.197   6.282 -1.0037  0.1410 -0.2801
   75SLPC   C13 6654   4.464   1.349   6.308  0.2765 -0.3430  0.4257
   75SLPC  H13A 6655   4.404   1.377   6.393 -2.0605 -1.9448 -0.6465
   75SLPC  H13B 6656   4.567   1.377   6.325  0.2332  0.7703 -1.0684
   75SLPC  H13C 6657   4.417   1.404   6.227  2.1513 -1.0006 -1.1405
   75SLPC   C14 6658   4.554   1.170   6.181  0.6148 -0.2870 -0.4363
   75SLPC  H14A 6659   4.646   1.217   6.213  0.0741 -0.1973  1.0166
   75SLPC  H14B 6660   4.570   1.063   6.180 -0.7759 -0.5609  2.6350
   75SLPC  H14C 6661   4.524   1.186   6.078 -0.8832  1.6254  0.2679
   75SLPC   C15 6662   4.315   1.158   6.228  0.2889  0.8581 -0.3596
   75SLPC  H15A 6663   4.319   1.058   6.187 -1.3876  0.4876  0.3355
   75SLPC  H15B 6664   4.250   1.160   6.315  2.9808 -0.8335  1.7917
   75SLPC  H15C 6665   4.287   1.230   6.153 -0.6260  1.3587  0.4421
   75SLPC   C12 6666   4.481   1.114   6.403 -0.1079 -0.1910  0.4286
   75SLPC  H12A 6667   4.582   1.136   6.433 -0.0697 -0.1726  0.2885
   75SLPC  H12B 6668   4.481   1.011   6.368 -2.4645  0.2667 -1.0774
   75SLPC   C11 6669   4.391   1.122   6.527 -0.6780  0.4893  0.1550
   75SLPC  H11A 6670   4.395   1.229   6.555  1.1738  0.8579 -1.4588
   75SLPC  H11B 6671   4.444   1.075   6.613  0.4531 -0.4269 -1.0083
   75SLPC     P 6672   4.247   0.910   6.508 -0.1885 -0.3128  0.1807
   75SLPC   O13 6673   4.105   0.878   6.478 -0.0250  0.4369 -0.2332
   75SLPC   O14 6674   4.346   0.854   6.414 -0.0906 -0.2740 -0.1002
   75SLPC   O12 6675   4.257   1.066   6.512  0.1828 -0.0701  0.4891
   75SLPC   O11 6676   4.284   0.859   6.659  0.1834  0.2977  0.0689
   75SLPC    C1 6677   4.237   0.925   6.781 -0.4578  0.4675 -0.4246
   75SLPC    HA 6678   4.322   0.941   6.851  1.2621 -2.9044 -1.6122
   75SLPC    HB 6679   4.199   1.027   6.760 -1.3928  0.1592 -0.2423
   75SLPC    C2 6680   4.135   0.837   6.857 -0.7704 -0.0170  0.6960
   75SLPC    HS 6681   4.107   0.898   6.945  1.2680  1.9517  0.0189
   75SLPC   O21 6682   4.182   0.706   6.890 -0.2457  0.4867 -0.5086
   75SLPC   C21 6683   4.220   0.686   7.013 -0.7780  0.2878 -0.0450
   75SLPC   O22 6684   4.232   0.774   7.095  0.4693 -0.2187 -0.5227
   75SLPC   C22 6685   4.238   0.530   7.034 -0.5646 -0.0095  0.0415
   75SLPC   H2R 6686   4.134   0.492   7.043 -0.5612 -0.4689 -1.6892
   75SLPC   H2S 6687   4.292   0.491   6.946 -1.4097  0.9583 -0.9185
   75SLPC    C3 6688   4.008   0.816   6.773  0.0419  0.2230 -0.2695
   75SLPC    HX 6689   4.023   0.765   6.675 -0.0316  0.2574 -0.2978
   75SLPC    HY 6690   3.987   0.924   6.759 -0.3931  0.4389  1.9390
   75SLPC   O31 6691   3.904   0.757   6.857 -0.2072  0.6410 -0.4837
   75SLPC   C31 6692   3.875   0.633   6.833 -0.2431  1.2649  0.8772
   75SLPC   O32 6693   3.931   0.558   6.750 -0.4520  0.8066  0.2864
   75SLPC   C32 6694   3.757   0.590   6.915  0.7246  0.1228 -0.1116
   75SLPC   H2X 6695   3.703   0.506   6.866  1.5479 -0.0289 -0.7766
   75SLPC   H2Y 6696   3.684   0.672   6.929 -0.1768 -0.8507  1.0061
   75SLPC   C23 6697   4.312   0.502   7.164 -0.2421 -0.2876 -0.0878
   75SLPC   H3R 6698   4.251   0.552   7.242 -0.9098 -3.3703  1.4853
   75SLPC   H3S 6699   4.416   0.541   7.166  0.6939 -2.6377 -0.4121
   75SLPC   C24 6700   4.330   0.355   7.200  0.0660  0.1438  0.9234
   75SLPC   H4R 6701   4.384   0.304   7.117 -2.6362 -1.0589 -0.1845
   75SLPC   H4S 6702   4.231   0.304   7.196  0.2404 -0.2686  1.8652
   75SLPC   C25 6703   4.400   0.344   7.338 -0.4450  0.6632 -0.2663
   75SLPC   H5R 6704   4.495   0.401   7.344 -0.1086 -0.0533  1.4024
   75SLPC   H5S 6705   4.436   0.240   7.352 -1.5494  0.2071 -0.7593
   75SLPC   C26 6706   4.310   0.388   7.461  0.1108  0.4317  0.1693
   75SLPC   H6R 6707   4.221   0.321   7.461  1.7977 -1.8760  0.1798
   75SLPC   H6S 6708   4.285   0.494   7.443 -0.8169 -0.3164 -3.2889
   75SLPC   C27 6709   4.384   0.382   7.594  0.7965  0.0374 -0.2131
   75SLPC   H7R 6710   4.462   0.461   7.596 -1.8030  2.7016  3.7824
   75SLPC   H7S 6711   4.430   0.285   7.620  0.8754 -0.0017 -0.5024
   75SLPC   C28 6712   4.297   0.426   7.717 -0.1385  0.4577  0.6493
   75SLPC   H8R 6713   4.222   0.501   7.685 -0.2858 -0.0017 -0.0936
   75SLPC   H8S 6714   4.371   0.465   7.790  0.2843  1.5285 -0.3248
   75SLPC   C29 6715   4.214   0.310   7.761 -0.7423 -1.1479 -0.5060
   75SLPC   H9R 6716   4.175   0.241   7.684 -1.3480 -0.3888 -0.8861
   75SLPC  C210 6717   4.174   0.296   7.891  0.6322 -0.1783 -0.0716
   75SLPC  H10R 6718   4.132   0.198   7.919  2.4805 -0.4090  2.0219
   75SLPC  C211 6719   4.202   0.383   8.007 -0.3198  0.1717  0.5048
   75SLPC  H11R 6720   4.121   0.400   8.081 -1.3502  0.6988 -0.7334
   75SLPC  H11S 6721   4.222   0.486   7.971 -3.4504 -0.7240 -4.1379
   75SLPC  C212 6722   4.327   0.329   8.083 -0.0917  0.1739  0.0045
   75SLPC  H12R 6723   4.373   0.246   8.026  4.2621  1.4315  1.4515
   75SLPC  C213 6724   4.389   0.393   8.182 -0.4528  0.3081 -0.7454
   75SLPC  H13R 6725   4.477   0.337   8.218 -1.5509 -1.8510 -1.3341
   75SLPC  C214 6726   4.356   0.517   8.262  0.3806 -0.7283 -0.1477
   75SLPC  H14R 6727   4.262   0.559   8.222  0.6439 -0.9450 -1.0068
   75SLPC  H14S 6728   4.433   0.596   8.249 -1.2645  0.7194 -1.3184
   75SLPC  C215 6729   4.353   0.491   8.410  0.4972 -0.2575 -0.0055
   75SLPC  H15R 6730   4.298   0.401   8.443  1.0080 -0.2081  0.9912
   75SLPC  H15S 6731   4.298   0.578   8.452  0.2767 -0.9106  1.0547
   75SLPC  C216 6732   4.492   0.497   8.483 -0.2684 -0.1508  0.3724
   75SLPC  H16R 6733   4.540   0.596   8.466 -0.7093 -0.3488 -2.3470
   75SLPC  H16S 6734   4.550   0.424   8.423  1.0969  0.8402  0.4591
   75SLPC  C217 6735   4.500   0.466   8.635 -0.0507  0.1533  0.5802
   75SLPC  H17R 6736   4.605   0.432   8.649 -0.1234  0.2769  1.4862
   75SLPC  H17S 6737   4.434   0.378   8.656  0.5074 -0.8581 -1.7040
   75SLPC  C218 6738   4.471   0.585   8.724 -0.4589 -0.1424 -0.0865
   75SLPC  H18R 6739   4.528   0.673   8.688  1.1708  0.1185  2.9782
   75SLPC  H18S 6740   4.485   0.554   8.830 -2.6833 -0.3569  0.1750
   75SLPC  H18T 6741   4.365   0.617   8.729  0.7287  3.8365  1.5018
   75SLPC   C33 6742   3.789   0.541   7.065 -0.4250 -0.3898 -1.0818
   75SLPC   H3X 6743   3.691   0.509   7.105 -1.3209  3.0047 -0.3976
   75SLPC   H3Y 6744   3.846   0.446   7.057 -0.2372 -0.3040 -0.7774
   75SLPC   C34 6745   3.860   0.641   7.157 -0.2345  0.0890  0.4038
   75SLPC   H4X 6746   3.813   0.742   7.155 -0.6353 -0.0313  2.7211
   75SLPC   H4Y 6747   3.963   0.651   7.115  0.0877 -0.9064  0.9420
   75SLPC   C35 6748   3.877   0.594   7.298 -0.0906 -0.0709 -0.6751
   75SLPC   H5X 6749   3.978   0.611   7.341 -0.4117  0.5346 -0.1409
   75SLPC   H5Y 6750   3.864   0.484   7.300  1.6529 -0.2783  1.3931
   75SLPC   C36 6751   3.785   0.665   7.400  0.7110  0.5216  0.3276
   75SLPC   H6X 6752   3.679   0.663   7.366  0.5185 -2.1569  1.0197
   75SLPC   H6Y 6753   3.814   0.772   7.389  0.6319  0.3424 -1.9332
   75SLPC   C37 6754   3.798   0.619   7.541  0.7124  0.3321  0.2595
   75SLPC   H7X 6755   3.754   0.518   7.531  1.1978  0.0903  0.5592
   75SLPC   H7Y 6756   3.741   0.688   7.608 -0.3206 -1.1259  0.9049
   75SLPC   C38 6757   3.937   0.630   7.602 -0.4432  0.0803 -0.6056
   75SLPC   H8X 6758   3.986   0.722   7.562  1.2978 -1.3540 -1.8318
   75SLPC   H8Y 6759   3.994   0.547   7.557 -0.6363  1.5736 -3.6988
   75SLPC   C39 6760   3.948   0.608   7.754 -0.9194  0.2887 -0.4825
   75SLPC   H9X 6761   4.054   0.622   7.783 -0.5018 -2.0288 -0.8245
   75SLPC   H9Y 6762   3.924   0.501   7.770 -0.0697  0.0395 -0.8360
   75SLPC  C310 6763   3.868   0.706   7.840  0.5869 -0.8010  0.1017
   75SLPC  H10X 6764   3.761   0.704   7.809  0.7218  4.0059 -1.1247
   75SLPC  H10Y 6765   3.893   0.813   7.823  2.0719 -1.3447 -1.2495
   75SLPC  C311 6766   3.883   0.675   7.989 -0.1148 -0.7927  0.2114
   75SLPC  H11X 6767   3.860   0.759   8.057  0.7007 -0.1454 -0.3060
   75SLPC  H11Y 6768   3.993   0.661   8.000 -0.2444 -1.6208  0.5660
   75SLPC  C312 6769   3.820   0.542   8.028 -0.3197  0.4550  0.1363
   75SLPC  H12X 6770   3.849   0.460   7.959  2.8511  1.8713 -0.3144
   75SLPC  H12Y 6771   3.712   0.557   8.007 -0.5067 -0.3877  0.5262
   75SLPC  C313 6772   3.854   0.506   8.171 -0.7839  0.3553 -0.3353
   75SLPC  H13X 6773   3.830   0.586   8.244  0.9676  1.0522 -0.4857
   75SLPC  H13Y 6774   3.962   0.481   8.184 -0.9885  0.6725  2.2012
   75SLPC  C314 6775   3.764   0.390   8.218 -0.2939 -0.3998 -0.0643
   75SLPC  H14X 6776   3.787   0.299   8.160 -1.0763 -1.0595  0.6415
   75SLPC  H14Y 6777   3.659   0.424   8.202 -0.1705 -0.8503 -1.8680
   75SLPC  C315 6778   3.769   0.371   8.369 -0.3467  0.1970 -0.0905
   75SLPC  H15X 6779   3.751   0.470   8.415  0.2703  0.0444  0.4758
   75SLPC  H15Y 6780   3.875   0.352   8.396 -1.1656 -1.5540  2.0173
   75SLPC  C316 6781   3.660   0.277   8.425  0.1022 -0.0384  0.6617
   75SLPC  H16X 6782   3.692   0.180   8.380 -1.5825 -0.3650  0.1368
   75SLPC  H16Y 6783   3.560   0.315   8.395  1.0496  2.0329  0.0222
   75SLPC  C317 6784   3.656   0.288   8.577  0.4635  0.1686 -0.3733
   75SLPC  H17X 6785   3.761   0.292   8.612 -0.2411  0.3275  1.8264
   75SLPC  H17Y 6786   3.609   0.191   8.606  1.4465 -0.3030 -0.3357
   75SLPC  C318 6787   3.574   0.404   8.635 -0.6340  0.0505  1.0809
   75SLPC  H18X 6788   3.506   0.451   8.560  0.8811  1.0835  0.3169
   75SLPC  H18Y 6789   3.644   0.483   8.671 -1.7781  1.5946  0.0108
   75SLPC  H18Z 6790   3.518   0.365   8.722  1.3613  1.4853  3.0546
   76SLPC     N 6791   0.116   5.402   5.986 -0.3377  0.3265 -0.1750
   76SLPC   C13 6792   0.138   5.550   6.019  0.0442 -0.0109 -0.2574
   76SLPC  H13A 6793   0.223   5.583   5.961  1.9864 -1.7365  1.5383
   76SLPC  H13B 6794   0.054   5.614   5.992 -1.8433 -1.1327  2.6901
   76SLPC  H13C 6795   0.157   5.552   6.125 -0.1151 -1.5577 -0.1837
   76SLPC   C14 6796   0.239   5.322   6.016 -0.0749 -0.6409  0.3758
   76SLPC  H14A 6797   0.217   5.217   5.999 -0.5343 -0.7411  1.5295
   76SLPC  H14B 6798   0.317   5.354   5.950  1.3643 -0.6736  2.0137
   76SLPC  H14C 6799   0.266   5.345   6.118  0.6514  1.0183 -0.1809
   76SLPC   C15 6800   0.081   5.391   5.838  0.0619 -0.0160 -0.1029
   76SLPC  H15A 6801   0.169   5.421   5.783 -1.2133 -0.2781 -2.3432
   76SLPC  H15B 6802   0.048   5.294   5.803 -0.6444  0.3890 -0.5769
   76SLPC  H15C 6803   0.006   5.467   5.822 -1.6248 -1.2853  1.6309
   76SLPC   C12 6804  -0.007   5.347   6.063 -0.2341  0.3426 -0.2054
   76SLPC  H12A 6805   0.031   5.352   6.164 -1.9483  1.2750  0.4020
   76SLPC  H12B 6806  -0.020   5.242   6.038 -1.2468  0.4394 -0.0909
   76SLPC   C11 6807  -0.143   5.409   6.056  0.1667 -0.7232  0.2110
   76SLPC  H11A 6808  -0.212   5.334   6.100 -0.9423  1.0457  1.5900
   76SLPC  H11B 6809  -0.177   5.426   5.952  2.0670 -0.1698 -0.3298
   76SLPC     P 6810  -0.212   5.664   6.092 -0.3480  0.0797 -0.2347
   76SLPC   O13 6811  -0.134   5.735   5.990  0.4489  0.1556 -0.0341
   76SLPC   O14 6812  -0.353   5.646   6.060 -0.1255  0.3741  0.2187
   76SLPC   O12 6813  -0.133   5.529   6.131 -0.2080  0.5763 -0.0249
   76SLPC   O11 6814  -0.210   5.749   6.224  0.1609 -0.1520  0.3239
   76SLPC    C1 6815  -0.084   5.769   6.284 -0.6051 -0.2345  0.3648
   76SLPC    HA 6816  -0.009   5.689   6.269  1.8241  1.8053  1.3069
   76SLPC    HB 6817  -0.039   5.862   6.242 -0.7828 -0.1107  0.4472
   76SLPC    C2 6818  -0.096   5.790   6.435  0.4207 -0.0940 -0.6025
   76SLPC    HS 6819   0.002   5.790   6.488 -0.4978 -2.2899  1.2049
   76SLPC   O21 6820  -0.178   5.684   6.487  0.3536  0.4311  0.3820
   76SLPC   C21 6821  -0.118   5.564   6.504  0.3382 -0.6441  0.2426
   76SLPC   O22 6822   0.002   5.556   6.491 -0.0221  0.4260 -0.0192
   76SLPC   C22 6823  -0.219   5.455   6.544  0.4999  0.3343 -0.4853
   76SLPC   H2R 6824  -0.319   5.487   6.507 -0.1002 -1.2616 -0.3018
   76SLPC   H2S 6825  -0.185   5.356   6.507  0.3294  0.2207 -0.3373
   76SLPC    C3 6826  -0.157   5.930   6.476 -0.4699 -0.1323  0.2860
   76SLPC    HX 6827  -0.226   5.966   6.397  1.1226 -0.0373 -1.0888
   76SLPC    HY 6828  -0.070   5.999   6.474  0.1741 -0.9288  0.2148
   76SLPC   O31 6829  -0.214   5.922   6.614  0.2606  0.3341 -0.5982
   76SLPC   C31 6830  -0.347   5.905   6.622 -0.5249  0.3994  0.6273
   76SLPC   O32 6831  -0.420   5.884   6.526  0.2869 -0.5910 -0.1385
   76SLPC   C32 6832  -0.397   5.927   6.762  0.6702 -0.1438  0.7837
   76SLPC   H2X 6833  -0.500   5.890   6.776  0.5835  0.8411  2.9621
   76SLPC   H2Y 6834  -0.393   6.037   6.780 -1.1501 -0.4210  3.0630
   76SLPC   C23 6835  -0.232   5.442   6.702  0.6438 -0.4706  0.1799
   76SLPC   H3R 6836  -0.296   5.354   6.723  1.0108 -0.3192  1.9951
   76SLPC   H3S 6837  -0.291   5.525   6.746  2.4952 -0.2115  2.2787
   76SLPC   C24 6838  -0.093   5.432   6.766  0.1933  0.5439  0.0548
   76SLPC   H4R 6839  -0.044   5.531   6.771 -0.6564  0.9949 -0.4791
   76SLPC   H4S 6840  -0.032   5.353   6.716 -0.3950  2.1418 -3.2862
   76SLPC   C25 6841  -0.118   5.385   6.916 -0.8145  0.2443  0.3000
   76SLPC   H5R 6842  -0.024   5.343   6.956  0.4523  0.7885 -2.0210
   76SLPC   H5S 6843  -0.183   5.295   6.920 -0.8555  0.3141  1.1622
   76SLPC   C26 6844  -0.169   5.503   6.997  0.6702  0.1930  0.3897
   76SLPC   H6R 6845  -0.273   5.523   6.965  0.1154  0.3868  2.2470
   76SLPC   H6S 6846  -0.103   5.589   6.974 -0.7330  0.8960 -1.1244
   76SLPC   C27 6847  -0.169   5.474   7.142 -0.0157  0.2766  0.2412
   76SLPC   H7R 6848  -0.080   5.421   7.182 -0.9620 -1.1901  0.4449
   76SLPC   H7S 6849  -0.255   5.405   7.158  0.5401 -0.4366  0.2011
   76SLPC   C28 6850  -0.205   5.594   7.224  0.1691 -0.4316  0.3264
   76SLPC   H8R 6851  -0.279   5.655   7.169 -1.4122 -2.6643 -0.0604
   76SLPC   H8S 6852  -0.249   5.558   7.319 -1.1351  2.8485  1.0606
   76SLPC   C29 6853  -0.086   5.690   7.256  0.2230 -0.7181  0.0694
   76SLPC   H9R 6854   0.001   5.677   7.189  1.1576 -1.4271  1.3930
   76SLPC  C210 6855  -0.077   5.790   7.347  0.1585  0.2964 -0.4053
   76SLPC  H10R 6856   0.021   5.833   7.375  0.7083 -1.1380 -0.0682
   76SLPC  C211 6857  -0.175   5.835   7.445 -0.6726  0.3255 -0.0608
   76SLPC  H11R 6858  -0.230   5.750   7.491 -0.2322  0.3450  0.5070
   76SLPC  H11S 6859  -0.241   5.905   7.389 -2.2048 -1.8204 -1.0201
   76SLPC  C212 6860  -0.107   5.898   7.569  0.6848  0.5393 -0.5650
   76SLPC  H12R 6861   0.003   5.899   7.573  0.7480 -0.7382 -1.7823
   76SLPC  C213 6862  -0.184   5.957   7.659  0.5804 -0.1772  0.0214
   76SLPC  H13R 6863  -0.136   6.008   7.744  1.7811 -0.5900 -0.3861
   76SLPC  C214 6864  -0.330   5.971   7.668 -0.5295  0.3198  0.6452
   76SLPC  H14R 6865  -0.383   5.892   7.610  1.5468 -1.8413  1.6200
   76SLPC  H14S 6866  -0.346   6.073   7.625  0.4078 -0.4361 -1.5778
   76SLPC  C215 6867  -0.378   5.957   7.815  0.8736  0.4142 -0.9104
   76SLPC  H15R 6868  -0.485   5.989   7.815  1.5136  2.7047  1.2186
   76SLPC  H15S 6869  -0.326   6.025   7.886 -0.5810 -0.2485  0.8523
   76SLPC  C216 6870  -0.377   5.822   7.887 -0.1720  0.5985 -0.2211
   76SLPC  H16R 6871  -0.272   5.786   7.898 -0.8608 -0.5930  2.8388
   76SLPC  H16S 6872  -0.444   5.746   7.842  0.4429 -1.7779  2.6656
   76SLPC  C217 6873  -0.415   5.844   8.041  0.0817  1.2262  0.6888
   76SLPC  H17R 6874  -0.522   5.874   8.045  0.0927  1.6337 -1.3820
   76SLPC  H17S 6875  -0.355   5.923   8.090  4.4373 -2.0859  1.0596
   76SLPC  C218 6876  -0.407   5.721   8.125  0.3582 -0.3448 -0.1381
   76SLPC  H18R 6877  -0.302   5.687   8.142  0.9523  2.0758  1.4139
   76SLPC  H18S 6878  -0.465   5.641   8.075  1.0390  1.0893 -3.3732
   76SLPC  H18T 6879  -0.447   5.754   8.223 -0.8245 -0.0730 -0.7096
   76SLPC   C33 6880  -0.312   5.864   6.877 -0.5505 -0.1760 -0.1156
   76SLPC   H3X 6881  -0.210   5.904   6.861 -0.2559 -1.0051 -0.3408
   76SLPC   H3Y 6882  -0.303   5.753   6.874 -0.1575 -0.1812  1.1046
   76SLPC   C34 6883  -0.357   5.909   7.015 -0.0923  0.2011 -0.3073
   76SLPC   H4X 6884  -0.365   6.020   7.025 -0.3492  0.1065  0.5551
   76SLPC   H4Y 6885  -0.283   5.881   7.093  0.3512  4.0483  0.7831
   76SLPC   C35 6886  -0.503   5.857   7.049 -0.7239 -0.2095 -0.1009
   76SLPC   H5X 6887  -0.524   5.756   7.006  0.9379 -1.0135  0.9583
   76SLPC   H5Y 6888  -0.582   5.922   7.005 -0.4507 -0.1837 -0.5572
   76SLPC   C36 6889  -0.523   5.833   7.200 -0.2029 -1.3861 -0.2339
   76SLPC   H6X 6890  -0.465   5.910   7.254  1.0363 -2.3633 -0.1540
   76SLPC   H6Y 6891  -0.471   5.738   7.225  2.3981  0.1415  0.3348
   76SLPC   C37 6892  -0.672   5.835   7.235  0.4879 -0.3678  0.2573
   76SLPC   H7X 6893  -0.703   5.733   7.204  2.3540 -1.3840  1.7109
   76SLPC   H7Y 6894  -0.737   5.902   7.173  3.1370  0.6042 -1.5635
   76SLPC   C38 6895  -0.698   5.868   7.385 -0.7258  0.0970 -0.0336
   76SLPC   H8X 6896  -0.785   5.933   7.410  0.4213  1.0715  1.5000
   76SLPC   H8Y 6897  -0.611   5.930   7.415  1.2337 -2.7104  0.3078
   76SLPC   C39 6898  -0.704   5.742   7.475 -0.2355 -0.7038 -0.1028
   76SLPC   H9X 6899  -0.607   5.689   7.472  0.1798  0.1011 -1.4742
   76SLPC   H9Y 6900  -0.783   5.672   7.442 -1.0514 -0.4387  1.2714
   76SLPC  C310 6901  -0.737   5.781   7.621  0.1351  0.5818  0.2677
   76SLPC  H10X 6902  -0.846   5.802   7.616  0.2834  1.1589 -0.7313
   76SLPC  H10Y 6903  -0.683   5.876   7.642  2.8459 -0.8604  0.1273
   76SLPC  C311 6904  -0.715   5.677   7.726  0.7849 -0.2334 -0.3054
   76SLPC  H11X 6905  -0.610   5.642   7.722  0.6465 -0.5167 -1.7366
   76SLPC  H11Y 6906  -0.765   5.580   7.704  1.9830 -0.4589 -2.1388
   76SLPC  C312 6907  -0.753   5.719   7.860 -0.4202  0.3865 -0.0997
   76SLPC  H12X 6908  -0.854   5.765   7.866  0.3627  2.5968 -2.6944
   76SLPC  H12Y 6909  -0.689   5.804   7.888  1.4532 -0.1960 -2.4609
   76SLPC  C313 6910  -0.750   5.604   7.964  0.2523  0.4757 -0.5352
   76SLPC  H13X 6911  -0.655   5.547   7.957 -0.9729 -1.6533 -0.2204
   76SLPC  H13Y 6912  -0.838   5.538   7.951 -2.2753  2.8783  3.0547
   76SLPC  C314 6913  -0.764   5.652   8.106  0.2599 -0.0299  0.1930
   76SLPC  H14X 6914  -0.710   5.746   8.130 -0.7731  0.7922 -0.6407
   76SLPC  H14Y 6915  -0.734   5.568   8.173 -0.5616  0.3962  1.1063
   76SLPC  C315 6916  -0.909   5.667   8.154 -1.0469  0.0250  0.0238
   76SLPC  H15X 6917  -0.957   5.567   8.149 -1.8647  0.4290 -0.2953
   76SLPC  H15Y 6918  -0.953   5.727   8.071 -0.4284  0.6639  0.1535
   76SLPC  C316 6919  -0.923   5.740   8.289 -0.6898  0.3557 -0.4938
   76SLPC  H16X 6920  -0.873   5.838   8.279 -0.5243  0.1776 -1.4768
   76SLPC  H16Y 6921  -0.870   5.677   8.363 -1.0122 -0.4162 -0.9039
   76SLPC  C317 6922  -1.060   5.787   8.337 -0.0955 -0.3920  0.7288
   76SLPC  H17X 6923  -1.041   5.826   8.440  2.0243  0.5425  0.0062
   76SLPC  H17Y 6924  -1.137   5.706   8.337  0.1137 -0.5897  0.3304
   76SLPC  C318 6925  -1.113   5.901   8.241 -0.6758  0.4977  0.1390
   76SLPC  H18X 6926  -1.187   5.862   8.168 -2.2100  0.8218  1.4818
   76SLPC  H18Y 6927  -1.028   5.959   8.200  0.1531 -1.2208 -0.6252
   76SLPC  H18Z 6928  -1.177   5.964   8.307 -2.3685 -0.0818 -0.8971
   77SLPC     N 6929   1.536   5.313   6.172 -0.5970 -0.4578 -0.2700
   77SLPC   C13 6930   1.423   5.312   6.067 -0.3634 -0.5903  0.0962
   77SLPC  H13A 6931   1.474   5.295   5.973  1.8999 -0.3280  1.2365
   77SLPC  H13B 6932   1.357   5.229   6.084 -0.1518 -0.4852  1.4602
   77SLPC  H13C 6933   1.371   5.406   6.067  0.5735 -0.0577  0.9579
   77SLPC   C14 6934   1.607   5.181   6.166  0.2295  0.2157  0.0578
   77SLPC  H14A 6935   1.526   5.115   6.196 -2.2110  2.5750 -1.0677
   77SLPC  H14B 6936   1.625   5.165   6.061 -1.4621 -0.2444 -0.1928
   77SLPC  H14C 6937   1.679   5.182   6.247 -1.4375  0.6339  1.5780
   77SLPC   C15 6938   1.483   5.332   6.310 -0.1904 -0.0006  0.1643
   77SLPC  H15A 6939   1.562   5.340   6.383  1.9456 -0.6019 -2.0264
   77SLPC  H15B 6940   1.409   5.411   6.305  1.0471  1.1532 -0.3308
   77SLPC  H15C 6941   1.430   5.239   6.324 -0.7985  0.4355  0.8166
   77SLPC   C12 6942   1.630   5.426   6.134  0.3061  0.0777  0.9037
   77SLPC  H12A 6943   1.575   5.515   6.161 -0.1682 -0.0305  0.3071
   77SLPC  H12B 6944   1.650   5.419   6.028  1.8093  0.4699  1.1558
   77SLPC   C11 6945   1.772   5.431   6.195  0.0285  0.2741  0.3388
   77SLPC  H11A 6946   1.820   5.523   6.156  2.7632 -0.4389  1.8816
   77SLPC  H11B 6947   1.834   5.344   6.163 -1.6592 -0.4435 -1.0698
   77SLPC     P 6948   1.754   5.577   6.407 -0.0891 -0.3825 -0.2594
   77SLPC   O13 6949   1.879   5.655   6.378 -0.1195  0.2786 -0.8842
   77SLPC   O14 6950   1.625   5.643   6.371  0.2523  0.0973  0.2263
   77SLPC   O12 6951   1.766   5.434   6.337 -0.1800 -0.6870  0.5237
   77SLPC   O11 6952   1.754   5.521   6.562 -0.5525 -0.6750 -0.2174
   77SLPC    C1 6953   1.878   5.476   6.614  0.1043  0.0576 -0.0751
   77SLPC    HA 6954   1.913   5.393   6.548 -1.7078 -0.4959 -0.3846
   77SLPC    HB 6955   1.953   5.557   6.613 -1.8083  1.8689 -0.6511
   77SLPC    C2 6956   1.856   5.446   6.766 -0.6371  0.2576  0.0607
   77SLPC    HS 6957   1.826   5.543   6.812  0.6301  0.9066 -0.4387
   77SLPC   O21 6958   1.978   5.398   6.828  0.8710 -0.6841  0.1544
   77SLPC   C21 6959   2.071   5.493   6.866  0.8443  0.6955 -0.5950
   77SLPC   O22 6960   2.058   5.611   6.833 -0.4016  0.6954 -0.6945
   77SLPC   C22 6961   2.198   5.434   6.916 -0.6993  0.2700 -0.1047
   77SLPC   H2R 6962   2.229   5.361   6.838  0.2967 -0.0879  0.6145
   77SLPC   H2S 6963   2.280   5.508   6.923 -0.7202  0.3519 -0.6657
   77SLPC    C3 6964   1.739   5.341   6.779  0.4468  0.7730 -0.1575
   77SLPC    HX 6965   1.761   5.262   6.703 -0.1537 -0.3492  0.8048
   77SLPC    HY 6966   1.639   5.386   6.761 -1.6617 -3.5973 -0.0799
   77SLPC   O31 6967   1.746   5.284   6.909  0.0587 -0.6720  0.4592
   77SLPC   C31 6968   1.707   5.157   6.922  0.0541  0.1204 -0.4741
   77SLPC   O32 6969   1.682   5.089   6.823  0.1103 -0.2865  0.2852
   77SLPC   C32 6970   1.683   5.099   7.068  0.3054 -0.5578 -0.0038
   77SLPC   H2X 6971   1.583   5.134   7.102  0.0534 -2.5563  1.3921
   77SLPC   H2Y 6972   1.766   5.134   7.133  1.1527 -2.3639 -0.0903
   77SLPC   C23 6973   2.183   5.364   7.055 -0.3135  0.5265  0.1982
   77SLPC   H3R 6974   2.264   5.291   7.075  0.6213  1.9655  1.7815
   77SLPC   H3S 6975   2.086   5.310   7.054 -0.5004  0.8691 -0.6781
   77SLPC   C24 6976   2.173   5.469   7.173  0.1950  0.1183  0.0155
   77SLPC   H4R 6977   2.111   5.550   7.131  0.4160  1.4200  2.1303
   77SLPC   H4S 6978   2.280   5.500   7.184  0.7801 -0.8843 -2.4636
   77SLPC   C25 6979   2.115   5.414   7.302 -0.1523  0.5776 -0.3410
   77SLPC   H5R 6980   2.174   5.326   7.335 -1.0899 -0.1346 -0.5533
   77SLPC   H5S 6981   2.014   5.377   7.273  0.4951 -1.8933  0.4864
   77SLPC   C26 6982   2.093   5.518   7.404  0.4134  0.0072  0.0030
   77SLPC   H6R 6983   2.020   5.594   7.370  0.7898  1.2129  1.7775
   77SLPC   H6S 6984   2.190   5.572   7.412  0.2458  0.3733 -0.3779
   77SLPC   C27 6985   2.041   5.475   7.540  0.0899 -0.4464  0.2413
   77SLPC   H7R 6986   2.117   5.407   7.585  1.3716  1.0940  0.4788
   77SLPC   H7S 6987   1.942   5.429   7.523  0.7677 -2.3377  1.2869
   77SLPC   C28 6988   2.009   5.592   7.639 -0.2335  0.4724 -0.1137
   77SLPC   H8R 6989   2.102   5.652   7.656 -0.1624  0.2221  0.3819
   77SLPC   H8S 6990   1.974   5.562   7.740  0.6226 -1.6174 -0.4269
   77SLPC   C29 6991   1.903   5.692   7.591 -0.2313  0.4666  0.3230
   77SLPC   H9R 6992   1.950   5.761   7.518  0.9150 -2.5019 -1.8453
   77SLPC  C210 6993   1.772   5.699   7.621 -0.0904 -0.1302 -0.1693
   77SLPC  H10R 6994   1.713   5.774   7.566 -1.2868 -1.6137 -0.9273
   77SLPC  C211 6995   1.684   5.617   7.712 -0.2303  0.2202  0.1775
   77SLPC  H11R 6996   1.737   5.520   7.718  0.7989  0.6579 -1.4269
   77SLPC  H11S 6997   1.590   5.590   7.659 -0.0757 -0.9962  0.5249
   77SLPC  C212 6998   1.673   5.668   7.855 -0.1107 -0.1821 -0.5221
   77SLPC  H12R 6999   1.756   5.736   7.883 -0.1728 -0.0173 -0.7353
   77SLPC  C213 7000   1.577   5.638   7.945  0.3031 -0.6461 -0.2022
   77SLPC  H13R 7001   1.585   5.684   8.045  0.0833  1.4206 -1.1086
   77SLPC  C214 7002   1.459   5.542   7.919 -0.2894 -0.5350  0.6069
   77SLPC  H14R 7003   1.494   5.457   7.857  0.2046 -0.7699  1.2023
   77SLPC  H14S 7004   1.388   5.601   7.857 -0.8120 -1.6400  0.1383
   77SLPC  C215 7005   1.399   5.477   8.041 -0.2294 -0.4623  0.1071
   77SLPC  H15R 7006   1.298   5.443   8.009  0.8864 -1.3353 -2.5905
   77SLPC  H15S 7007   1.390   5.552   8.123 -3.6227 -1.2479  0.5449
   77SLPC  C216 7008   1.478   5.355   8.097  0.5118  0.1710 -0.0396
   77SLPC  H16R 7009   1.564   5.395   8.155  1.2981 -2.1343  0.4378
   77SLPC  H16S 7010   1.516   5.288   8.017 -0.8750 -0.7775  0.0559
   77SLPC  C217 7011   1.390   5.275   8.191  0.8436  0.0443  0.5994
   77SLPC  H17R 7012   1.292   5.264   8.140  0.1422 -0.4795  2.0275
   77SLPC  H17S 7013   1.370   5.327   8.288 -3.7389  0.5465 -0.4695
   77SLPC  C218 7014   1.443   5.133   8.227 -0.2695  0.6510 -0.9428
   77SLPC  H18R 7015   1.541   5.146   8.278 -0.6356 -1.6795  0.4291
   77SLPC  H18S 7016   1.464   5.063   8.143 -1.6765 -1.2752  0.2410
   77SLPC  H18T 7017   1.388   5.080   8.308 -1.0287  0.4599 -1.5756
   77SLPC   C33 7018   1.670   4.941   7.084 -0.3060 -0.4788 -0.2747
   77SLPC   H3X 7019   1.759   4.906   7.028  1.0718  1.6145  0.5056
   77SLPC   H3Y 7020   1.584   4.909   7.023 -0.4073 -0.6708 -0.0332
   77SLPC   C34 7021   1.673   4.893   7.217  0.2499 -0.0720 -0.0346
   77SLPC   H4X 7022   1.768   4.920   7.266 -1.6873  0.6802  3.4464
   77SLPC   H4Y 7023   1.662   4.783   7.203  2.0609 -0.0763 -1.6744
   77SLPC   C35 7024   1.566   4.933   7.315 -0.5526  0.6420 -0.3418
   77SLPC   H5X 7025   1.472   4.930   7.256 -1.0639  0.5688  0.4734
   77SLPC   H5Y 7026   1.593   5.037   7.344  0.0404 -0.0881  1.8540
   77SLPC   C36 7027   1.562   4.851   7.440 -1.0838  0.5311  0.5656
   77SLPC   H6X 7028   1.661   4.848   7.491 -1.0712  0.7269  0.5533
   77SLPC   H6Y 7029   1.528   4.751   7.407 -3.4739  1.1755  1.0206
   77SLPC   C37 7030   1.461   4.898   7.546  0.0416  0.2785  0.4337
   77SLPC   H7X 7031   1.355   4.885   7.516  1.0455 -2.5052 -2.1231
   77SLPC   H7Y 7032   1.475   5.003   7.580  1.7039 -0.3996  1.9448
   77SLPC   C38 7033   1.479   4.818   7.668  1.0582 -0.2737 -0.2388
   77SLPC   H8X 7034   1.581   4.834   7.710  0.6843 -0.9805  0.9669
   77SLPC   H8Y 7035   1.456   4.710   7.650 -1.1382  0.1315  0.0342
   77SLPC   C39 7036   1.394   4.860   7.788 -0.0977  0.3947  0.4283
   77SLPC   H9X 7037   1.294   4.836   7.747  1.6850 -4.0101 -1.6484
   77SLPC   H9Y 7038   1.409   4.968   7.810 -1.2861  0.2403  2.1432
   77SLPC  C310 7039   1.430   4.778   7.911 -0.5892 -0.3297 -0.2849
   77SLPC  H10X 7040   1.521   4.821   7.958 -1.1063  2.1193 -1.4683
   77SLPC  H10Y 7041   1.448   4.670   7.891  2.0542  0.4601 -2.6595
   77SLPC  C311 7042   1.313   4.783   8.003 -0.1157  0.0803  0.5726
   77SLPC  H11X 7043   1.215   4.776   7.951 -0.6126  1.6847  1.2659
   77SLPC  H11Y 7044   1.316   4.887   8.040 -1.8179  0.2206  0.3592
   77SLPC  C312 7045   1.349   4.687   8.119 -0.9762 -0.3865 -0.4471
   77SLPC  H12X 7046   1.433   4.733   8.176 -0.5667 -0.4938 -0.9589
   77SLPC  H12Y 7047   1.373   4.588   8.075  0.1987 -0.9478  1.4050
   77SLPC  C313 7048   1.243   4.677   8.233  0.6948 -0.6540  0.5591
   77SLPC  H13X 7049   1.148   4.651   8.183  0.1524 -0.2503  1.3642
   77SLPC  H13Y 7050   1.232   4.781   8.270  1.6664 -0.8347  1.3844
   77SLPC  C314 7051   1.268   4.597   8.358  0.6263 -0.6519 -0.0547
   77SLPC  H14X 7052   1.357   4.649   8.399  1.3837  0.5534 -3.0636
   77SLPC  H14Y 7053   1.302   4.495   8.330 -0.6343 -1.2238  0.4680
   77SLPC  C315 7054   1.167   4.592   8.468  0.4085  0.7434 -0.1964
   77SLPC  H15X 7055   1.079   4.527   8.449  0.9174 -0.3192  0.9826
   77SLPC  H15Y 7056   1.124   4.694   8.480  0.2112  0.5590  0.7267
   77SLPC  C316 7057   1.221   4.530   8.600 -0.2840 -1.0521  0.8508
   77SLPC  H16X 7058   1.284   4.607   8.651  2.5846 -2.1972 -0.8494
   77SLPC  H16Y 7059   1.296   4.452   8.575  0.2095 -0.7221  1.2794
   77SLPC  C317 7060   1.116   4.470   8.690  0.0169 -0.2219  0.2859
   77SLPC  H17X 7061   1.076   4.372   8.656  0.4550  0.2782 -1.7340
   77SLPC  H17Y 7062   1.026   4.535   8.688  0.3992  0.3267  0.7368
   77SLPC  C318 7063   1.173   4.445   8.820  0.0065 -0.1325  0.2174
   77SLPC  H18X 7064   1.260   4.376   8.818  1.1221  1.2808 -2.0498
   77SLPC  H18Y 7065   1.098   4.407   8.892  0.3137 -1.6251 -0.2329
   77SLPC  H18Z 7066   1.200   4.541   8.869 -2.4333 -0.4314  2.2607
   78SLPC     N 7067   4.754   6.688   5.811 -0.2662 -0.4739  0.5175
   78SLPC   C13 7068   4.856   6.658   5.708 -0.5559 -0.1725 -0.0066
   78SLPC  H13A 7069   4.849   6.735   5.632  2.5685 -1.1915 -1.3908
   78SLPC  H13B 7070   4.959   6.648   5.741 -0.6497  1.8308  1.0055
   78SLPC  H13C 7071   4.820   6.571   5.656  1.6202 -0.6815 -0.7151
   78SLPC   C14 7072   4.764   6.574   5.913 -0.2038 -1.2212 -0.2816
   78SLPC  H14A 7073   4.690   6.591   5.990 -0.0471  1.9789 -0.7664
   78SLPC  H14B 7074   4.741   6.479   5.868  0.0031 -1.5480  0.2997
   78SLPC  H14C 7075   4.862   6.578   5.960  0.9995 -2.4458 -2.5994
   78SLPC   C15 7076   4.619   6.675   5.742 -0.1878 -0.0993 -0.1818
   78SLPC  H15A 7077   4.617   6.742   5.657  0.5843  0.4225  0.2132
   78SLPC  H15B 7078   4.597   6.572   5.720  0.9660 -0.3118 -0.3389
   78SLPC  H15C 7079   4.537   6.709   5.804  1.4474  1.5455  1.1303
   78SLPC   C12 7080   4.776   6.822   5.878 -0.2345 -0.4046 -1.0119
   78SLPC  H12A 7081   4.690   6.836   5.942 -0.3300 -1.3242 -0.9290
   78SLPC  H12B 7082   4.777   6.895   5.799 -4.9003  1.0130  0.0881
   78SLPC   C11 7083   4.902   6.845   5.966 -0.6564  0.2055 -0.5220
   78SLPC  H11A 7084   4.901   6.954   5.985  1.4272  0.2301 -0.5242
   78SLPC  H11B 7085   4.993   6.826   5.906 -0.6071 -1.6844  0.1025
   78SLPC     P 7086   4.799   6.803   6.206 -0.0236  0.1622  0.0547
   78SLPC   O13 7087   4.831   6.936   6.257 -0.0512  0.4137  0.4946
   78SLPC   O14 7088   4.664   6.785   6.151 -0.1850 -0.7499 -0.2365
   78SLPC   O12 7089   4.902   6.764   6.090 -0.2294 -0.3197  0.0984
   78SLPC   O11 7090   4.816   6.692   6.316  0.3772 -0.0899 -0.2729
   78SLPC    C1 7091   4.760   6.558   6.304  0.3276  0.4047  0.2369
   78SLPC    HA 7092   4.682   6.567   6.226  0.8556 -0.7528 -0.4372
   78SLPC    HB 7093   4.842   6.489   6.274  1.8047  2.8309 -1.5169
   78SLPC    C2 7094   4.689   6.502   6.436  0.6456  0.0983  0.0209
   78SLPC    HS 7095   4.606   6.572   6.461  0.6307  0.6289 -1.4329
   78SLPC   O21 7096   4.785   6.497   6.543  0.0588  0.1480 -0.1301
   78SLPC   C21 7097   4.761   6.580   6.644 -0.8497  0.3875 -1.6132
   78SLPC   O22 7098   4.669   6.655   6.646 -0.3027 -0.5114  0.0092
   78SLPC   C22 7099   4.877   6.579   6.742 -0.2009 -0.1046  0.1588
   78SLPC   H2R 7100   4.950   6.498   6.723 -0.3607 -0.6504  1.8256
   78SLPC   H2S 7101   4.911   6.679   6.708 -1.4307  0.8252  1.5838
   78SLPC    C3 7102   4.624   6.357   6.410 -0.0652 -0.1823 -0.2500
   78SLPC    HX 7103   4.704   6.289   6.372 -1.2282  0.3373 -3.8250
   78SLPC    HY 7104   4.546   6.371   6.332 -0.5589 -0.9765  0.0875
   78SLPC   O31 7105   4.557   6.303   6.531  0.5533 -0.2866 -0.1112
   78SLPC   C31 7106   4.438   6.360   6.550 -0.1689  0.2548 -0.2558
   78SLPC   O32 7107   4.381   6.440   6.477 -0.9468 -0.5681 -0.3558
   78SLPC   C32 7108   4.380   6.292   6.674 -0.0470 -0.3046  0.7551
   78SLPC   H2X 7109   4.421   6.189   6.679 -0.0497 -0.2075  3.5691
   78SLPC   H2Y 7110   4.269   6.296   6.664 -0.2145 -1.7081  1.8947
   78SLPC   C23 7111   4.844   6.597   6.890 -0.5581 -1.1182 -0.0931
   78SLPC   H3R 7112   4.746   6.648   6.896  0.7247  1.3337  0.4248
   78SLPC   H3S 7113   4.921   6.656   6.944  0.9192 -0.4871 -2.8064
   78SLPC   C24 7114   4.851   6.462   6.966  0.7013  0.0325 -0.2591
   78SLPC   H4R 7115   4.952   6.416   6.959  0.7650  0.0230  0.6816
   78SLPC   H4S 7116   4.792   6.388   6.907 -0.6906  2.1859 -1.6595
   78SLPC   C25 7117   4.813   6.466   7.107 -0.1067 -0.2462  0.0971
   78SLPC   H5R 7118   4.814   6.363   7.148 -0.8541 -0.5089 -0.5410
   78SLPC   H5S 7119   4.710   6.504   7.122  0.2627  0.5566  0.6416
   78SLPC   C26 7120   4.906   6.537   7.206  0.1480 -0.6731 -0.5515
   78SLPC   H6R 7121   4.909   6.643   7.176  0.1397  0.1610  2.2580
   78SLPC   H6S 7122   5.006   6.489   7.203 -0.4940 -2.0666 -0.4073
   78SLPC   C27 7123   4.848   6.528   7.350 -0.1553  0.3627  1.1680
   78SLPC   H7R 7124   4.825   6.424   7.380 -0.1215  0.3312  1.0835
   78SLPC   H7S 7125   4.753   6.585   7.342 -0.5542 -0.3902  0.4891
   78SLPC   C28 7126   4.929   6.569   7.471 -0.8135 -0.9130 -0.4117
   78SLPC   H8R 7127   5.016   6.501   7.488 -1.5080 -1.3268  1.5373
   78SLPC   H8S 7128   4.868   6.561   7.563 -0.4816  2.4164  0.1478
   78SLPC   C29 7129   4.972   6.716   7.461  0.1805 -0.3346  0.1012
   78SLPC   H9R 7130   4.886   6.783   7.479 -0.4416 -1.0179 -0.3119
   78SLPC  C210 7131   5.087   6.770   7.413 -0.3797 -0.2073 -0.0495
   78SLPC  H10R 7132   5.102   6.876   7.438 -1.1444  0.2239 -1.3870
   78SLPC  C211 7133   5.215   6.695   7.366 -0.1182  0.3008  0.0376
   78SLPC  H11R 7134   5.261   6.769   7.297  0.1411  1.0409  0.9890
   78SLPC  H11S 7135   5.188   6.604   7.309 -1.3673 -0.7636  2.2568
   78SLPC  C212 7136   5.305   6.657   7.480 -0.2321  0.3898 -0.7676
   78SLPC  H12R 7137   5.265   6.627   7.577 -1.2045  2.0711 -0.6340
   78SLPC  C213 7138   5.440   6.665   7.466 -0.2119  0.5986 -0.9391
   78SLPC  H13R 7139   5.506   6.640   7.551 -0.4241  0.7300 -0.7361
   78SLPC  C214 7140   5.521   6.701   7.344  0.3949 -0.1505 -0.2671
   78SLPC  H14R 7141   5.570   6.800   7.358 -1.0819  0.5867 -0.2878
   78SLPC  H14S 7142   5.458   6.707   7.253  0.3955  1.3676 -0.1770
   78SLPC  C215 7143   5.625   6.588   7.303 -0.0275 -0.1045 -0.1107
   78SLPC  H15R 7144   5.567   6.497   7.276  0.8246 -0.4011 -0.9821
   78SLPC  H15S 7145   5.703   6.573   7.380 -2.3584  1.1890  2.5701
   78SLPC  C216 7146   5.721   6.623   7.185 -0.2511 -0.3625  0.1830
   78SLPC  H16R 7147   5.778   6.534   7.150 -0.5501  0.5073 -2.6128
   78SLPC  H16S 7148   5.800   6.695   7.214 -1.3369  1.3327 -0.9775
   78SLPC  C217 7149   5.637   6.675   7.071 -0.4168  0.3400 -0.2054
   78SLPC  H17R 7150   5.603   6.779   7.088  0.7278  0.7224 -0.2270
   78SLPC  H17S 7151   5.542   6.617   7.066 -0.2886  0.0182  1.0485
   78SLPC  C218 7152   5.713   6.683   6.935 -0.5067 -0.3089  0.1274
   78SLPC  H18R 7153   5.785   6.599   6.925 -1.0132 -0.6080 -1.0427
   78SLPC  H18S 7154   5.763   6.777   6.905 -1.2292 -0.0085 -0.1423
   78SLPC  H18T 7155   5.639   6.670   6.853  0.9246 -0.3890 -1.1696
   78SLPC   C33 7156   4.413   6.355   6.812  0.2281 -0.1433 -0.9848
   78SLPC   H3X 7157   4.389   6.464   6.814  1.1196  0.0460  1.0545
   78SLPC   H3Y 7158   4.519   6.333   6.836  0.7818  1.2477 -2.0713
   78SLPC   C34 7159   4.333   6.309   6.937 -1.1030  0.4035  0.9798
   78SLPC   H4X 7160   4.376   6.339   7.035  1.1755 -0.4890  0.3014
   78SLPC   H4Y 7161   4.312   6.200   6.949 -0.0276 -0.1846 -2.0072
   78SLPC   C35 7162   4.185   6.369   6.934  1.0738  0.7356  0.3837
   78SLPC   H5X 7163   4.125   6.342   6.844 -2.2515  1.5457  2.2683
   78SLPC   H5Y 7164   4.199   6.478   6.923 -1.9185  1.2122  0.9393
   78SLPC   C36 7165   4.115   6.324   7.066 -0.2335 -0.2203  0.2630
   78SLPC   H6X 7166   4.138   6.220   7.097  3.4813  1.3010  3.0855
   78SLPC   H6Y 7167   4.006   6.327   7.043 -0.2829 -1.2816  0.3351
   78SLPC   C37 7168   4.152   6.417   7.183  0.0728 -1.1246  0.0062
   78SLPC   H7X 7169   4.129   6.515   7.137  0.2550 -1.0495  0.0733
   78SLPC   H7Y 7170   4.261   6.406   7.200 -0.1072 -0.8549  1.4280
   78SLPC   C38 7171   4.079   6.393   7.315 -0.3971  0.2691 -0.0186
   78SLPC   H8X 7172   3.972   6.391   7.285 -0.6616  1.4575  0.8093
   78SLPC   H8Y 7173   4.081   6.482   7.381  0.3248  2.7785 -3.2907
   78SLPC   C39 7174   4.119   6.259   7.386  0.5640 -0.4548 -0.2514
   78SLPC   H9X 7175   4.221   6.279   7.426  0.1419  1.1686  0.0481
   78SLPC   H9Y 7176   4.117   6.176   7.312  1.8048 -0.9054  0.2104
   78SLPC  C310 7177   4.014   6.217   7.495  0.3900  0.1562  0.0545
   78SLPC  H10X 7178   4.036   6.113   7.529 -1.8703 -0.5752 -0.5914
   78SLPC  H10Y 7179   3.916   6.212   7.443  0.7285 -0.6614 -0.5113
   78SLPC  C311 7180   4.006   6.314   7.610  0.0347  0.3814 -0.5172
   78SLPC  H11X 7181   3.941   6.400   7.587  1.2743  1.8244  1.2656
   78SLPC  H11Y 7182   4.113   6.335   7.629  0.8972 -3.4836 -0.6137
   78SLPC  C312 7183   3.947   6.250   7.738 -0.3554 -0.8962 -0.4304
   78SLPC  H12X 7184   4.000   6.156   7.766 -0.6840 -1.3322 -1.2467
   78SLPC  H12Y 7185   3.842   6.215   7.727 -0.8329 -0.3498  2.1942
   78SLPC  C313 7186   3.940   6.343   7.869  0.1546 -0.0642  0.3251
   78SLPC  H13X 7187   3.881   6.298   7.952 -0.3221 -1.9673 -1.0100
   78SLPC  H13Y 7188   3.888   6.434   7.830  1.4559  0.6571  0.2436
   78SLPC  C314 7189   4.080   6.383   7.929 -0.1849  0.1671  0.1948
   78SLPC  H14X 7190   4.138   6.445   7.858  1.0246  0.3817  1.3477
   78SLPC  H14Y 7191   4.150   6.297   7.928 -0.9988 -0.5090 -2.1259
   78SLPC  C315 7192   4.072   6.432   8.075  0.1604 -0.1660 -0.0732
   78SLPC  H15X 7193   4.172   6.424   8.121  0.6845  2.0738 -0.7606
   78SLPC  H15Y 7194   4.000   6.377   8.138 -1.1042  0.8395 -0.6003
   78SLPC  C316 7195   4.050   6.583   8.072 -0.3732 -0.3686  0.6493
   78SLPC  H16X 7196   3.950   6.599   8.025 -0.9155 -1.4051  1.4307
   78SLPC  H16Y 7197   4.118   6.632   7.999  1.6393 -2.9918  0.7128
   78SLPC  C317 7198   4.059   6.656   8.207 -0.4880  0.3365  0.0236
   78SLPC  H17X 7199   4.165   6.670   8.239 -0.7968  1.2383  0.6523
   78SLPC  H17Y 7200   3.994   6.603   8.281  0.3967 -1.0522 -0.1616
   78SLPC  C318 7201   4.002   6.798   8.196 -0.8272  0.0088 -0.0248
   78SLPC  H18X 7202   3.974   6.850   8.290 -2.3443  0.0881 -0.5082
   78SLPC  H18Y 7203   3.916   6.808   8.127 -0.4745  0.3413 -0.4248
   78SLPC  H18Z 7204   4.080   6.864   8.151 -0.3430  0.6612  1.7401
   79SLPC     N 7205   2.382   0.893   6.360 -0.0030  0.6223  0.4827
   79SLPC   C13 7206   2.274   0.797   6.340  0.1511 -0.0049  0.1229
   79SLPC  H13A 7207   2.259   0.733   6.425  1.8447 -0.3168  0.2017
   79SLPC  H13B 7208   2.185   0.854   6.318  0.2183 -0.8949 -2.6502
   79SLPC  H13C 7209   2.292   0.726   6.261 -2.4412  0.9213 -1.3425
   79SLPC   C14 7210   2.389   0.976   6.232  0.0203 -0.1269 -0.3771
   79SLPC  H14A 7211   2.417   0.922   6.142 -0.2968 -0.4514 -0.2845
   79SLPC  H14B 7212   2.294   1.025   6.223  0.2416  0.1706 -1.1417
   79SLPC  H14C 7213   2.461   1.055   6.245 -0.1042  0.0065 -0.4984
   79SLPC   C15 7214   2.507   0.807   6.360 -0.1188 -0.2936 -0.0660
   79SLPC  H15A 7215   2.596   0.863   6.383 -1.5542  2.1241 -0.2656
   79SLPC  H15B 7216   2.492   0.720   6.423 -0.3141  0.4701  0.9676
   79SLPC  H15C 7217   2.518   0.764   6.262 -0.2012 -1.5981  0.4709
   79SLPC   C12 7218   2.364   0.970   6.489  0.4329 -0.1509 -0.6741
   79SLPC  H12A 7219   2.453   1.026   6.512 -1.1407  1.2332  2.3680
   79SLPC  H12B 7220   2.360   0.896   6.568  1.7097  0.2991 -0.1817
   79SLPC   C11 7221   2.252   1.073   6.505  0.7927 -0.6282 -0.5056
   79SLPC  H11A 7222   2.258   1.112   6.609  1.4823 -0.0945 -0.7423
   79SLPC  H11B 7223   2.163   1.007   6.501  1.3227 -1.3439 -0.5009
   79SLPC     P 7224   2.344   1.303   6.404  0.2414 -0.3137 -0.0503
   79SLPC   O13 7225   2.480   1.263   6.405 -0.3440  0.1435  0.2365
   79SLPC   O14 7226   2.300   1.377   6.292 -0.5666 -0.1348 -0.2336
   79SLPC   O12 7227   2.246   1.176   6.403  0.2403  0.4178 -0.0311
   79SLPC   O11 7228   2.300   1.381   6.536  0.5977  0.0841  0.2858
   79SLPC    C1 7229   2.263   1.511   6.544  0.8493 -0.0205 -0.4285
   79SLPC    HA 7230   2.344   1.573   6.587  0.3118 -0.1117  0.7342
   79SLPC    HB 7231   2.244   1.553   6.443 -0.5217  1.7962  0.5453
   79SLPC    C2 7232   2.144   1.533   6.639  0.0189  0.3550  0.5835
   79SLPC    HS 7233   2.093   1.628   6.611 -1.2994 -0.1604  1.1944
   79SLPC   O21 7234   2.188   1.520   6.775  0.4058  0.0571 -0.0748
   79SLPC   C21 7235   2.143   1.621   6.857  0.2207  0.7701 -0.6057
   79SLPC   O22 7236   2.104   1.727   6.818  0.3007 -0.3227 -0.1140
   79SLPC   C22 7237   2.174   1.584   6.998 -0.3333 -0.3754  0.1670
   79SLPC   H2R 7238   2.150   1.477   7.018 -2.4947  0.1843  0.6548
   79SLPC   H2S 7239   2.284   1.597   7.013 -0.1101  0.5151 -2.1215
   79SLPC    C3 7240   2.036   1.424   6.612 -0.2891  0.2904  0.0523
   79SLPC    HX 7241   2.094   1.330   6.630  0.7475  1.4970  3.3055
   79SLPC    HY 7242   1.996   1.420   6.508 -0.0585  0.5245 -0.0443
   79SLPC   O31 7243   1.931   1.443   6.706  0.3906  0.3387 -0.1412
   79SLPC   C31 7244   1.828   1.357   6.696 -0.8234 -0.3434  0.1174
   79SLPC   O32 7245   1.841   1.245   6.656  0.4174  0.3454 -0.3248
   79SLPC   C32 7246   1.696   1.413   6.748  0.0142 -0.1139  0.0410
   79SLPC   H2X 7247   1.623   1.329   6.749  0.5872 -0.6061  0.5858
   79SLPC   H2Y 7248   1.657   1.488   6.676  2.1675 -0.3033 -1.3310
   79SLPC   C23 7249   2.105   1.682   7.094 -0.1757  0.3124 -0.1174
   79SLPC   H3R 7250   1.997   1.699   7.073  0.2019  2.1669 -0.7013
   79SLPC   H3S 7251   2.166   1.775   7.089 -0.7437  0.6783 -0.4405
   79SLPC   C24 7252   2.119   1.636   7.242 -0.1711 -0.4309  0.0500
   79SLPC   H4R 7253   2.227   1.626   7.266  0.5819  0.2258 -2.8497
   79SLPC   H4S 7254   2.074   1.535   7.256 -0.4729 -0.0962  1.5819
   79SLPC   C25 7255   2.047   1.735   7.343 -0.6051 -0.6995  0.0395
   79SLPC   H5R 7256   1.937   1.748   7.329 -0.6057 -0.4449  0.2845
   79SLPC   H5S 7257   2.089   1.836   7.324  0.9003 -0.7446  2.9125
   79SLPC   C26 7258   2.075   1.690   7.487 -0.0591 -0.9283 -0.0176
   79SLPC   H6R 7259   2.182   1.710   7.509  0.0766  0.0467 -1.5004
   79SLPC   H6S 7260   2.057   1.581   7.498  0.6774 -0.9593  0.9123
   79SLPC   C27 7261   1.989   1.766   7.585  0.0847 -0.8029  0.2735
   79SLPC   H7R 7262   1.889   1.717   7.588  0.3528 -1.4443 -0.8194
   79SLPC   H7S 7263   1.969   1.869   7.550  2.3234 -0.8517 -1.3119
   79SLPC   C28 7264   2.048   1.757   7.724 -0.9207  0.0892  0.3241
   79SLPC   H8R 7265   2.145   1.809   7.734 -0.8037  0.0230 -0.3914
   79SLPC   H8S 7266   2.079   1.656   7.758  0.0819  0.0152 -0.7728
   79SLPC   C29 7267   1.947   1.820   7.814  0.4086 -0.1444 -0.1673
   79SLPC   H9R 7268   1.916   1.920   7.778  1.5201  1.0358  2.0054
   79SLPC  C210 7269   1.915   1.773   7.936  0.5762  1.2160  0.2134
   79SLPC  H10R 7270   1.859   1.845   7.997  1.9526  2.0916  0.4647
   79SLPC  C211 7271   1.965   1.649   8.012  0.5185  0.5583 -0.6087
   79SLPC  H11R 7272   1.964   1.677   8.119  1.0684  1.0211 -0.7217
   79SLPC  H11S 7273   2.070   1.630   7.981  0.1532  0.6269 -1.9386
   79SLPC  C212 7274   1.882   1.520   7.984 -0.1764 -0.9709  0.7963
   79SLPC  H12R 7275   1.870   1.496   7.877  0.3685  1.1809  0.2184
   79SLPC  C213 7276   1.825   1.447   8.074  0.6596  0.0411  0.1445
   79SLPC  H13R 7277   1.760   1.367   8.035  1.9362  0.6060 -3.2450
   79SLPC  C214 7278   1.815   1.461   8.221 -0.5848 -0.4049  0.3984
   79SLPC  H14R 7279   1.739   1.389   8.257 -0.6352  0.1327  1.3697
   79SLPC  H14S 7280   1.778   1.561   8.254 -1.8793 -1.3201  1.7533
   79SLPC  C215 7281   1.939   1.411   8.284 -0.1381 -0.0143  0.1801
   79SLPC  H15R 7282   2.019   1.485   8.265 -1.5778  1.8969  1.4237
   79SLPC  H15S 7283   1.977   1.313   8.248  0.0440 -0.7443  2.2911
   79SLPC  C216 7284   1.919   1.411   8.443  0.3446 -0.5779 -1.0772
   79SLPC  H16R 7285   1.830   1.351   8.470 -0.3803 -0.2556 -2.7120
   79SLPC  H16S 7286   1.897   1.514   8.478  3.3736 -0.0690 -0.5320
   79SLPC  C217 7287   2.046   1.365   8.509 -0.3835 -1.3954 -0.3252
   79SLPC  H17R 7288   2.128   1.436   8.485 -1.5267 -0.9243 -2.9434
   79SLPC  H17S 7289   2.061   1.263   8.469 -1.0325 -0.9126 -1.8010
   79SLPC  C218 7290   2.036   1.369   8.656  0.1667 -0.3452 -0.1860
   79SLPC  H18R 7291   2.013   1.472   8.693 -0.5505  0.1918 -2.0614
   79SLPC  H18S 7292   2.129   1.333   8.705 -1.0263  0.4405  2.7491
   79SLPC  H18T 7293   1.957   1.300   8.691 -1.9908  1.6863 -0.9505
   79SLPC   C33 7294   1.705   1.483   6.883 -0.1266 -0.3188  0.3599
   79SLPC   H3X 7295   1.606   1.517   6.920  0.2579 -0.5689  1.6333
   79SLPC   H3Y 7296   1.762   1.578   6.871 -1.0439  0.2944  0.7002
   79SLPC   C34 7297   1.753   1.389   6.990  0.0586 -0.1883 -0.3408
   79SLPC   H4X 7298   1.860   1.368   6.970  1.1369 -0.0613  4.5687
   79SLPC   H4Y 7299   1.683   1.303   6.985 -0.9548  0.5221  1.1628
   79SLPC   C35 7300   1.740   1.455   7.131  0.5388  0.3355 -0.8166
   79SLPC   H5X 7301   1.641   1.504   7.139 -0.0994 -0.7520 -1.8447
   79SLPC   H5Y 7302   1.812   1.540   7.137 -0.6385  1.2157  1.7308
   79SLPC   C36 7303   1.765   1.370   7.256  0.0742  0.4777  0.3521
   79SLPC   H6X 7304   1.859   1.312   7.250  1.3529  2.4708  0.4993
   79SLPC   H6Y 7305   1.680   1.302   7.276 -0.1483  0.9326  0.9892
   79SLPC   C37 7306   1.766   1.466   7.380  0.4541 -0.1077 -0.0136
   79SLPC   H7X 7307   1.679   1.534   7.372 -0.7492 -1.0760  3.7988
   79SLPC   H7Y 7308   1.852   1.535   7.366  0.3524  0.1782  0.7667
   79SLPC   C38 7309   1.778   1.398   7.521 -0.3756 -0.5702  0.4836
   79SLPC   H8X 7310   1.792   1.479   7.596 -0.5369 -0.4027  0.3342
   79SLPC   H8Y 7311   1.868   1.334   7.515 -0.2883 -0.4624  0.6421
   79SLPC   C39 7312   1.654   1.312   7.561 -1.1882 -0.6155  0.2341
   79SLPC   H9X 7313   1.641   1.232   7.485  3.9494 -0.3439 -1.0816
   79SLPC   H9Y 7314   1.572   1.386   7.571  0.6750  1.3074  1.6392
   79SLPC  C310 7315   1.669   1.235   7.688 -0.0771  0.5169 -0.6295
   79SLPC  H10X 7316   1.727   1.300   7.758  0.8387  2.1317 -2.8209
   79SLPC  H10Y 7317   1.737   1.148   7.677  2.5666  2.2179  1.5314
   79SLPC  C311 7318   1.531   1.175   7.738 -0.3272 -0.4584 -0.6827
   79SLPC  H11X 7319   1.506   1.073   7.702  1.4855 -1.0404 -0.3374
   79SLPC  H11Y 7320   1.463   1.246   7.685 -0.6694 -0.1298  0.1774
   79SLPC  C312 7321   1.513   1.195   7.888 -0.1870 -0.0747 -0.1461
   79SLPC  H12X 7322   1.406   1.183   7.915  0.4659 -1.0585  2.1745
   79SLPC  H12Y 7323   1.543   1.295   7.924 -2.1546  0.5271 -0.1194
   79SLPC  C313 7324   1.585   1.083   7.972  0.3517  0.6224 -0.2216
   79SLPC  H13X 7325   1.692   1.067   7.950  0.4469 -0.0739  0.7345
   79SLPC  H13Y 7326   1.538   0.985   7.951 -0.1752  0.5994  1.0026
   79SLPC  C314 7327   1.575   1.098   8.128 -0.3779  0.0697  0.4513
   79SLPC  H14X 7328   1.472   1.086   8.167 -0.3709 -5.2356 -0.7652
   79SLPC  H14Y 7329   1.602   1.204   8.148 -2.5760  0.6692  0.3676
   79SLPC  C315 7330   1.671   1.001   8.206 -0.6832  0.1534 -0.8100
   79SLPC  H15X 7331   1.772   1.023   8.164  0.5529 -1.0755  1.4432
   79SLPC  H15Y 7332   1.631   0.901   8.180 -1.6438  0.5435 -0.8245
   79SLPC  C316 7333   1.677   1.035   8.354 -0.5218  0.5495 -0.5717
   79SLPC  H16X 7334   1.579   1.016   8.402  1.2628 -2.2959  2.2013
   79SLPC  H16Y 7335   1.702   1.143   8.367  0.4407  0.3846 -1.0430
   79SLPC  C317 7336   1.784   0.953   8.430  0.2408  0.5380  0.1528
   79SLPC  H17X 7337   1.884   0.947   8.381  0.3102 -0.3019  0.4002
   79SLPC  H17Y 7338   1.740   0.852   8.432  1.6561 -0.0827  1.2074
   79SLPC  C318 7339   1.810   0.997   8.572  0.5471  0.0362  0.2057
   79SLPC  H18X 7340   1.833   0.910   8.638  2.8185  0.1944 -0.3449
   79SLPC  H18Y 7341   1.720   1.048   8.613  1.6772  1.3384  1.1204
   79SLPC  H18Z 7342   1.892   1.071   8.559  1.8823 -1.2169  1.3381
   80SLPC     N 7343   4.066   6.531   6.126  0.1027 -0.0322  0.0330
   80SLPC   C13 7344   4.188   6.545   6.208 -0.0093 -0.3539 -0.4089
   80SLPC  H13A 7345   4.280   6.543   6.153  0.3919 -1.2325  0.2854
   80SLPC  H13B 7346   4.185   6.635   6.268 -1.0090 -1.7199  1.6745
   80SLPC  H13C 7347   4.193   6.466   6.282 -1.8319  0.4185  0.5767
   80SLPC   C14 7348   4.033   6.390   6.106 -0.1130  0.6496  0.0434
   80SLPC  H14A 7349   4.110   6.340   6.049  1.5673  0.9465  1.9786
   80SLPC  H14B 7350   4.028   6.344   6.204  0.7278 -2.5564 -1.3213
   80SLPC  H14C 7351   3.946   6.374   6.045  0.7612  0.5139 -1.1878
   80SLPC   C15 7352   4.082   6.600   5.999  0.3223  0.6865 -0.0249
   80SLPC  H15A 7353   3.998   6.605   5.932  1.1417 -1.8252 -1.2981
   80SLPC  H15B 7354   4.094   6.704   6.026  2.1634 -0.3616  3.4535
   80SLPC  H15C 7355   4.168   6.569   5.940 -0.3776 -1.9445  0.3006
   80SLPC   C12 7356   3.953   6.602   6.205  0.1824  0.0745 -0.3152
   80SLPC  H12A 7357   3.865   6.621   6.146 -0.9947  1.7723  1.9241
   80SLPC  H12B 7358   3.988   6.703   6.213  2.0911 -0.5183 -0.9776
   80SLPC   C11 7359   3.908   6.553   6.343  0.0129  0.4259  0.3354
   80SLPC  H11A 7360   3.859   6.644   6.386 -0.9420  0.2793 -0.4176
   80SLPC  H11B 7361   3.989   6.532   6.415  0.4065 -0.6480 -0.4111
   80SLPC     P 7362   3.668   6.456   6.304 -0.2529  0.4150  0.4215
   80SLPC   O13 7363   3.655   6.536   6.182 -0.6391 -0.1615 -0.2865
   80SLPC   O14 7364   3.599   6.325   6.307  0.3309  0.3853 -0.5792
   80SLPC   O12 7365   3.822   6.441   6.339 -0.5389 -0.1981 -0.5571
   80SLPC   O11 7366   3.629   6.544   6.425  0.0664  0.2606 -0.4257
   80SLPC    C1 7367   3.608   6.489   6.557 -0.0714 -0.0255 -0.5584
   80SLPC    HA 7368   3.606   6.379   6.549 -1.2126 -0.1823  1.5875
   80SLPC    HB 7369   3.697   6.512   6.620  0.7186 -1.4837 -1.1330
   80SLPC    C2 7370   3.471   6.523   6.619 -0.0631  0.8391 -0.4037
   80SLPC    HS 7371   3.389   6.477   6.560  0.3490 -1.0973  0.4917
   80SLPC   O21 7372   3.466   6.667   6.648  0.2137  0.2623  0.0677
   80SLPC   C21 7373   3.361   6.728   6.601  0.4216  0.2764  0.0758
   80SLPC   O22 7374   3.283   6.685   6.517  0.0795 -0.2699  0.1388
   80SLPC   C22 7375   3.334   6.859   6.667 -0.2471 -0.6718 -0.5386
   80SLPC   H2R 7376   3.420   6.898   6.727 -0.9141 -1.1354  0.7396
   80SLPC   H2S 7377   3.316   6.929   6.583  1.2237  0.5658  0.1327
   80SLPC    C3 7378   3.462   6.443   6.751  0.0347 -0.3738  0.2828
   80SLPC    HX 7379   3.537   6.488   6.820 -0.7523  2.5959 -0.7048
   80SLPC    HY 7380   3.494   6.337   6.742  2.7568  0.3031  1.6292
   80SLPC   O31 7381   3.328   6.452   6.809  0.3184 -0.0067 -0.6334
   80SLPC   C31 7382   3.239   6.375   6.741 -0.3323 -0.4495 -0.2939
   80SLPC   O32 7383   3.271   6.284   6.668  0.3640  0.0865  0.1836
   80SLPC   C32 7384   3.095   6.429   6.772  0.4095 -0.4423  0.2820
   80SLPC   H2X 7385   3.032   6.373   6.700  0.1437  0.5649 -0.2686
   80SLPC   H2Y 7386   3.102   6.535   6.740 -0.1311 -0.5589 -0.2327
   80SLPC   C23 7387   3.217   6.853   6.772  0.0898 -0.9893 -0.0662
   80SLPC   H3R 7388   3.123   6.801   6.745 -0.8213  0.4295  0.2924
   80SLPC   H3S 7389   3.197   6.959   6.801  1.4332 -0.7389 -0.0087
   80SLPC   C24 7390   3.263   6.777   6.894  0.7022 -0.2105 -0.2325
   80SLPC   H4R 7391   3.358   6.823   6.930  2.4637 -1.6552 -2.8718
   80SLPC   H4S 7392   3.272   6.670   6.867 -0.7813 -0.2766 -0.5096
   80SLPC   C25 7393   3.158   6.782   7.001  0.2899  0.3938 -0.7985
   80SLPC   H5R 7394   3.063   6.731   6.975  0.9357 -0.9732 -0.5231
   80SLPC   H5S 7395   3.138   6.889   7.027  0.0065  0.0693  0.3608
   80SLPC   C26 7396   3.204   6.728   7.139 -1.1717  0.2232 -0.5444
   80SLPC   H6R 7397   3.297   6.784   7.162  0.9796 -2.6725 -1.7759
   80SLPC   H6S 7398   3.222   6.618   7.140 -0.9525  0.2634  0.8294
   80SLPC   C27 7399   3.108   6.756   7.249  0.4564 -0.5702 -0.2494
   80SLPC   H7R 7400   3.020   6.697   7.213  1.1369 -1.8912  0.2283
   80SLPC   H7S 7401   3.091   6.865   7.254 -2.4816 -0.8614 -2.0762
   80SLPC   C28 7402   3.149   6.698   7.381 -0.0886  0.2497 -0.4505
   80SLPC   H8R 7403   3.177   6.591   7.371 -0.8352  0.0924 -0.8704
   80SLPC   H8S 7404   3.061   6.687   7.449 -0.1880 -1.4169 -0.8238
   80SLPC   C29 7405   3.260   6.764   7.460  0.7810 -0.1791  0.5024
   80SLPC   H9R 7406   3.362   6.724   7.446  0.2495 -0.6954 -2.1960
   80SLPC  C210 7407   3.235   6.851   7.563 -0.3482 -0.4384  0.3391
   80SLPC  H10R 7408   3.312   6.873   7.638  0.3287  0.7569 -0.6759
   80SLPC  C211 7409   3.101   6.894   7.621  0.5084  0.4244 -0.5281
   80SLPC  H11R 7410   3.105   6.890   7.732 -0.7122 -1.4886 -0.5344
   80SLPC  H11S 7411   3.015   6.833   7.586  0.1545  0.1267  0.8396
   80SLPC  C212 7412   3.093   7.034   7.566  0.1625  0.5872  0.2832
   80SLPC  H12R 7413   3.114   7.048   7.459 -0.9353 -0.2586 -0.0485
   80SLPC  C213 7414   3.060   7.143   7.633  0.0424  0.0834  0.4549
   80SLPC  H13R 7415   3.061   7.240   7.582  0.7531 -0.9406 -1.5299
   80SLPC  C214 7416   3.017   7.159   7.772 -0.0069  0.0811  0.7947
   80SLPC  H14R 7417   3.107   7.188   7.831  0.1871 -2.9555  2.0698
   80SLPC  H14S 7418   2.979   7.062   7.810 -0.6741 -0.5291 -1.4170
   80SLPC  C215 7419   2.906   7.262   7.790  0.9232 -0.5098  0.6100
   80SLPC  H15R 7420   2.832   7.254   7.707  0.4297  0.5951  0.9270
   80SLPC  H15S 7421   2.949   7.363   7.777  0.0707 -0.0358  1.3950
   80SLPC  C216 7422   2.832   7.244   7.928  0.6104  0.1160  0.9245
   80SLPC  H16R 7423   2.775   7.149   7.925  0.5944  0.1543 -0.4301
   80SLPC  H16S 7424   2.773   7.337   7.944  1.3244 -0.0101  4.8298
   80SLPC  C217 7425   2.931   7.245   8.051 -0.4710  0.0372  0.1211
   80SLPC  H17R 7426   3.011   7.321   8.067  1.8216 -1.8304 -2.1108
   80SLPC  H17S 7427   2.988   7.151   8.036  0.3390  0.2876  1.5639
   80SLPC  C218 7428   2.860   7.211   8.183  0.5994  0.2343 -0.5521
   80SLPC  H18R 7429   2.817   7.109   8.181  1.2774 -0.0696 -0.0541
   80SLPC  H18S 7430   2.778   7.286   8.183 -0.6600 -1.0967  1.2225
   80SLPC  H18T 7431   2.926   7.219   8.273 -1.3943 -1.3258  1.0997
   80SLPC   C33 7432   3.055   6.405   6.922  0.0931 -0.3859  0.2756
   80SLPC   H3X 7433   2.958   6.458   6.937  0.3989 -0.1280  1.4267
   80SLPC   H3Y 7434   3.130   6.442   6.995  0.6171 -0.4947 -0.2080
   80SLPC   C34 7435   3.037   6.260   6.957  0.2630 -0.5451  1.6633
   80SLPC   H4X 7436   3.133   6.207   6.939  0.2545 -0.1690  0.4055
   80SLPC   H4Y 7437   2.966   6.227   6.877  1.0463 -0.7901  1.0626
   80SLPC   C35 7438   2.977   6.224   7.090 -0.3121  0.0516  0.1505
   80SLPC   H5X 7439   2.970   6.114   7.098 -0.2190  0.0230 -0.1296
   80SLPC   H5Y 7440   2.878   6.274   7.088  0.2029  1.0630 -2.2644
   80SLPC   C36 7441   3.047   6.297   7.207 -0.3340  0.1497  0.4052
   80SLPC   H6X 7442   3.056   6.406   7.187  0.9259  0.4626  2.4696
   80SLPC   H6Y 7443   3.150   6.259   7.222 -1.1126 -1.3580  2.1859
   80SLPC   C37 7444   2.977   6.260   7.344 -0.3174  0.4198 -0.5744
   80SLPC   H7X 7445   3.042   6.294   7.427 -1.1183  0.4463  0.0509
   80SLPC   H7Y 7446   2.967   6.150   7.350  2.0654  0.1903 -0.3521
   80SLPC   C38 7447   2.841   6.333   7.368  0.2330  0.0179  0.5146
   80SLPC   H8X 7448   2.771   6.318   7.283  0.0769  1.6893  0.3406
   80SLPC   H8Y 7449   2.868   6.440   7.360  3.4961 -0.8241 -0.6410
   80SLPC   C39 7450   2.768   6.298   7.499  0.6614  0.0550  0.2215
   80SLPC   H9X 7451   2.749   6.189   7.497  3.8285 -0.5496  1.1147
   80SLPC   H9Y 7452   2.679   6.365   7.496  0.7892  0.2478  0.8184
   80SLPC  C310 7453   2.849   6.319   7.623  0.2754 -0.0261 -0.3799
   80SLPC  H10X 7454   2.873   6.427   7.631 -0.8215  0.1619  0.3725
   80SLPC  H10Y 7455   2.940   6.255   7.617  1.3782  1.3927  0.8506
   80SLPC  C311 7456   2.769   6.283   7.748  0.1358  0.1535  0.7213
   80SLPC  H11X 7457   2.671   6.334   7.757 -1.7896 -3.1069 -0.9115
   80SLPC  H11Y 7458   2.826   6.318   7.837 -0.9857  0.0322  1.4927
   80SLPC  C312 7459   2.750   6.131   7.786  0.3330 -0.1643  0.4940
   80SLPC  H12X 7460   2.692   6.084   7.704  1.2170  0.3885 -0.4585
   80SLPC  H12Y 7461   2.693   6.134   7.881  0.2951 -2.0231  0.5612
   80SLPC  C313 7462   2.871   6.053   7.789  0.1991 -0.0774 -0.1783
   80SLPC  H13X 7463   2.949   6.098   7.855 -0.6155 -0.9459  1.4213
   80SLPC  H13Y 7464   2.912   6.040   7.687 -0.0319 -2.5447 -0.0003
   80SLPC  C314 7465   2.847   5.909   7.834 -0.1124 -0.9837  0.6300
   80SLPC  H14X 7466   2.932   5.841   7.810  0.5646 -0.2044  0.7880
   80SLPC  H14Y 7467   2.758   5.875   7.778  1.2123 -0.2778 -1.9916
   80SLPC  C315 7468   2.830   5.892   7.986  0.0969 -0.1134  0.0215
   80SLPC  H15X 7469   2.759   5.972   8.016 -1.0641 -1.7137  1.6401
   80SLPC  H15Y 7470   2.923   5.928   8.035  1.2558  0.2765 -2.3823
   80SLPC  C316 7471   2.780   5.751   8.015 -0.4534  0.2885 -0.2816
   80SLPC  H16X 7472   2.849   5.672   7.976  1.8531  2.3331 -0.4785
   80SLPC  H16Y 7473   2.687   5.728   7.959  1.2803 -2.6481 -2.1118
   80SLPC  C317 7474   2.759   5.732   8.165  0.5709  0.1030 -0.4376
   80SLPC  H17X 7475   2.665   5.677   8.187 -0.3079  2.1205  1.0676
   80SLPC  H17Y 7476   2.728   5.829   8.210 -0.1761 -0.2598 -0.1577
   80SLPC  C318 7477   2.874   5.672   8.235 -0.3337 -0.4788 -0.2940
   80SLPC  H18X 7478   2.949   5.753   8.236 -0.1949 -0.6085  0.3034
   80SLPC  H18Y 7479   2.917   5.589   8.175 -0.0935  0.0701 -0.8823
   80SLPC  H18Z 7480   2.846   5.631   8.335  3.1181  0.1720  1.0100
   81SAPS     N 7481   4.359   0.520  11.073  0.6744  0.8966  0.2315
   81SAPS   HN1 7482   4.300   0.464  11.139  2.0950  0.4828  1.1791
   81SAPS   HN2 7483   4.447   0.466  11.068  1.0442  1.7131 -3.1890
   81SAPS   HN3 7484   4.376   0.617  11.108 -1.3906  1.7518 -0.9887
   81SAPS   C12 7485   4.290   0.525  10.946 -0.6861  0.3193 -0.3170
   81SAPS  H12A 7486   4.369   0.561  10.881  2.2413  1.4231  3.6187
   81SAPS   C13 7487   4.249   0.377  10.897  0.6753 -0.0509 -0.7082
   81SAPS  O13A 7488   4.298   0.288  10.961  0.6074  0.2564  0.1249
   81SAPS  O13B 7489   4.176   0.364  10.799 -0.0620  0.1630  0.0290
   81SAPS   C11 7490   4.164   0.612  10.942 -0.2880 -0.2278 -0.9288
   81SAPS  H11A 7491   4.085   0.557  10.996  2.3677 -2.2062  1.0416
   81SAPS  H11B 7492   4.132   0.614  10.835 -0.7135 -1.3538 -0.8312
   81SAPS     P 7493   4.070   0.851  10.980 -0.6534 -0.3404  0.1924
   81SAPS   O13 7494   3.989   0.877  11.104 -0.1830 -0.3046  0.0031
   81SAPS   O14 7495   4.133   0.972  10.922  0.2738 -0.0057 -0.3369
   81SAPS   O12 7496   4.181   0.741  10.993  0.1658  0.4050  0.2321
   81SAPS   O11 7497   3.959   0.785  10.880 -0.3899  0.3490 -0.1047
   81SAPS    C1 7498   3.858   0.875  10.815  0.5745  0.3197 -0.1905
   81SAPS    HA 7499   3.775   0.904  10.883 -0.0676 -1.8011 -0.0308
   81SAPS    HB 7500   3.895   0.974  10.781 -1.2543  0.2462 -2.5309
   81SAPS    C2 7501   3.799   0.808  10.696  0.4315 -0.1106 -0.2559
   81SAPS    HS 7502   3.761   0.710  10.732 -1.8251  0.7242 -0.2815
   81SAPS   O21 7503   3.909   0.794  10.599  0.0298 -0.6347 -1.0767
   81SAPS   C21 7504   3.884   0.699  10.507  1.0330 -1.2264 -0.5733
   81SAPS   O22 7505   3.783   0.631  10.512  0.0583 -0.5056 -0.0751
   81SAPS   C22 7506   3.981   0.706  10.386  0.0040 -0.3510 -0.0684
   81SAPS   H2R 7507   4.055   0.781  10.421 -1.3731  1.2110 -0.4460
   81SAPS   H2S 7508   4.019   0.607  10.352  0.3896  0.6078 -2.4940
   81SAPS    C3 7509   3.678   0.892  10.643 -0.1742  0.3525 -0.1198
   81SAPS    HX 7510   3.605   0.890  10.727 -0.3782 -1.5936 -0.3131
   81SAPS    HY 7511   3.631   0.844  10.554 -1.1431  1.0101  0.0224
   81SAPS   O31 7512   3.722   1.033  10.624 -0.3978  0.1195  0.7656
   81SAPS   C31 7513   3.646   1.124  10.678  0.1630 -0.4108  0.4866
   81SAPS   O32 7514   3.569   1.104  10.769  0.8369 -0.1546  0.1343
   81SAPS   C32 7515   3.677   1.251  10.597  0.1594 -0.3098  0.0173
   81SAPS   H2X 7516   3.755   1.227  10.522  0.2416 -1.7606  0.5521
   81SAPS   H2Y 7517   3.735   1.315  10.667  1.5826 -2.6394  1.0494
   81SAPS   C23 7518   3.912   0.757  10.261 -0.0085  0.2846  0.3471
   81SAPS   H3R 7519   3.823   0.699  10.226 -0.0040  0.2463  0.3989
   81SAPS   H3S 7520   3.986   0.738  10.180 -0.6557 -1.3649  0.1017
   81SAPS   C24 7521   3.901   0.914  10.234 -0.4420  0.3137 -0.4544
   81SAPS   H4R 7522   3.883   0.929  10.126  0.4092 -0.3429 -0.6943
   81SAPS   H4S 7523   3.990   0.967  10.272 -1.5242  1.0743  1.1081
   81SAPS   C25 7524   3.777   0.968  10.298  0.2412 -0.2348  0.3860
   81SAPS   H5R 7525   3.773   0.956  10.408  0.1497  0.2829  0.4383
   81SAPS   C26 7526   3.677   1.033  10.242  0.3507 -0.8897  0.3097
   81SAPS   H6R 7527   3.598   1.047  10.316 -0.9604 -0.5467 -1.1215
   81SAPS   C27 7528   3.651   1.078  10.105  0.8236 -0.1890 -0.1168
   81SAPS   H7R 7529   3.729   1.140  10.055  0.3076 -0.7424 -1.6371
   81SAPS   H7S 7530   3.560   1.141  10.112 -0.0096 -1.0115 -2.9141
   81SAPS   C28 7531   3.600   0.964  10.019 -0.3659 -0.1490 -0.1157
   81SAPS   H8R 7532   3.595   0.866  10.068 -0.3376 -0.8834 -1.5617
   81SAPS   C29 7533   3.562   0.967   9.889  0.2462  0.3282  0.1709
   81SAPS   H9R 7534   3.514   0.881   9.841  0.7761 -0.5466  1.2090
   81SAPS  C210 7535   3.566   1.095   9.807 -0.0506 -0.3102  0.0471
   81SAPS  H10R 7536   3.625   1.174   9.858  0.7107 -2.7407  3.0998
   81SAPS  H10S 7537   3.465   1.140   9.805 -0.4726 -1.2770 -1.5166
   81SAPS  C211 7538   3.613   1.076   9.664 -0.4421  0.0453 -0.0509
   81SAPS  H11R 7539   3.618   0.971   9.632 -2.0710 -0.1367  0.2700
   81SAPS  C212 7540   3.672   1.169   9.581  0.6573 -0.0381  0.5372
   81SAPS  H12R 7541   3.702   1.137   9.480 -1.1333  0.7982 -0.2869
   81SAPS  C213 7542   3.699   1.316   9.602  0.0710 -0.5993  0.6251
   81SAPS  H13R 7543   3.803   1.338   9.570  0.6629 -2.0423  1.5105
   81SAPS  H13S 7544   3.697   1.342   9.710  0.5528  3.9454 -0.3587
   81SAPS  C214 7545   3.612   1.414   9.521  0.6444 -0.1003 -0.2515
   81SAPS  H14R 7546   3.517   1.433   9.573  0.7826 -1.1039  0.3941
   81SAPS  C215 7547   3.632   1.464   9.394 -0.4145  0.2436 -0.7161
   81SAPS  H15R 7548   3.557   1.522   9.339 -0.3977 -0.1757 -1.1857
   81SAPS  C216 7549   3.757   1.446   9.311 -0.0263  0.2513  0.6474
   81SAPS  H16R 7550   3.786   1.339   9.317 -0.1359  0.2589  1.3443
   81SAPS  H16S 7551   3.844   1.507   9.343  0.4149 -0.1241  0.1697
   81SAPS  C217 7552   3.746   1.476   9.158  0.2108 -0.1896  0.2166
   81SAPS  H17R 7553   3.661   1.428   9.104  1.1213 -0.4225 -1.0121
   81SAPS  H17S 7554   3.840   1.433   9.118 -0.8272 -1.5432 -0.8118
   81SAPS  C218 7555   3.738   1.631   9.135 -0.2399 -0.2793 -0.6188
   81SAPS  H18R 7556   3.826   1.677   9.184  0.3600 -1.0235 -0.9741
   81SAPS  H18S 7557   3.645   1.670   9.181  0.4766  0.9642 -0.2241
   81SAPS  C219 7558   3.730   1.676   8.991 -0.2200 -0.0817  0.4787
   81SAPS  H19R 7559   3.630   1.640   8.958 -0.8938  4.2542 -2.6673
   81SAPS  H19S 7560   3.797   1.621   8.922 -1.3820 -1.2574  0.2785
   81SAPS  C220 7561   3.738   1.825   8.975  0.1062  0.3151 -0.0263
   81SAPS  H20R 7562   3.752   1.864   8.872  0.8860  2.4201  0.8493
   81SAPS  H20S 7563   3.799   1.880   9.049 -0.6612 -0.7306  1.4000
   81SAPS  H20T 7564   3.636   1.863   8.995 -1.4438 -2.9740 -1.2005
   81SAPS   C33 7565   3.552   1.329  10.541 -0.2466  0.1043 -0.2108
   81SAPS   H3X 7566   3.564   1.421  10.601  2.2238  1.1528 -2.2325
   81SAPS   H3Y 7567   3.467   1.262  10.568 -0.4717  0.3210 -0.3780
   81SAPS   C34 7568   3.569   1.365  10.390  1.0920 -0.5507  0.7023
   81SAPS   H4X 7569   3.608   1.274  10.337 -0.3916  0.1246 -1.6251
   81SAPS   H4Y 7570   3.649   1.442  10.387  2.1545 -1.6254  0.4325
   81SAPS   C35 7571   3.441   1.425  10.323  0.1675  0.0994 -0.2083
   81SAPS   H5X 7572   3.402   1.506  10.389  0.8825 -1.0277  1.6477
   81SAPS   H5Y 7573   3.368   1.342  10.336 -0.4539  0.2235 -2.7250
   81SAPS   C36 7574   3.464   1.477  10.181 -0.5458  0.4027 -0.0477
   81SAPS   H6X 7575   3.532   1.405  10.130 -2.4598 -1.5640  0.1070
   81SAPS   H6Y 7576   3.532   1.564  10.183  2.2791 -1.7562  2.1900
   81SAPS   C37 7577   3.345   1.489  10.097  0.0686  0.5270  1.8187
   81SAPS   H7X 7578   3.275   1.552  10.156  1.8748  0.5244  4.0127
   81SAPS   H7Y 7579   3.298   1.390  10.081 -0.1399  0.3915  3.2238
   81SAPS   C38 7580   3.376   1.561   9.967 -0.4400  0.0502  0.6096
   81SAPS   H8X 7581   3.438   1.501   9.897  2.0648  3.5209 -0.3101
   81SAPS   H8Y 7582   3.451   1.639   9.992 -2.0996  1.6046  0.8321
   81SAPS   C39 7583   3.257   1.622   9.891 -0.2121 -0.6250  0.2499
   81SAPS   H9X 7584   3.217   1.708   9.950  0.7230 -0.8533  1.2213
   81SAPS   H9Y 7585   3.171   1.551   9.889 -2.0328  1.4407  1.7691
   81SAPS  C310 7586   3.295   1.666   9.743 -0.6965  0.4651 -0.2565
   81SAPS  H10X 7587   3.330   1.571   9.698  0.7026  0.3383  1.0724
   81SAPS  H10Y 7588   3.380   1.735   9.757  0.2773 -0.9961  1.2991
   81SAPS  C311 7589   3.177   1.718   9.662  0.5622 -0.0350 -0.5207
   81SAPS  H11X 7590   3.164   1.828   9.675 -2.1802 -0.3829 -0.0903
   81SAPS  H11Y 7591   3.085   1.662   9.689  1.0698 -0.6499 -0.0442
   81SAPS  C312 7592   3.189   1.698   9.514 -0.2629 -0.0054 -0.0867
   81SAPS  H12X 7593   3.114   1.763   9.465 -0.0586  1.5832  1.6495
   81SAPS  H12Y 7594   3.169   1.590   9.500 -1.1886  0.3342 -1.4519
   81SAPS  C313 7595   3.332   1.732   9.464 -0.9666  0.1894  0.2847
   81SAPS  H13X 7596   3.401   1.652   9.499 -0.6475  0.7217  0.8716
   81SAPS  H13Y 7597   3.370   1.821   9.517  0.5399  0.2923 -0.9276
   81SAPS  C314 7598   3.326   1.762   9.310 -0.7647  0.0443 -0.0697
   81SAPS  H14X 7599   3.272   1.678   9.262 -0.1798 -0.3182 -0.1089
   81SAPS  H14Y 7600   3.428   1.762   9.266 -0.8607 -0.0334 -0.2893
   81SAPS  C315 7601   3.256   1.893   9.278  0.0860 -0.0180  0.5756
   81SAPS  H15X 7602   3.269   1.963   9.363 -2.8455  0.2273  0.8591
   81SAPS  H15Y 7603   3.147   1.877   9.277 -0.2000  1.7971 -2.4676
   81SAPS  C316 7604   3.293   1.953   9.140  0.0144 -0.2059  0.0339
   81SAPS  H16X 7605   3.221   2.035   9.118 -0.5767 -0.3583  1.3536
   81SAPS  H16Y 7606   3.281   1.875   9.061  3.3971 -0.9616  0.2061
   81SAPS  C317 7607   3.431   2.010   9.112 -0.1016 -0.4458  1.0032
   81SAPS  H17X 7608   3.462   2.017   9.005 -2.1252 -3.2519  0.1968
   81SAPS  H17Y 7609   3.508   1.944   9.158  0.2979  1.4284  3.1246
   81SAPS  C318 7610   3.449   2.151   9.159  0.4215 -0.4294 -0.3430
   81SAPS  H18X 7611   3.548   2.195   9.133  0.1876  0.7999  0.7871
   81SAPS  H18Y 7612   3.436   2.141   9.269 -0.9269  1.5767 -0.2987
   81SAPS  H18Z 7613   3.372   2.221   9.121  0.8024 -1.0849 -2.3958
   82SAPS     N 7614   2.298   6.574  11.002 -0.5418 -0.9490 -0.6682
   82SAPS   HN1 7615   2.208   6.578  10.949 -1.2247  0.2127  0.5623
   82SAPS   HN2 7616   2.381   6.568  10.939 -1.4045 -2.4856 -1.6852
   82SAPS   HN3 7617   2.291   6.485  11.054  3.1763  0.6023  2.7199
   82SAPS   C12 7618   2.315   6.685  11.101  0.0339 -0.2050 -0.2182
   82SAPS  H12A 7619   2.216   6.710  11.135 -0.0096 -0.2929 -0.2796
   82SAPS   C13 7620   2.391   6.652  11.236  0.4444 -0.6224 -0.4559
   82SAPS  O13A 7621   2.414   6.531  11.262 -0.0123  0.4374 -0.6495
   82SAPS  O13B 7622   2.367   6.736  11.328  0.0292 -0.0209 -0.6945
   82SAPS   C11 7623   2.394   6.805  11.032 -0.4185  0.4013  0.3170
   82SAPS  H11A 7624   2.503   6.782  11.024 -0.4986  0.3692 -0.8497
   82SAPS  H11B 7625   2.378   6.891  11.100  2.0925  1.1545  0.0113
   82SAPS     P 7626   2.411   6.939  10.807 -0.2664  0.7568 -0.1463
   82SAPS   O13 7627   2.316   6.986  10.711 -0.1147  0.2536 -0.1296
   82SAPS   O14 7628   2.481   7.039  10.891  0.3520  0.0276  0.2199
   82SAPS   O12 7629   2.336   6.842  10.904  0.5970  0.5991 -0.2327
   82SAPS   O11 7630   2.514   6.832  10.750 -0.0998 -0.6690  0.8936
   82SAPS    C1 7631   2.646   6.871  10.716  0.1844 -0.6278 -0.0972
   82SAPS    HA 7632   2.692   6.933  10.797  0.2474 -3.0001  1.7261
   82SAPS    HB 7633   2.701   6.775  10.703 -0.6226 -1.1588  0.3691
   82SAPS    C2 7634   2.660   6.959  10.580  0.2192  0.2790  0.1596
   82SAPS    HS 7635   2.646   7.063  10.617  0.8180  0.8257 -1.0949
   82SAPS   O21 7636   2.553   6.926  10.490  0.0372 -0.9559 -0.4052
   82SAPS   C21 7637   2.495   7.026  10.421  0.7706 -0.0593  0.5693
   82SAPS   O22 7638   2.523   7.142  10.434  0.7466 -0.5467  0.3260
   82SAPS   C22 7639   2.381   6.970  10.326  0.1281  0.2737 -0.4547
   82SAPS   H2R 7640   2.395   6.860  10.319 -0.3704 -0.0386  2.6565
   82SAPS   H2S 7641   2.283   6.986  10.375  1.0908 -0.1003  1.6441
   82SAPS    C3 7642   2.796   6.925  10.509 -0.7966 -0.5760 -0.4920
   82SAPS    HX 7643   2.807   6.816  10.522  1.1641 -0.2594  0.8006
   82SAPS    HY 7644   2.872   6.975  10.574 -1.7498  1.0976 -0.6285
   82SAPS   O31 7645   2.804   6.969  10.369 -0.4492 -0.0189  0.0440
   82SAPS   C31 7646   2.907   7.048  10.341 -0.0531  0.0723  0.4284
   82SAPS   O32 7647   2.995   7.083  10.421 -0.2342 -0.5177  0.8294
   82SAPS   C32 7648   2.893   7.102  10.195 -0.3764  0.2989 -0.4204
   82SAPS   H2X 7649   2.957   7.192  10.190 -0.8244  0.5400 -2.0496
   82SAPS   H2Y 7650   2.790   7.137  10.173 -0.8625 -0.9546 -0.1816
   82SAPS   C23 7651   2.391   7.035  10.188 -0.2273 -0.2362 -0.6703
   82SAPS   H3R 7652   2.499   7.040  10.164 -0.2265  0.3445 -0.5510
   82SAPS   H3S 7653   2.364   7.142  10.195  3.0595  0.7113 -1.7040
   82SAPS   C24 7654   2.320   6.955  10.075 -0.1321  0.5542  0.2026
   82SAPS   H4R 7655   2.355   6.850  10.070  0.8187  0.9291 -1.3174
   82SAPS   H4S 7656   2.362   7.003   9.984 -3.0614  0.2554 -1.3543
   82SAPS   C25 7657   2.171   6.957  10.070  0.5107 -0.4244  0.2476
   82SAPS   H5R 7658   2.118   6.985  10.162 -0.3700 -0.9883 -0.0838
   82SAPS   C26 7659   2.099   6.934   9.960 -0.3397 -0.8690  0.2148
   82SAPS   H6R 7660   1.989   6.925   9.966 -0.3574  1.0135  3.7991
   82SAPS   C27 7661   2.152   6.910   9.817  0.0705 -0.0394  0.8120
   82SAPS   H7R 7662   2.163   6.800   9.808  0.7000 -0.0408  1.6255
   82SAPS   H7S 7663   2.255   6.948   9.805  0.6695 -1.9351 -0.1769
   82SAPS   C28 7664   2.070   6.972   9.708  0.0877  0.2583  0.2974
   82SAPS   H8R 7665   2.016   7.062   9.740  1.0297  0.5057  1.1968
   82SAPS   C29 7666   2.076   6.931   9.572  0.6235  0.2156  0.4680
   82SAPS   H9R 7667   2.009   6.966   9.493 -0.5591 -1.4757  0.6947
   82SAPS  C210 7668   2.157   6.818   9.512 -0.1820 -0.0169  0.2376
   82SAPS  H10R 7669   2.218   6.761   9.584 -2.5157 -3.5282 -0.4168
   82SAPS  H10S 7670   2.225   6.857   9.433  0.3380 -3.4127 -1.0892
   82SAPS  C211 7671   2.067   6.718   9.448 -0.4194  0.4345  0.1662
   82SAPS  H11R 7672   1.988   6.675   9.510  0.6257 -0.4898  0.8787
   82SAPS  C212 7673   2.076   6.666   9.323  0.1294 -0.4743 -0.0127
   82SAPS  H12R 7674   2.006   6.590   9.285  0.8127 -1.3978  0.5672
   82SAPS  C213 7675   2.180   6.687   9.209 -0.2770 -0.6389  0.4220
   82SAPS  H13R 7676   2.198   6.597   9.146  0.4286 -0.3003  0.1326
   82SAPS  H13S 7677   2.278   6.724   9.247  0.0297 -1.3848  0.3609
   82SAPS  C214 7678   2.128   6.789   9.120  0.5476  0.0560  0.5587
   82SAPS  H14R 7679   2.057   6.864   9.156  2.1443  1.2717  1.2274
   82SAPS  C215 7680   2.185   6.820   9.002 -0.8858 -0.1833  0.3856
   82SAPS  H15R 7681   2.143   6.904   8.945  2.5989  0.4274 -1.4342
   82SAPS  C216 7682   2.304   6.749   8.936 -0.3780 -0.2463 -0.1989
   82SAPS  H16R 7683   2.365   6.692   9.010  1.2133  0.7063 -0.7630
   82SAPS  H16S 7684   2.371   6.824   8.890  0.3833 -1.3149 -0.8729
   82SAPS  C217 7685   2.266   6.645   8.830 -0.4896 -0.3128 -0.2566
   82SAPS  H17R 7686   2.169   6.660   8.779 -2.0752  0.1295  2.7739
   82SAPS  H17S 7687   2.268   6.545   8.878  1.0301 -0.4823 -0.6459
   82SAPS  C218 7688   2.379   6.640   8.722 -0.0060  0.5618 -0.0071
   82SAPS  H18R 7689   2.474   6.619   8.777 -0.4427 -0.2798  0.4394
   82SAPS  H18S 7690   2.389   6.732   8.662  2.9794  1.4166  1.6778
   82SAPS  C219 7691   2.368   6.522   8.619  0.2652  0.4110  0.1046
   82SAPS  H19R 7692   2.359   6.424   8.670 -0.1782  1.1608  1.4989
   82SAPS  H19S 7693   2.462   6.521   8.560 -1.0062  2.2764 -2.0219
   82SAPS  C220 7694   2.259   6.533   8.516  0.3083  0.7277  0.4688
   82SAPS  H20R 7695   2.155   6.516   8.553 -0.8588  0.6782 -2.6359
   82SAPS  H20S 7696   2.275   6.450   8.443  1.4976  0.9663  0.4531
   82SAPS  H20T 7697   2.264   6.630   8.462 -0.1774  0.1051 -0.7160
   82SAPS   C33 7698   2.924   6.994  10.087 -0.3038  0.0521 -0.5114
   82SAPS   H3X 7699   2.844   6.917  10.082  1.1676 -1.4421 -1.5523
   82SAPS   H3Y 7700   3.010   6.937  10.129 -1.3926  0.1702  1.9778
   82SAPS   C34 7701   2.920   7.058   9.949  0.2473 -0.8360 -0.3362
   82SAPS   H4X 7702   2.977   7.153   9.953  3.0235 -2.3881 -2.0410
   82SAPS   H4Y 7703   2.815   7.084   9.924  0.3040  0.0582  0.3029
   82SAPS   C35 7704   2.994   6.981   9.837 -0.3261  0.6535 -0.2328
   82SAPS   H5X 7705   2.930   6.890   9.836 -1.0996  1.1995 -1.0356
   82SAPS   H5Y 7706   3.094   6.947   9.873 -1.4155 -0.4574  1.8415
   82SAPS   C36 7707   3.006   7.038   9.699  0.4094 -0.4659 -0.2810
   82SAPS   H6X 7708   3.067   7.131   9.704  0.0824 -0.1369 -2.1839
   82SAPS   H6Y 7709   2.907   7.057   9.654  0.4096  0.7906  0.2344
   82SAPS   C37 7710   3.082   6.946   9.599  0.1840 -0.0532  0.0134
   82SAPS   H7X 7711   3.028   6.850   9.589  0.7089 -0.2103 -1.4045
   82SAPS   H7Y 7712   3.185   6.933   9.637 -0.2577  1.5385  1.8954
   82SAPS   C38 7713   3.076   7.008   9.458 -0.2274 -0.2995  0.3138
   82SAPS   H8X 7714   3.036   7.111   9.465  2.0423  0.5233  1.8812
   82SAPS   H8Y 7715   3.003   6.950   9.398  0.0086 -0.4475  0.1690
   82SAPS   C39 7716   3.212   7.018   9.389 -0.2607  0.4536  0.0819
   82SAPS   H9X 7717   3.232   6.919   9.340 -0.1248  0.7237 -0.4155
   82SAPS   H9Y 7718   3.294   7.039   9.460 -0.0270 -0.1191 -0.0134
   82SAPS  C310 7719   3.221   7.134   9.292 -0.2887  0.2461  0.3271
   82SAPS  H10X 7720   3.222   7.233   9.344  0.2161  0.7232 -0.5650
   82SAPS  H10Y 7721   3.127   7.148   9.234  0.0856  3.1751  0.3207
   82SAPS  C311 7722   3.347   7.137   9.208  0.7676 -0.1287  0.5295
   82SAPS  H11X 7723   3.439   7.102   9.260  1.7157 -0.8497 -1.5880
   82SAPS  H11Y 7724   3.370   7.242   9.180  0.4616  0.1865  1.4418
   82SAPS  C312 7725   3.332   7.049   9.082 -0.2190 -0.4476  0.2501
   82SAPS  H12X 7726   3.297   6.947   9.105 -0.7863 -0.9429 -2.6380
   82SAPS  H12Y 7727   3.425   7.055   9.021  0.4046 -0.5000  1.2006
   82SAPS  C313 7728   3.234   7.113   8.981 -0.7702 -0.5571 -0.0164
   82SAPS  H13X 7729   3.265   7.218   8.967 -0.1769 -0.6239  0.7713
   82SAPS  H13Y 7730   3.126   7.106   9.007 -0.6967 -0.3898  0.3430
   82SAPS  C314 7731   3.256   7.048   8.844  0.5498  0.5985 -0.5522
   82SAPS  H14X 7732   3.265   6.938   8.854 -0.5189  0.5641  0.1028
   82SAPS  H14Y 7733   3.356   7.089   8.816  0.8922  0.3922  0.3349
   82SAPS  C315 7734   3.145   7.084   8.748 -0.2112 -0.1476  0.5880
   82SAPS  H15X 7735   3.134   7.193   8.733 -1.0779 -0.2578  0.4219
   82SAPS  H15Y 7736   3.053   7.042   8.795  0.8595 -1.5605  1.4798
   82SAPS  C316 7737   3.173   7.024   8.611 -0.3789 -0.1268 -0.6673
   82SAPS  H16X 7738   3.182   6.914   8.628  2.7102  0.2609  0.6599
   82SAPS  H16Y 7739   3.270   7.057   8.569 -0.5667  1.9615  0.4663
   82SAPS  C317 7740   3.051   7.040   8.520  0.1714  0.8904 -0.5276
   82SAPS  H17X 7741   3.034   7.147   8.496 -1.7531  0.6728 -0.2424
   82SAPS  H17Y 7742   2.963   7.004   8.578  1.7409 -3.0875 -0.4460
   82SAPS  C318 7743   3.063   6.955   8.398  0.5367  0.2114  0.5462
   82SAPS  H18X 7744   3.052   6.846   8.415 -0.5290  0.6876  3.1165
   82SAPS  H18Y 7745   3.162   6.974   8.350  1.2047 -1.2944  1.2958
   82SAPS  H18Z 7746   2.989   6.987   8.322  2.4178  1.1757 -0.9272
   83SAPS     N 7747   4.825   1.432  11.164 -0.4903 -0.7641  0.3361
   83SAPS   HN1 7748   4.791   1.403  11.258 -2.0104 -0.7714 -0.2014
   83SAPS   HN2 7749   4.915   1.382  11.152  1.1787  2.1206  0.4405
   83SAPS   HN3 7750   4.841   1.534  11.153 -2.6917 -0.6087 -1.7351
   83SAPS   C12 7751   4.734   1.384  11.062 -0.3263 -0.3360 -0.5725
   83SAPS  H12A 7752   4.773   1.426  10.970 -1.2795 -0.2275 -0.9348
   83SAPS   C13 7753   4.729   1.233  11.040 -0.4507  0.0171 -0.2819
   83SAPS  O13A 7754   4.770   1.160  11.134 -0.2535 -0.0666 -0.2690
   83SAPS  O13B 7755   4.645   1.192  10.957  0.0630 -0.2453  0.0242
   83SAPS   C11 7756   4.593   1.438  11.104 -0.2725 -0.1684 -0.0122
   83SAPS  H11A 7757   4.561   1.395  11.201 -1.9242 -0.1508 -0.5150
   83SAPS  H11B 7758   4.519   1.394  11.033  1.4628  0.3852 -2.2373
   83SAPS     P 7759   4.548   1.679  10.997  0.0023  0.1720 -0.7141
   83SAPS   O13 7760   4.404   1.684  10.968 -0.3932  0.5770 -0.4716
   83SAPS   O14 7761   4.610   1.810  11.011 -0.6102  0.5459 -0.1650
   83SAPS   O12 7762   4.589   1.581  11.117  0.2614  0.1123 -0.3673
   83SAPS   O11 7763   4.613   1.601  10.878  0.1135  0.5904 -0.3511
   83SAPS    C1 7764   4.709   1.679  10.805  0.2813  0.1792 -0.5117
   83SAPS    HA 7765   4.780   1.746  10.857  2.1703 -2.6789  0.7273
   83SAPS    HB 7766   4.781   1.615  10.749 -1.0501  0.2342 -2.3358
   83SAPS    C2 7767   4.639   1.766  10.695  0.5138  0.5629  0.2367
   83SAPS    HS 7768   4.564   1.832  10.745  0.7649  1.7767 -0.9479
   83SAPS   O21 7769   4.585   1.670  10.598 -0.6119  0.1457 -0.3399
   83SAPS   C21 7770   4.492   1.729  10.522  0.0273 -0.5507  0.8795
   83SAPS   O22 7771   4.459   1.848  10.523 -0.8183  0.0159 -0.0007
   83SAPS   C22 7772   4.421   1.632  10.429  0.4310 -0.2707  0.7914
   83SAPS   H2R 7773   4.508   1.571  10.396  0.6012 -0.1378  0.9890
   83SAPS   H2S 7774   4.354   1.566  10.487  0.4481 -0.2154  0.8744
   83SAPS    C3 7775   4.743   1.862  10.618 -0.5772 -0.4389  0.6963
   83SAPS    HX 7776   4.775   1.937  10.694  0.5316 -0.2371  0.0454
   83SAPS    HY 7777   4.696   1.926  10.540  1.2851  1.5839  1.1674
   83SAPS   O31 7778   4.853   1.793  10.557  0.0189 -0.4436 -0.9077
   83SAPS   C31 7779   4.834   1.756  10.431  0.0572  0.2328  0.5514
   83SAPS   O32 7780   4.728   1.756  10.373  0.0931  0.8274 -0.1623
   83SAPS   C32 7781   4.971   1.722  10.372  1.3758  0.1370 -0.3524
   83SAPS   H2X 7782   5.031   1.672  10.451  1.5574  0.4786 -0.2769
   83SAPS   H2Y 7783   5.021   1.819  10.353 -0.3620  0.5456 -3.0391
   83SAPS   C23 7784   4.340   1.692  10.305  0.6751  0.7658  0.1417
   83SAPS   H3R 7785   4.379   1.786  10.260  0.8328  0.5936 -0.0832
   83SAPS   H3S 7786   4.232   1.707  10.330  0.8746 -0.0931  1.5939
   83SAPS   C24 7787   4.342   1.586  10.189 -0.0659 -0.7934  0.1181
   83SAPS   H4R 7788   4.260   1.617  10.121 -0.6975  0.5438  1.4499
   83SAPS   H4S 7789   4.316   1.485  10.225 -0.8116 -0.9042 -0.7048
   83SAPS   C25 7790   4.473   1.585  10.111 -0.0516  0.7590  0.1383
   83SAPS   H5R 7791   4.563   1.601  10.172 -0.8873  2.9535  0.8394
   83SAPS   C26 7792   4.491   1.577   9.975  0.1477 -0.0858 -0.7244
   83SAPS   H6R 7793   4.593   1.566   9.936  0.1277 -0.5685 -0.6365
   83SAPS   C27 7794   4.388   1.568   9.865 -0.3272  0.1145 -0.0529
   83SAPS   H7R 7795   4.326   1.477   9.877 -0.4699  0.2093 -0.0624
   83SAPS   H7S 7796   4.445   1.552   9.771 -0.9031  0.0653 -0.3966
   83SAPS   C28 7797   4.301   1.691   9.854  0.6392  0.7367 -0.3499
   83SAPS   H8R 7798   4.269   1.748   9.943 -5.1090 -2.1784 -0.2877
   83SAPS   C29 7799   4.249   1.734   9.738 -0.3963 -0.3711  0.3545
   83SAPS   H9R 7800   4.188   1.825   9.746 -1.2498 -0.8746 -0.3323
   83SAPS  C210 7801   4.265   1.661   9.603 -0.1578 -0.1159  0.8782
   83SAPS  H10R 7802   4.266   1.551   9.615  0.3295 -0.1467  0.5926
   83SAPS  H10S 7803   4.358   1.688   9.547  0.1347  0.0357  1.4391
   83SAPS  C211 7804   4.142   1.693   9.515  0.4057 -0.1326  0.7118
   83SAPS  H11R 7805   4.158   1.747   9.421  1.6874  2.5150  2.3882
   83SAPS  C212 7806   4.016   1.662   9.535  0.4908 -0.0385  0.3280
   83SAPS  H12R 7807   3.937   1.693   9.464 -0.3462 -0.6866  0.9630
   83SAPS  C213 7808   3.969   1.597   9.666 -0.2180 -0.3838 -0.3577
   83SAPS  H13R 7809   4.040   1.545   9.734 -0.1064 -1.4920 -1.2944
   83SAPS  H13S 7810   3.906   1.512   9.632 -3.2357  1.0000  1.5624
   83SAPS  C214 7811   3.880   1.704   9.734 -0.4731  0.4466  0.0614
   83SAPS  H14R 7812   3.825   1.764   9.660 -2.2169 -1.6735 -0.4193
   83SAPS  C215 7813   3.866   1.738   9.863 -0.2719 -0.5121 -0.5541
   83SAPS  H15R 7814   3.796   1.821   9.880  0.5571 -0.0360  0.5905
   83SAPS  C216 7815   3.936   1.675   9.980  1.3740 -0.2378 -0.0253
   83SAPS  H16R 7816   4.034   1.720  10.004  1.0383  0.7750 -0.4999
   83SAPS  H16S 7817   3.945   1.565   9.974  0.4831 -0.3284  0.2727
   83SAPS  C217 7818   3.850   1.699  10.110 -0.7611  0.5992  0.7193
   83SAPS  H17R 7819   3.741   1.697  10.091 -0.3894  0.9217 -1.6050
   83SAPS  H17S 7820   3.885   1.799  10.143 -0.9273  1.5161 -1.7481
   83SAPS  C218 7821   3.893   1.603  10.222  0.4231 -0.7344 -0.2831
   83SAPS  H18R 7822   4.004   1.594  10.229  0.5708  1.6098  0.9726
   83SAPS  H18S 7823   3.836   1.509  10.206  0.6321 -0.7670 -0.8603
   83SAPS  C219 7824   3.848   1.647  10.364 -0.0683 -0.1011  0.0938
   83SAPS  H19R 7825   3.738   1.655  10.353  0.0284  0.6646 -0.3741
   83SAPS  H19S 7826   3.881   1.749  10.393  1.3671 -1.0065  1.7664
   83SAPS  C220 7827   3.889   1.559  10.488 -0.0082 -0.3123  0.1046
   83SAPS  H20R 7828   3.874   1.451  10.464 -0.9576 -0.4325  1.2302
   83SAPS  H20S 7829   3.832   1.594  10.576 -1.0185  0.2555 -0.7566
   83SAPS  H20T 7830   3.999   1.554  10.507  0.0498  0.7151  0.0636
   83SAPS   C33 7831   4.960   1.642  10.238  0.2503 -0.0533 -0.5192
   83SAPS   H3X 7832   4.913   1.545  10.260  1.4657 -0.8166 -1.2106
   83SAPS   H3Y 7833   5.060   1.607  10.205 -0.1355 -1.4133 -0.2579
   83SAPS   C34 7834   4.900   1.718  10.120  0.5446  0.3029  0.7075
   83SAPS   H4X 7835   4.950   1.814  10.098 -1.4156  1.5886  1.7699
   83SAPS   H4Y 7836   4.798   1.752  10.147 -0.2975 -0.6096 -1.2071
   83SAPS   C35 7837   4.914   1.636   9.995 -0.2104  0.0750  0.9583
   83SAPS   H5X 7838   4.880   1.533  10.021 -0.7450 -0.5773 -2.1497
   83SAPS   H5Y 7839   5.023   1.632   9.971  0.1904  0.9260  2.5831
   83SAPS   C36 7840   4.844   1.691   9.871  0.1895 -0.6040 -0.4101
   83SAPS   H6X 7841   4.877   1.790   9.831 -0.0886 -0.5417 -0.4887
   83SAPS   H6Y 7842   4.738   1.705   9.901 -0.3924  0.1854 -2.7179
   83SAPS   C37 7843   4.834   1.596   9.748  0.3062 -0.3438 -0.5513
   83SAPS   H7X 7844   4.737   1.615   9.698 -1.3562 -1.2757  2.2269
   83SAPS   H7Y 7845   4.840   1.494   9.791 -2.6653 -0.2024  0.2939
   83SAPS   C38 7846   4.961   1.615   9.655  0.3047 -0.6220 -0.3373
   83SAPS   H8X 7847   5.051   1.616   9.721  0.5186  0.6450 -0.6376
   83SAPS   H8Y 7848   4.942   1.722   9.633 -2.0914 -0.9766 -0.0867
   83SAPS   C39 7849   4.971   1.520   9.543 -0.1901  0.1579  0.3291
   83SAPS   H9X 7850   4.944   1.419   9.579 -0.6199 -1.3336 -3.9351
   83SAPS   H9Y 7851   5.079   1.520   9.515 -0.5077 -2.6028 -0.9560
   83SAPS  C310 7852   4.892   1.570   9.418 -0.0751 -0.1391  0.0203
   83SAPS  H10X 7853   4.920   1.674   9.392 -1.0514 -0.0564 -0.7039
   83SAPS  H10Y 7854   4.784   1.551   9.436 -0.1218 -1.2672 -1.3493
   83SAPS  C311 7855   4.935   1.481   9.296  0.2908  0.0117  0.4894
   83SAPS  H11X 7856   4.910   1.373   9.312  0.8139 -0.2697 -0.5963
   83SAPS  H11Y 7857   5.045   1.491   9.284  0.7775 -2.2863  2.4866
   83SAPS  C312 7858   4.870   1.517   9.163  1.1052 -0.4635  0.5775
   83SAPS  H12X 7859   4.921   1.607   9.122  0.6498  0.7187  2.5842
   83SAPS  H12Y 7860   4.763   1.531   9.185  0.5501  0.6959 -2.6311
   83SAPS  C313 7861   4.878   1.405   9.063  0.2138 -0.1919 -0.0925
   83SAPS  H13X 7862   4.981   1.367   9.047  0.7156  0.6997  0.9035
   83SAPS  H13Y 7863   4.863   1.447   8.961  0.7037  2.2545  0.7840
   83SAPS  C314 7864   4.789   1.278   9.080  0.1610  0.3488 -0.2031
   83SAPS  H14X 7865   4.790   1.224   9.177 -0.7473  0.9165  0.1251
   83SAPS  H14Y 7866   4.841   1.206   9.013  0.8248 -1.3344  2.0496
   83SAPS  C315 7867   4.657   1.279   9.015  1.0501 -0.3398 -0.0670
   83SAPS  H15X 7868   4.676   1.301   8.908 -2.6343 -0.7458 -0.8733
   83SAPS  H15Y 7869   4.603   1.366   9.057  1.2559  0.8955 -2.2882
   83SAPS  C316 7870   4.574   1.150   9.023  0.3032  0.3244 -0.4127
   83SAPS  H16X 7871   4.472   1.159   8.980 -0.5481 -2.1638  0.9866
   83SAPS  H16Y 7872   4.545   1.122   9.126  2.2689 -2.1376 -0.4806
   83SAPS  C317 7873   4.632   1.025   8.962  0.4894 -0.4007  0.0591
   83SAPS  H17X 7874   4.549   0.950   8.959  1.5720 -1.6140 -0.0115
   83SAPS  H17Y 7875   4.709   0.977   9.026  1.2132 -1.8479 -1.8572
   83SAPS  C318 7876   4.698   1.024   8.821  0.3351 -0.2810 -0.2480
   83SAPS  H18X 7877   4.793   1.081   8.811 -0.5347  1.0087 -1.2879
   83SAPS  H18Y 7878   4.628   1.067   8.747  0.0696 -0.0833  0.1197
   83SAPS  H18Z 7879   4.722   0.919   8.792  0.8185 -0.7531  1.7170
   84SAPS     N 7880   5.710   1.769  11.413 -0.2129 -0.2252 -0.5095
   84SAPS   HN1 7881   5.648   1.780  11.495  0.4146 -0.2640 -0.0284
   84SAPS   HN2 7882   5.811   1.780  11.434 -0.3707 -1.0329  0.6543
   84SAPS   HN3 7883   5.693   1.840  11.339 -0.8238 -0.2093 -0.3556
   84SAPS   C12 7884   5.698   1.634  11.356  0.1349 -0.8655 -0.1287
   84SAPS  H12A 7885   5.739   1.567  11.430 -0.5455  1.5863  2.5566
   84SAPS   C13 7886   5.553   1.581  11.328 -0.0567 -0.5197  0.4589
   84SAPS  O13A 7887   5.466   1.652  11.377 -0.2052 -0.1378 -0.3913
   84SAPS  O13B 7888   5.537   1.458  11.323  0.4679 -0.2572  0.0429
   84SAPS   C11 7889   5.790   1.621  11.225 -0.0146 -0.2706 -0.5237
   84SAPS  H11A 7890   5.771   1.700  11.149  1.6710  0.0267 -0.6553
   84SAPS  H11B 7891   5.760   1.530  11.168 -1.1060  0.1775 -0.6711
   84SAPS     P 7892   6.027   1.510  11.222 -0.0795 -0.1774  0.0538
   84SAPS   O13 7893   6.165   1.553  11.259 -0.2347  0.2874  0.4416
   84SAPS   O14 7894   5.975   1.373  11.260  0.2497  0.0153 -0.2479
   84SAPS   O12 7895   5.928   1.619  11.265  0.0449  0.0982 -0.3701
   84SAPS   O11 7896   6.028   1.530  11.065  0.4634 -0.0087 -0.2809
   84SAPS    C1 7897   6.099   1.428  10.991  0.6632  0.5543 -1.2480
   84SAPS    HA 7898   6.145   1.345  11.049 -0.0711  1.5216  0.7515
   84SAPS    HB 7899   6.018   1.376  10.935 -1.0727  0.8334  0.9213
   84SAPS    C2 7900   6.202   1.485  10.890  0.0484  0.7892 -0.2092
   84SAPS    HS 7901   6.225   1.590  10.916  1.3015  0.7756 -1.2566
   84SAPS   O21 7902   6.159   1.476  10.754  0.3632 -0.0630  0.8230
   84SAPS   C21 7903   6.192   1.584  10.678  0.3614  0.1511 -0.2340
   84SAPS   O22 7904   6.276   1.668  10.703 -0.2939 -0.0511 -0.1450
   84SAPS   C22 7905   6.091   1.588  10.560  0.0620  0.2925  1.1135
   84SAPS   H2R 7906   6.101   1.686  10.510 -3.1201  0.5156  0.8338
   84SAPS   H2S 7907   6.122   1.504  10.494  0.3620  1.6122 -0.4430
   84SAPS    C3 7908   6.333   1.395  10.901  0.0300  0.4469 -0.1366
   84SAPS    HX 7909   6.373   1.405  11.004  1.1478  0.3523 -0.5516
   84SAPS    HY 7910   6.409   1.436  10.831  0.4364 -0.1353 -0.0364
   84SAPS   O31 7911   6.294   1.260  10.870  0.2989  0.4685 -0.2334
   84SAPS   C31 7912   6.325   1.206  10.754 -0.7520  0.0422 -0.0743
   84SAPS   O32 7913   6.386   1.268  10.663  0.0350  0.4471 -0.1967
   84SAPS   C32 7914   6.268   1.063  10.734  0.4085 -0.1681  0.3810
   84SAPS   H2X 7915   6.257   1.020  10.836  3.2276 -1.3895  0.2249
   84SAPS   H2Y 7916   6.346   1.002  10.684  1.8861 -0.5654  3.0497
   84SAPS   C23 7917   5.944   1.573  10.597  0.1695 -0.4590  0.5386
   84SAPS   H3R 7918   5.908   1.650  10.669 -3.3545  1.7559 -3.3653
   84SAPS   H3S 7919   5.931   1.469  10.634 -0.4836 -0.3892  0.5186
   84SAPS   C24 7920   5.845   1.591  10.479  0.2300  0.0836 -0.0732
   84SAPS   H4R 7921   5.895   1.675  10.426  0.6059  0.0925  0.2959
   84SAPS   H4S 7922   5.752   1.629  10.526 -0.5755  0.3949 -1.8895
   84SAPS   C25 7923   5.831   1.470  10.390 -0.0569 -0.5276  0.2875
   84SAPS   H5R 7924   5.761   1.390  10.418  0.1287  0.2330  3.0434
   84SAPS   C26 7925   5.886   1.453  10.267 -0.2081  0.2951 -0.5160
   84SAPS   H6R 7926   5.872   1.356  10.218  0.5445 -0.4961  0.7983
   84SAPS   C27 7927   5.977   1.548  10.194  0.1362 -0.5548  0.0383
   84SAPS   H7R 7928   6.052   1.603  10.256  0.7577 -2.5423  1.0952
   84SAPS   H7S 7929   5.918   1.626  10.141 -0.1799 -1.1027 -0.4163
   84SAPS   C28 7930   6.058   1.475  10.090  0.0778 -0.4539 -0.1418
   84SAPS   H8R 7931   6.153   1.442  10.135 -0.6725  0.1647  1.9422
   84SAPS   C29 7932   6.029   1.470   9.959  0.1147 -0.0683 -0.6761
   84SAPS   H9R 7933   6.095   1.411   9.894  0.0156  1.0410 -1.8119
   84SAPS  C210 7934   5.918   1.536   9.891 -0.0069 -1.1552  0.5240
   84SAPS  H10R 7935   5.954   1.582   9.796 -1.7426 -0.8468  0.0107
   84SAPS  H10S 7936   5.871   1.625   9.937 -0.8099 -1.7103  0.7768
   84SAPS  C211 7937   5.817   1.429   9.857 -0.4973 -0.0526  0.5389
   84SAPS  H11R 7938   5.781   1.363   9.937  2.2454 -0.5321  1.4053
   84SAPS  C212 7939   5.759   1.404   9.737  0.1354  0.3845 -0.0609
   84SAPS  H12R 7940   5.683   1.324   9.733 -0.0944  0.4968  1.8261
   84SAPS  C213 7941   5.790   1.466   9.607  0.2376 -0.2278 -0.1951
   84SAPS  H13R 7942   5.790   1.576   9.620  3.5084 -0.0142 -1.5370
   84SAPS  H13S 7943   5.705   1.448   9.538 -0.6245  0.6029  0.6351
   84SAPS  C214 7944   5.930   1.433   9.552 -0.8276 -0.0405  0.6308
   84SAPS  H14R 7945   6.021   1.466   9.604 -1.6698  1.9804  0.8460
   84SAPS  C215 7946   5.951   1.390   9.422 -0.2612  0.2462  0.1939
   84SAPS  H15R 7947   6.059   1.379   9.400 -0.0595  1.2788  0.6376
   84SAPS  C216 7948   5.842   1.384   9.324 -0.7391 -0.2215  0.1041
   84SAPS  H16R 7949   5.778   1.475   9.316  2.2254  2.0397  1.4475
   84SAPS  H16S 7950   5.774   1.298   9.340 -2.5525  1.2100  0.2410
   84SAPS  C217 7951   5.903   1.361   9.177 -0.4875 -0.2541 -0.1197
   84SAPS  H17R 7952   5.962   1.267   9.171  2.1714  1.3185  0.8134
   84SAPS  H17S 7953   5.960   1.454   9.153 -3.4730  0.8858 -3.2066
   84SAPS  C218 7954   5.790   1.344   9.066 -0.4090 -0.1604 -0.2278
   84SAPS  H18R 7955   5.731   1.436   9.049 -1.7448 -0.5858  1.8619
   84SAPS  H18S 7956   5.726   1.254   9.079 -2.8006  1.3493 -1.3174
   84SAPS  C219 7957   5.866   1.310   8.938  0.1724 -0.3457  0.0830
   84SAPS  H19R 7958   5.888   1.201   8.944  0.5581 -0.2644  0.1448
   84SAPS  H19S 7959   5.954   1.378   8.934  0.6273 -0.6841  3.1053
   84SAPS  C220 7960   5.784   1.343   8.812 -0.8129  1.1900  0.0985
   84SAPS  H20R 7961   5.840   1.323   8.717  0.5817 -2.9677  1.6547
   84SAPS  H20S 7962   5.765   1.452   8.823 -1.6189  1.1822 -1.0426
   84SAPS  H20T 7963   5.690   1.284   8.807  0.9313 -1.4709 -3.4103
   84SAPS   C33 7964   6.132   1.060  10.655  0.8091  0.2261 -0.0875
   84SAPS   H3X 7965   6.056   1.126  10.701  2.0237  1.8780 -0.3625
   84SAPS   H3Y 7966   6.106   0.954  10.670  0.6483  0.6068  2.5714
   84SAPS   C34 7967   6.135   1.085  10.501 -0.0597  0.6137 -0.0876
   84SAPS   H4X 7968   6.208   1.017  10.452 -2.1255 -0.1311 -2.2032
   84SAPS   H4Y 7969   6.163   1.193  10.496 -0.8094  0.7367 -1.7453
   84SAPS   C35 7970   5.993   1.062  10.437 -0.2421  0.3299  0.1240
   84SAPS   H5X 7971   5.925   1.113  10.508  0.1731  0.6125  0.3198
   84SAPS   H5Y 7972   5.965   0.955  10.445  1.0034  0.0185  0.4018
   84SAPS   C36 7973   5.988   1.104  10.290  0.4021 -0.0105  0.1642
   84SAPS   H6X 7974   6.065   1.046  10.236 -0.8739  1.1661 -3.0696
   84SAPS   H6Y 7975   6.014   1.212  10.285 -2.2293  0.6597  0.0268
   84SAPS   C37 7976   5.843   1.074  10.234 -0.3764 -0.1656  1.0722
   84SAPS   H7X 7977   5.762   1.124  10.293  0.2544 -0.1426  1.9259
   84SAPS   H7Y 7978   5.834   0.966  10.259  0.1414  0.1796  2.8260
   84SAPS   C38 7979   5.820   1.087  10.082 -0.3833 -0.3674 -0.3147
   84SAPS   H8X 7980   5.808   1.193  10.054  0.7379 -0.4364 -1.1190
   84SAPS   H8Y 7981   5.736   1.019  10.058 -0.1929 -0.8889  0.4737
   84SAPS   C39 7982   5.938   1.039   9.994  0.2733  0.0084  0.1504
   84SAPS   H9X 7983   5.953   0.933  10.022 -1.3790  0.4996  3.1811
   84SAPS   H9Y 7984   6.019   1.110  10.020 -0.9318  1.8158 -0.8513
   84SAPS  C310 7985   5.898   1.064   9.848  0.0487  0.2457  0.3553
   84SAPS  H10X 7986   5.981   1.120   9.800  1.5521 -2.6771 -0.6329
   84SAPS  H10Y 7987   5.804   1.121   9.834  1.6799  3.3604  1.6767
   84SAPS  C311 7988   5.908   0.924   9.780  0.1232 -0.0439 -0.6060
   84SAPS  H11X 7989   5.815   0.873   9.813 -1.2452  2.4486 -0.4931
   84SAPS  H11Y 7990   5.995   0.873   9.827 -0.7371 -1.4305 -0.5054
   84SAPS  C312 7991   5.930   0.919   9.628  0.3200 -0.8637  0.0514
   84SAPS  H12X 7992   5.948   0.813   9.600 -1.1861 -1.0506 -0.2298
   84SAPS  H12Y 7993   6.028   0.965   9.604  0.1228 -0.8312 -0.6790
   84SAPS  C313 7994   5.822   0.978   9.542 -0.1410 -0.3801  0.2495
   84SAPS  H13X 7995   5.795   1.082   9.571  0.5294 -0.6926  2.0333
   84SAPS  H13Y 7996   5.730   0.915   9.542  0.7705 -1.7699 -1.4384
   84SAPS  C314 7997   5.891   0.981   9.401  0.6301  0.7902  0.0943
   84SAPS  H14X 7998   5.945   0.884   9.400  0.5535  0.7489 -2.4281
   84SAPS  H14Y 7999   5.951   1.072   9.380 -0.1900  1.3113 -0.0174
   84SAPS  C315 8000   5.786   0.975   9.281  0.7263 -0.2396  0.3086
   84SAPS  H15X 8001   5.700   1.045   9.277  0.8515 -0.0745  0.4900
   84SAPS  H15Y 8002   5.732   0.880   9.299 -0.9603  0.4937 -0.8446
   84SAPS  C316 8003   5.850   0.957   9.145 -0.1699 -0.3889 -0.2951
   84SAPS  H16X 8004   5.929   0.878   9.145  0.3034  0.0706  1.1779
   84SAPS  H16Y 8005   5.893   1.058   9.129 -1.0314  0.4199  2.2984
   84SAPS  C317 8006   5.741   0.932   9.040  0.1746 -0.4053  0.3371
   84SAPS  H17X 8007   5.663   1.011   9.044  1.4846  0.9016  0.4681
   84SAPS  H17Y 8008   5.684   0.842   9.068 -0.3452  0.6082  2.6922
   84SAPS  C318 8009   5.788   0.909   8.897 -0.5601  0.6249 -0.0888
   84SAPS  H18X 8010   5.695   0.911   8.837 -1.1178  1.0433  0.7832
   84SAPS  H18Y 8011   5.846   0.815   8.884 -0.4015  1.0027 -2.4617
   84SAPS  H18Z 8012   5.840   1.000   8.860 -1.8316  1.2166 -0.4415
   85SAPS     N 8013   3.315   2.972  11.038  0.6153  0.5678 -1.2137
   85SAPS   HN1 8014   3.283   2.951  10.941 -1.8970  0.5174 -0.4051
   85SAPS   HN2 8015   3.239   2.934  11.097 -1.6407  3.1125 -2.3825
   85SAPS   HN3 8016   3.317   3.075  11.058  1.3032  0.1884  0.7810
   85SAPS   C12 8017   3.442   2.901  11.077  0.2638  0.6353  0.1761
   85SAPS  H12A 8018   3.465   2.911  11.182 -2.0166 -3.4991  1.1785
   85SAPS   C13 8019   3.443   2.747  11.063 -0.4589  0.4417 -0.0056
   85SAPS  O13A 8020   3.336   2.681  11.048 -0.7305 -0.0260  0.0784
   85SAPS  O13B 8021   3.555   2.690  11.067 -0.6302  0.2371 -0.0630
   85SAPS   C11 8022   3.552   2.972  10.998  0.0672 -0.1042 -0.1717
   85SAPS  H11A 8023   3.540   2.947  10.891 -1.1979  0.3343 -0.1344
   85SAPS  H11B 8024   3.651   2.935  11.031  1.2787  2.8549 -0.2926
   85SAPS     P 8025   3.639   3.221  10.964  0.5285  0.4739  0.0092
   85SAPS   O13 8026   3.553   3.339  10.974 -0.2369  0.1291  0.7391
   85SAPS   O14 8027   3.770   3.218  11.027 -0.1253 -0.0518 -0.0205
   85SAPS   O12 8028   3.552   3.114  11.027 -0.4632 -0.5235 -0.2728
   85SAPS   O11 8029   3.641   3.163  10.814  0.1410 -0.4900  0.4235
   85SAPS    C1 8030   3.535   3.195  10.730 -0.6133  0.6310  0.2116
   85SAPS    HA 8031   3.441   3.150  10.768  0.3011 -1.0141  0.5601
   85SAPS    HB 8032   3.524   3.305  10.721 -2.1398  0.3574 -1.4357
   85SAPS    C2 8033   3.548   3.131  10.588  0.1708  0.1239 -0.4131
   85SAPS    HS 8034   3.644   3.152  10.536  0.3677 -0.7781 -0.4222
   85SAPS   O21 8035   3.438   3.175  10.505 -0.0797  0.4382 -0.1619
   85SAPS   C21 8036   3.467   3.302  10.464 -1.0432  0.7353  0.3588
   85SAPS   O22 8037   3.573   3.357  10.493 -0.1081  0.3589 -0.2997
   85SAPS   C22 8038   3.359   3.350  10.370 -0.3483 -0.7060 -0.7026
   85SAPS   H2R 8039   3.326   3.266  10.305 -3.6536 -0.0719  0.0588
   85SAPS   H2S 8040   3.272   3.359  10.439 -0.0947 -2.1358 -0.1762
   85SAPS    C3 8041   3.544   2.975  10.600 -0.1528  0.1813 -0.2514
   85SAPS    HX 8042   3.453   2.958  10.662  0.5565 -0.4181  0.6421
   85SAPS    HY 8043   3.639   2.957  10.655 -1.6272 -2.1413  1.6619
   85SAPS   O31 8044   3.531   2.906  10.475  0.0912  0.6986 -0.0240
   85SAPS   C31 8045   3.627   2.818  10.455 -0.3343 -0.1263  0.5807
   85SAPS   O32 8046   3.725   2.798  10.525  0.0137 -0.2389  0.0843
   85SAPS   C32 8047   3.591   2.745  10.321 -0.2387  0.6139 -0.0220
   85SAPS   H2X 8048   3.539   2.815  10.253 -1.0833 -0.3173 -0.3434
   85SAPS   H2Y 8049   3.524   2.661  10.349 -2.6073  2.2074 -0.7706
   85SAPS   C23 8050   3.394   3.480  10.296  1.0750 -0.3412 -0.2501
   85SAPS   H3R 8051   3.421   3.559  10.369  0.2366 -0.3694  0.0947
   85SAPS   H3S 8052   3.308   3.523  10.240  0.0569 -0.5723  1.0917
   85SAPS   C24 8053   3.520   3.466  10.208  0.8614 -0.0247  0.1372
   85SAPS   H4R 8054   3.613   3.437  10.262  1.0232  1.8289  0.8671
   85SAPS   H4S 8055   3.544   3.560  10.153 -0.4385 -1.2179 -2.6102
   85SAPS   C25 8056   3.484   3.358  10.099  0.2369  0.2184 -0.5918
   85SAPS   H5R 8057   3.479   3.253  10.131 -1.4383  0.8156  1.1823
   85SAPS   C26 8058   3.462   3.379   9.960 -1.0320 -0.0630 -0.4595
   85SAPS   H6R 8059   3.443   3.285   9.905  0.0988 -2.3633  2.9213
   85SAPS   C27 8060   3.470   3.514   9.890 -0.3796 -0.5209  0.0586
   85SAPS   H7R 8061   3.434   3.603   9.946  0.5834  1.5374 -2.4921
   85SAPS   H7S 8062   3.397   3.506   9.807  0.0338  0.2908 -0.3867
   85SAPS   C28 8063   3.604   3.543   9.827 -0.0196 -0.5248 -0.3714
   85SAPS   H8R 8064   3.682   3.582   9.893  0.1634 -0.2817 -0.7321
   85SAPS   C29 8065   3.635   3.508   9.695  0.4197 -0.5008  0.5815
   85SAPS   H9R 8066   3.740   3.524   9.668 -0.2232  0.9937 -1.1180
   85SAPS  C210 8067   3.556   3.435   9.589 -0.1717  0.7695 -0.4617
   85SAPS  H10R 8068   3.467   3.381   9.627 -0.5148  3.2957  2.5184
   85SAPS  H10S 8069   3.614   3.350   9.547 -1.5803 -0.9467  1.0316
   85SAPS  C211 8070   3.528   3.531   9.481 -0.7362  0.1368  0.1624
   85SAPS  H11R 8071   3.623   3.563   9.437 -2.0659  0.5969 -2.4926
   85SAPS  C212 8072   3.408   3.572   9.432  0.0150  0.2648  0.2893
   85SAPS  H12R 8073   3.395   3.649   9.354 -1.6023 -0.8456 -0.5656
   85SAPS  C213 8074   3.272   3.520   9.484 -0.2155 -0.3430  0.3806
   85SAPS  H13R 8075   3.280   3.488   9.590  0.4438  0.2871  0.5251
   85SAPS  H13S 8076   3.257   3.424   9.431  0.9014  0.4247 -1.3691
   85SAPS  C214 8077   3.159   3.618   9.465 -0.8441 -0.5224  0.6775
   85SAPS  H14R 8078   3.170   3.678   9.374 -1.3159 -1.5348 -0.0672
   85SAPS  C215 8079   3.050   3.638   9.544  0.0275  0.2672 -0.4696
   85SAPS  H15R 8080   2.987   3.725   9.518 -0.3549  0.3498  0.7257
   85SAPS  C216 8081   3.007   3.564   9.663  0.6075 -0.0634  0.9808
   85SAPS  H16R 8082   3.051   3.462   9.667  0.9065  0.0156 -0.1849
   85SAPS  H16S 8083   2.899   3.541   9.646  1.2561 -1.2574 -1.8545
   85SAPS  C217 8084   3.033   3.630   9.803  0.1117 -0.1357  0.4655
   85SAPS  H17R 8085   3.143   3.632   9.820  0.1537 -0.1932  0.2043
   85SAPS  H17S 8086   2.978   3.572   9.880 -1.6224 -1.3467 -1.6294
   85SAPS  C218 8087   2.975   3.775   9.810  0.4359 -0.2466  0.0108
   85SAPS  H18R 8088   2.865   3.761   9.808 -0.0797  3.3029  0.5407
   85SAPS  H18S 8089   3.011   3.843   9.730 -0.7612  0.4762  0.0764
   85SAPS  C219 8090   2.996   3.842   9.943 -0.1476 -0.4211 -0.0991
   85SAPS  H19R 8091   3.095   3.883   9.973 -0.3366 -1.4053  1.9587
   85SAPS  H19S 8092   2.993   3.757  10.015  1.9474  1.1184  1.9059
   85SAPS  C220 8093   2.889   3.942   9.985 -0.4327 -0.8967  0.6031
   85SAPS  H20R 8094   2.913   4.021   9.911 -0.7072 -1.8428 -0.5300
   85SAPS  H20S 8095   2.913   3.969  10.090  1.5801 -2.9734  0.7264
   85SAPS  H20T 8096   2.786   3.903   9.966 -0.0678 -1.7962  0.4484
   85SAPS   C33 8097   3.719   2.695  10.252  0.2873 -0.2063 -0.6750
   85SAPS   H3X 8098   3.775   2.622  10.314 -0.7162  0.1673  0.7026
   85SAPS   H3Y 8099   3.773   2.791  10.239 -0.2863  0.4501  1.5770
   85SAPS   C34 8100   3.683   2.634  10.125  0.2499 -0.2136  0.0244
   85SAPS   H4X 8101   3.610   2.700  10.072  0.6537 -0.1790 -0.4857
   85SAPS   H4Y 8102   3.644   2.532  10.145 -0.3131  0.3919  2.1222
   85SAPS   C35 8103   3.796   2.612  10.023  0.2390 -0.3645 -0.0904
   85SAPS   H5X 8104   3.867   2.560  10.091  1.2260  0.4267 -0.5076
   85SAPS   H5Y 8105   3.840   2.712  10.004  0.0386 -0.4348 -0.9793
   85SAPS   C36 8106   3.759   2.537   9.897 -0.5213  0.0856 -1.2526
   85SAPS   H6X 8107   3.697   2.450   9.927 -0.7544  0.6993  0.1176
   85SAPS   H6Y 8108   3.852   2.506   9.844  0.0784 -0.4153  0.0723
   85SAPS   C37 8109   3.665   2.615   9.800 -0.5604 -0.0161 -0.1728
   85SAPS   H7X 8110   3.713   2.708   9.763  0.9528 -0.4241  0.7372
   85SAPS   H7Y 8111   3.565   2.625   9.849 -0.4618 -2.8196  0.6936
   85SAPS   C38 8112   3.623   2.530   9.683  0.3761 -0.3508  0.1941
   85SAPS   H8X 8113   3.523   2.573   9.662  0.0579 -0.1233  2.1034
   85SAPS   H8Y 8114   3.605   2.426   9.717  0.0735 -0.1124  0.7544
   85SAPS   C39 8115   3.723   2.535   9.572  0.1518  0.3313  0.4436
   85SAPS   H9X 8116   3.814   2.480   9.606 -0.0720 -1.0913 -1.2213
   85SAPS   H9Y 8117   3.763   2.636   9.546  1.0318 -0.4462 -1.3313
   85SAPS  C310 8118   3.675   2.482   9.438  0.6845  0.5159  0.1423
   85SAPS  H10X 8119   3.580   2.541   9.438  0.8523  0.7895  0.4573
   85SAPS  H10Y 8120   3.653   2.374   9.448  1.4908  0.3361 -0.0009
   85SAPS  C311 8121   3.762   2.503   9.312  0.0133  0.5589 -0.3113
   85SAPS  H11X 8122   3.863   2.457   9.317  0.2464  1.1556  0.4026
   85SAPS  H11Y 8123   3.778   2.613   9.309 -1.2668  0.7718  0.6711
   85SAPS  C312 8124   3.705   2.454   9.177  0.0692  0.3459  0.4901
   85SAPS  H12X 8125   3.724   2.345   9.165  0.3419  0.3685  0.7046
   85SAPS  H12Y 8126   3.777   2.501   9.106  0.9320  1.9997  2.4178
   85SAPS  C313 8127   3.565   2.499   9.139  0.5095 -0.0743 -0.7444
   85SAPS  H13X 8128   3.570   2.609   9.149  2.3791 -0.0554 -1.6456
   85SAPS  H13Y 8129   3.484   2.458   9.203  1.2295  1.2825  1.0758
   85SAPS  C314 8130   3.533   2.466   8.995 -0.0845 -0.3411  0.3875
   85SAPS  H14X 8131   3.533   2.356   8.975 -0.1518 -0.3475  0.4205
   85SAPS  H14Y 8132   3.614   2.510   8.935 -0.2013  0.4359  0.7987
   85SAPS  C315 8133   3.398   2.523   8.953  0.7483  0.3665  0.0727
   85SAPS  H15X 8134   3.389   2.632   8.973 -2.4343  0.0304  0.7324
   85SAPS  H15Y 8135   3.327   2.470   9.020 -2.5164 -1.9584 -4.9914
   85SAPS  C316 8136   3.373   2.510   8.807 -0.1839  0.0084  0.1672
   85SAPS  H16X 8137   3.273   2.553   8.786  0.6161  0.5947 -2.6033
   85SAPS  H16Y 8138   3.368   2.403   8.777  2.0889  0.3516 -1.5202
   85SAPS  C317 8139   3.485   2.580   8.723 -0.4623  0.1270  0.5965
   85SAPS  H17X 8140   3.576   2.515   8.724 -0.7191 -0.2171  1.6883
   85SAPS  H17Y 8141   3.511   2.675   8.773  1.6191 -1.0068  1.7648
   85SAPS  C318 8142   3.447   2.591   8.578 -0.4793 -0.4001  0.4915
   85SAPS  H18X 8143   3.523   2.626   8.505 -2.3621  0.8087 -0.9187
   85SAPS  H18Y 8144   3.360   2.659   8.573 -0.8197 -0.8075  0.7948
   85SAPS  H18Z 8145   3.414   2.491   8.543 -1.0175 -0.2160  0.4667
   86SAPS     N 8146   5.275   3.491  11.148  0.7191 -0.3624  0.1204
   86SAPS   HN1 8147   5.210   3.572  11.139  0.3113 -0.9864 -3.7758
   86SAPS   HN2 8148   5.275   3.465  11.248 -2.2690  0.4029  0.3552
   86SAPS   HN3 8149   5.365   3.532  11.113 -0.2318 -0.4738 -2.6294
   86SAPS   C12 8150   5.216   3.387  11.057  0.4543  0.0410  0.2299
   86SAPS  H12A 8151   5.244   3.292  11.100  2.5950  0.2444 -0.6734
   86SAPS   C13 8152   5.059   3.403  11.055 -0.4033 -0.1574  0.2350
   86SAPS  O13A 8153   5.006   3.483  11.131 -0.0716  0.0952  0.0177
   86SAPS  O13B 8154   4.995   3.314  10.994  0.2287  0.2242 -0.3276
   86SAPS   C11 8155   5.254   3.391  10.905 -0.3181  0.2993  0.2514
   86SAPS  H11A 8156   5.181   3.454  10.850 -1.1730 -0.3980  0.5661
   86SAPS  H11B 8157   5.225   3.295  10.856 -2.7279 -0.2096  2.5693
   86SAPS     P 8158   5.494   3.329  10.838 -0.0487 -0.4662  0.0432
   86SAPS   O13 8159   5.625   3.387  10.852 -0.2758 -0.2139  0.6692
   86SAPS   O14 8160   5.477   3.203  10.913  0.0609  0.1001 -0.2981
   86SAPS   O12 8161   5.391   3.436  10.895 -0.3899  0.3367 -0.1469
   86SAPS   O11 8162   5.459   3.302  10.688  0.2614  0.5378  0.2037
   86SAPS    C1 8163   5.415   3.409  10.605  0.6148 -0.6447 -0.5591
   86SAPS    HA 8164   5.329   3.464  10.649 -0.1849 -0.9220 -1.7761
   86SAPS    HB 8165   5.491   3.490  10.607 -0.0094 -0.0588  2.2920
   86SAPS    C2 8166   5.380   3.369  10.463  0.3822 -0.2452  0.8518
   86SAPS    HS 8167   5.337   3.460  10.417 -0.6761 -1.5392 -0.7656
   86SAPS   O21 8168   5.289   3.258  10.457  0.7638  0.3056 -0.5816
   86SAPS   C21 8169   5.170   3.266  10.511  0.2572 -0.3529 -0.1236
   86SAPS   O22 8170   5.129   3.357  10.582  0.0292  0.5851  0.1469
   86SAPS   C22 8171   5.089   3.140  10.477  0.0964  0.1786  0.4423
   86SAPS   H2R 8172   5.143   3.048  10.510 -0.7369 -0.1682  0.8716
   86SAPS   H2S 8173   4.992   3.144  10.531 -0.6995 -2.6037 -0.6939
   86SAPS    C3 8174   5.515   3.339  10.381  0.1414 -0.1621 -0.9230
   86SAPS    HX 8175   5.553   3.267  10.457 -0.6198  0.2384 -0.1707
   86SAPS    HY 8176   5.573   3.433  10.374 -1.7256  0.9704 -1.4274
   86SAPS   O31 8177   5.496   3.264  10.260  0.3601  0.9964 -0.1531
   86SAPS   C31 8178   5.466   3.331  10.150 -0.6085  0.2690 -0.0859
   86SAPS   O32 8179   5.447   3.448  10.131 -0.7785 -0.4677 -0.2809
   86SAPS   C32 8180   5.447   3.231  10.042  0.4988  0.6257 -0.0762
   86SAPS   H2X 8181   5.370   3.159  10.076  2.8397 -1.4677  1.0435
   86SAPS   H2Y 8182   5.545   3.178  10.050  1.2117  1.7275 -1.2365
   86SAPS   C23 8183   5.082   3.119  10.327  0.3436 -0.5636  0.7310
   86SAPS   H3R 8184   5.013   3.033  10.315 -0.0688 -0.0632 -0.5573
   86SAPS   H3S 8185   5.180   3.086  10.287 -0.0305 -0.5319 -0.2332
   86SAPS   C24 8186   5.016   3.235  10.242  0.3062 -0.6129 -0.0378
   86SAPS   H4R 8187   4.982   3.193  10.145 -0.6793  1.4760 -0.6273
   86SAPS   H4S 8188   5.101   3.301  10.215  0.8256 -2.2628 -2.6475
   86SAPS   C25 8189   4.898   3.297  10.307 -0.1598 -0.2069 -0.4744
   86SAPS   H5R 8190   4.851   3.232  10.382 -0.9165 -0.1387 -0.8822
   86SAPS   C26 8191   4.853   3.420  10.269 -0.0879 -0.0476  0.7644
   86SAPS   H6R 8192   4.768   3.460  10.327 -0.7422 -1.5644  0.8590
   86SAPS   C27 8193   4.910   3.515  10.168  0.4183  0.0001  0.3185
   86SAPS   H7R 8194   5.019   3.496  10.170  0.5253  0.7233  1.4153
   86SAPS   H7S 8195   4.897   3.619  10.206 -0.1750  0.7355 -1.8105
   86SAPS   C28 8196   4.846   3.516  10.029  0.4544  0.8618 -0.5483
   86SAPS   H8R 8197   4.736   3.512  10.029  0.5068 -1.7893  0.4059
   86SAPS   C29 8198   4.905   3.491   9.913 -0.7102 -0.7058 -0.2811
   86SAPS   H9R 8199   4.853   3.489   9.816 -1.0224 -1.0239 -0.1089
   86SAPS  C210 8200   5.051   3.468   9.899  0.3742  0.2756  0.1288
   86SAPS  H10R 8201   5.081   3.366   9.930  2.3035  0.5488 -0.7565
   86SAPS  H10S 8202   5.107   3.533   9.969 -0.7553  2.3022 -0.8041
   86SAPS  C211 8203   5.111   3.501   9.767  0.2752 -0.5383  0.5386
   86SAPS  H11R 8204   5.161   3.598   9.756  0.1096 -0.5156 -0.0459
   86SAPS  C212 8205   5.116   3.423   9.659  1.1668  0.5413 -0.3181
   86SAPS  H12R 8206   5.167   3.457   9.568 -1.6081  0.0844 -2.0778
   86SAPS  C213 8207   5.056   3.281   9.653  0.1270  0.2631 -0.4199
   86SAPS  H13R 8208   5.012   3.259   9.752 -1.0465 -0.4935 -1.0975
   86SAPS  H13S 8209   5.135   3.205   9.636 -0.0761  0.4110 -2.2008
   86SAPS  C214 8210   4.950   3.271   9.547 -0.1859 -0.6804 -0.2278
   86SAPS  H14R 8211   4.849   3.299   9.579  0.5011  2.7910 -0.8755
   86SAPS  C215 8212   4.968   3.230   9.418 -0.5581  0.5518  0.1909
   86SAPS  H15R 8213   4.887   3.243   9.344 -0.9163 -0.3867  0.4121
   86SAPS  C216 8214   5.103   3.197   9.360 -1.0928 -0.5429  0.1543
   86SAPS  H16R 8215   5.185   3.244   9.418  1.4353 -1.7535 -2.3306
   86SAPS  H16S 8216   5.117   3.232   9.256  0.2431 -0.8647  0.2167
   86SAPS  C217 8217   5.135   3.042   9.352 -0.3263 -0.6401 -0.4976
   86SAPS  H17R 8218   5.106   2.995   9.448 -1.8090  1.2614  0.0187
   86SAPS  H17S 8219   5.245   3.037   9.335 -0.2388  1.1788 -0.6034
   86SAPS  C218 8220   5.082   2.965   9.241  0.1652  0.3929  0.1840
   86SAPS  H18R 8221   4.971   2.965   9.252  0.0168  3.7695 -0.9087
   86SAPS  H18S 8222   5.114   2.859   9.251 -1.1833 -0.1116 -0.7058
   86SAPS  C219 8223   5.142   3.012   9.109  0.3179  0.9844  1.1031
   86SAPS  H19R 8224   5.251   3.030   9.114  0.5059  1.1804 -2.4374
   86SAPS  H19S 8225   5.096   3.106   9.070 -3.0481 -0.9231  0.2701
   86SAPS  C220 8226   5.118   2.908   8.996 -0.2115 -0.5044  0.2964
   86SAPS  H20R 8227   5.173   2.814   9.017 -0.6206 -0.0069  3.9298
   86SAPS  H20S 8228   5.145   2.962   8.903 -1.6738 -1.1389 -0.5257
   86SAPS  H20T 8229   5.008   2.887   8.998 -0.5329  1.1406  0.7683
   86SAPS   C33 8230   5.436   3.267   9.895 -0.4619  1.1529 -0.1492
   86SAPS   H3X 8231   5.532   3.310   9.861  0.8835 -1.2687  0.4272
   86SAPS   H3Y 8232   5.359   3.345   9.880 -0.3418  1.4159  0.5879
   86SAPS   C34 8233   5.408   3.150   9.807  0.3902  0.4202  0.4860
   86SAPS   H4X 8234   5.400   3.181   9.700  0.7188 -2.1409 -0.3266
   86SAPS   H4Y 8235   5.308   3.104   9.827  1.6871 -1.6566  2.3067
   86SAPS   C35 8236   5.515   3.043   9.812  0.1526 -0.6055 -0.1148
   86SAPS   H5X 8237   5.509   3.010   9.918  0.3236  1.2922  0.4981
   86SAPS   H5Y 8238   5.609   3.101   9.805 -0.1936  0.0275  0.3888
   86SAPS   C36 8239   5.509   2.938   9.709  0.5235  0.1418 -0.1125
   86SAPS   H6X 8240   5.419   2.874   9.721  0.3425 -0.0308 -2.3580
   86SAPS   H6Y 8241   5.599   2.874   9.721  0.7343  0.3330 -0.6907
   86SAPS   C37 8242   5.507   2.979   9.559 -0.0486  0.2257  0.4261
   86SAPS   H7X 8243   5.605   3.013   9.520 -0.0330  1.4072  1.4493
   86SAPS   H7Y 8244   5.440   3.063   9.530  1.2066  1.0702 -0.0823
   86SAPS   C38 8245   5.468   2.862   9.469 -0.0492 -0.3360  0.2952
   86SAPS   H8X 8246   5.357   2.862   9.469 -0.0565  0.4622  1.6703
   86SAPS   H8Y 8247   5.510   2.770   9.517  1.4310  0.2843  0.2286
   86SAPS   C39 8248   5.509   2.869   9.317  0.1195  0.3171  1.2693
   86SAPS   H9X 8249   5.607   2.919   9.299 -0.0444  0.1325 -0.1754
   86SAPS   H9Y 8250   5.440   2.944   9.272  0.3181 -0.1838  0.1337
   86SAPS  C310 8251   5.482   2.739   9.241  0.4058 -0.3327 -0.4104
   86SAPS  H10X 8252   5.382   2.699   9.270  0.3885  0.3659  0.5234
   86SAPS  H10Y 8253   5.561   2.666   9.269  0.3104  0.1268  1.1338
   86SAPS  C311 8254   5.488   2.753   9.090  0.8543  0.0492 -0.3997
   86SAPS  H11X 8255   5.579   2.815   9.073  0.3826  1.1176  0.8645
   86SAPS  H11Y 8256   5.401   2.808   9.049 -1.0518 -1.9560  0.8475
   86SAPS  C312 8257   5.505   2.624   9.021 -0.4751  0.0425  0.1164
   86SAPS  H12X 8258   5.434   2.553   9.067  0.0198 -0.4495  0.1268
   86SAPS  H12Y 8259   5.602   2.586   9.059  0.1883 -0.7336 -2.2692
   86SAPS  C313 8260   5.486   2.618   8.867 -0.0148 -0.2531 -0.4879
   86SAPS  H13X 8261   5.389   2.665   8.838 -0.1807 -0.6822 -0.6406
   86SAPS  H13Y 8262   5.470   2.511   8.840  2.5137 -0.8358  0.1988
   86SAPS  C314 8263   5.595   2.691   8.778  0.0989 -0.0553  0.0114
   86SAPS  H14X 8264   5.697   2.652   8.800 -0.3406 -1.6049 -0.5572
   86SAPS  H14Y 8265   5.595   2.794   8.818 -1.5486 -0.9988  2.5378
   86SAPS  C315 8266   5.561   2.693   8.621 -0.8388 -0.2437  0.0256
   86SAPS  H15X 8267   5.530   2.593   8.584  2.4787 -0.3072 -2.8333
   86SAPS  H15Y 8268   5.658   2.718   8.573 -1.2748 -0.0424 -0.7557
   86SAPS  C316 8269   5.453   2.804   8.591 -0.3622  0.0260  0.0202
   86SAPS  H16X 8270   5.483   2.905   8.628 -1.1858 -0.8583  3.2100
   86SAPS  H16Y 8271   5.360   2.775   8.644 -0.2011 -1.8897 -0.6975
   86SAPS  C317 8272   5.423   2.822   8.440 -0.6156  0.2126  0.1140
   86SAPS  H17X 8273   5.507   2.869   8.383 -0.9960 -0.4181 -0.9778
   86SAPS  H17Y 8274   5.346   2.901   8.432 -1.0464 -0.0566  1.4886
   86SAPS  C318 8275   5.382   2.690   8.374  0.1793  0.5134  0.5700
   86SAPS  H18X 8276   5.332   2.688   8.274 -0.2113  1.2013  0.7505
   86SAPS  H18Y 8277   5.307   2.646   8.443 -0.9817  2.0728  0.3164
   86SAPS  H18Z 8278   5.467   2.618   8.367  0.6624  1.0779  0.6853
   87SAPS     N 8279   5.279   3.901  10.984  0.3578  0.2951  0.0691
   87SAPS   HN1 8280   5.257   3.990  10.934 -1.2142  0.2596  0.6730
   87SAPS   HN2 8281   5.288   3.816  10.925  0.5625 -0.2590  0.9075
   87SAPS   HN3 8282   5.200   3.880  11.049  0.1719 -0.6976 -0.4587
   87SAPS   C12 8283   5.407   3.928  11.057  0.2218  0.4237 -0.4666
   87SAPS  H12A 8284   5.390   3.975  11.153  0.2294 -0.8827  0.1830
   87SAPS   C13 8285   5.493   3.799  11.078 -0.4210 -0.3197  0.2495
   87SAPS  O13A 8286   5.442   3.686  11.056 -0.3598  0.1245  0.3434
   87SAPS  O13B 8287   5.603   3.799  11.144 -0.1959 -0.2455  0.3222
   87SAPS   C11 8288   5.491   4.029  10.973  0.5426  0.7496  0.0332
   87SAPS  H11A 8289   5.524   3.993  10.873 -1.4518  3.7978 -1.8091
   87SAPS  H11B 8290   5.588   4.045  11.024 -0.3480  0.6058  1.8143
   87SAPS     P 8291   5.481   4.281  10.884  0.0859  0.6794 -0.2763
   87SAPS   O13 8292   5.428   4.398  10.949 -0.6451 -0.3621  0.4058
   87SAPS   O14 8293   5.629   4.278  10.863 -0.1249  0.2941  0.5995
   87SAPS   O12 8294   5.421   4.156  10.965  0.0557  0.1490  0.2357
   87SAPS   O11 8295   5.418   4.259  10.736  0.2562  0.6026  0.0109
   87SAPS    C1 8296   5.278   4.291  10.725 -0.1718  0.5445  0.0395
   87SAPS    HA 8297   5.226   4.199  10.691  0.0256  0.7710 -0.8894
   87SAPS    HB 8298   5.231   4.329  10.818  1.7785  0.8403  0.9241
   87SAPS    C2 8299   5.254   4.396  10.612  0.1235 -0.8231 -0.1564
   87SAPS    HS 8300   5.143   4.402  10.610 -0.0028 -2.9868 -0.5527
   87SAPS   O21 8301   5.307   4.352  10.489 -0.1432 -0.2089 -0.0788
   87SAPS   C21 8302   5.219   4.303  10.392 -0.2812 -0.2900 -0.9765
   87SAPS   O22 8303   5.102   4.280  10.405 -0.5758  0.8889  0.1296
   87SAPS   C22 8304   5.305   4.260  10.273 -0.6300  0.6704 -0.0518
   87SAPS   H2R 8305   5.373   4.341  10.238  0.6271 -0.1054  0.5768
   87SAPS   H2S 8306   5.364   4.173  10.306  1.2339  0.9087 -2.6026
   87SAPS    C3 8307   5.326   4.538  10.640 -0.7104 -0.7447  0.2914
   87SAPS    HX 8308   5.429   4.496  10.647 -0.2039  0.1865 -1.3442
   87SAPS    HY 8309   5.305   4.590  10.736 -0.6565  0.1008 -0.1490
   87SAPS   O31 8310   5.314   4.628  10.535 -0.2132  0.2413  0.1317
   87SAPS   C31 8311   5.212   4.718  10.540 -0.0027  0.5913 -0.0282
   87SAPS   O32 8312   5.129   4.729  10.631 -0.3369  0.1326  0.1879
   87SAPS   C32 8313   5.200   4.801  10.412 -0.6737  0.0091  0.2934
   87SAPS   H2X 8314   5.303   4.796  10.370 -1.4849  1.6674 -1.9979
   87SAPS   H2Y 8315   5.170   4.905  10.433  0.7480  0.5587 -0.3391
   87SAPS   C23 8316   5.233   4.198  10.152 -0.1674 -0.1798  0.5809
   87SAPS   H3R 8317   5.172   4.108  10.176  0.1746 -0.3392  0.8498
   87SAPS   H3S 8318   5.306   4.175  10.072 -2.5123 -0.3269 -1.5968
   87SAPS   C24 8319   5.129   4.289  10.088  0.1001 -0.9803 -0.2075
   87SAPS   H4R 8320   5.049   4.310  10.161 -1.8402 -3.0898 -1.6396
   87SAPS   H4S 8321   5.077   4.226  10.012  0.5430 -0.4034 -0.9983
   87SAPS   C25 8322   5.186   4.420  10.025  0.2756 -0.3835  0.6183
   87SAPS   H5R 8323   5.246   4.479  10.096  1.4157  0.2259 -0.8202
   87SAPS   C26 8324   5.192   4.453   9.897 -0.1720 -0.0647  0.1664
   87SAPS   H6R 8325   5.236   4.551   9.871  0.8779 -0.3093  0.9769
   87SAPS   C27 8326   5.132   4.379   9.782 -0.2363 -0.0364 -1.3076
   87SAPS   H7R 8327   5.111   4.461   9.710  1.5758  0.9938 -0.6966
   87SAPS   H7S 8328   5.033   4.338   9.812 -0.1021  1.8229  1.9063
   87SAPS   C28 8329   5.227   4.281   9.730 -0.1426  0.4226  1.1941
   87SAPS   H8R 8330   5.275   4.210   9.798 -0.6693 -0.3544  0.7595
   87SAPS   C29 8331   5.249   4.268   9.598  0.4585 -0.1791 -0.1566
   87SAPS   H9R 8332   5.321   4.192   9.562 -0.0627 -0.5564 -0.4055
   87SAPS  C210 8333   5.189   4.346   9.484 -0.5899  0.1940  0.4571
   87SAPS  H10R 8334   5.260   4.429   9.461  2.1592 -1.3055  3.0402
   87SAPS  H10S 8335   5.105   4.414   9.506 -0.4199  0.7335 -0.5350
   87SAPS  C211 8336   5.152   4.272   9.360 -1.1353  0.2769  0.3798
   87SAPS  H11R 8337   5.043   4.255   9.358 -1.1235  0.1899  0.4743
   87SAPS  C212 8338   5.223   4.232   9.251  0.2478  0.4298 -0.4261
   87SAPS  H12R 8339   5.178   4.175   9.169  2.8533 -2.5391  0.1117
   87SAPS  C213 8340   5.374   4.245   9.242 -0.9793 -0.0225  0.9134
   87SAPS  H13R 8341   5.428   4.148   9.233 -0.4191  0.4436 -0.8895
   87SAPS  H13S 8342   5.409   4.302   9.331  2.4536 -1.4416  0.5592
   87SAPS  C214 8343   5.397   4.331   9.115 -0.2560 -0.5678 -0.6074
   87SAPS  H14R 8344   5.398   4.439   9.136  3.0949 -0.6468 -0.1078
   87SAPS  C215 8345   5.423   4.288   8.992 -1.2184  0.6339  0.7314
   87SAPS  H15R 8346   5.431   4.363   8.912 -1.1836  1.2673  1.3134
   87SAPS  C216 8347   5.443   4.144   8.946  0.1336  0.4683  0.4705
   87SAPS  H16R 8348   5.434   4.075   9.033 -0.6867 -1.5993 -1.2082
   87SAPS  H16S 8349   5.542   4.127   8.899 -0.1542  0.4802 -0.1381
   87SAPS  C217 8350   5.332   4.087   8.853 -0.1846 -0.2148  0.0239
   87SAPS  H17R 8351   5.321   4.166   8.776 -2.2211  0.1382  0.6388
   87SAPS  H17S 8352   5.242   4.085   8.918  0.0848 -0.9687  0.3885
   87SAPS  C218 8353   5.371   3.949   8.808 -0.1453  0.3013 -0.2769
   87SAPS  H18R 8354   5.380   3.888   8.900 -0.6516 -0.2078 -0.5651
   87SAPS  H18S 8355   5.462   3.948   8.743  1.1902 -1.0041  1.5738
   87SAPS  C219 8356   5.258   3.881   8.721 -0.3070 -0.6310 -0.5335
   87SAPS  H19R 8357   5.263   3.926   8.620  0.9344  2.6432  0.9060
   87SAPS  H19S 8358   5.159   3.893   8.771 -0.1222  1.0997 -0.5253
   87SAPS  C220 8359   5.289   3.732   8.704  0.9714  0.0909  0.2224
   87SAPS  H20R 8360   5.216   3.686   8.635  0.2044  0.8674  0.4993
   87SAPS  H20S 8361   5.306   3.683   8.803  2.3568 -0.1295 -0.1087
   87SAPS  H20T 8362   5.385   3.722   8.648  0.9685  1.4411 -0.0369
   87SAPS   C33 8363   5.111   4.732  10.305 -1.0014  1.0243 -0.3292
   87SAPS   H3X 8364   5.007   4.724  10.344 -1.6395 -1.5907 -2.4513
   87SAPS   H3Y 8365   5.133   4.624  10.290 -2.7437  0.6345 -0.1609
   87SAPS   C34 8366   5.118   4.809  10.171  0.1428  0.1129  0.5413
   87SAPS   H4X 8367   5.222   4.809  10.131 -0.1416  0.3398 -0.2178
   87SAPS   H4Y 8368   5.106   4.917  10.193 -2.1496  0.1769 -0.8798
   87SAPS   C35 8369   5.018   4.768  10.063  0.2209 -0.3371 -0.2388
   87SAPS   H5X 8370   4.907   4.778  10.068  0.0186 -0.2782 -3.8590
   87SAPS   H5Y 8371   5.033   4.662  10.035 -0.6775 -0.6221  0.3194
   87SAPS   C36 8372   5.067   4.821   9.925  0.1852 -0.4102 -0.2867
   87SAPS   H6X 8373   5.171   4.784   9.915  0.9722  1.6887 -0.1357
   87SAPS   H6Y 8374   5.069   4.932   9.935  2.8490 -0.3303 -1.4079
   87SAPS   C37 8375   4.977   4.779   9.807 -0.7855 -0.0389 -0.0848
   87SAPS   H7X 8376   4.878   4.829   9.806 -0.6866  0.4549  4.2904
   87SAPS   H7Y 8377   4.963   4.671   9.830  1.1758 -0.1089  0.9629
   87SAPS   C38 8378   5.047   4.795   9.668 -0.1189 -0.0297  0.0338
   87SAPS   H8X 8379   5.148   4.751   9.678  0.1952  0.9645  1.3275
   87SAPS   H8Y 8380   5.045   4.904   9.648 -4.0146  0.5907  3.2102
   87SAPS   C39 8381   4.987   4.722   9.549  0.1274  0.3517 -0.1999
   87SAPS   H9X 8382   4.905   4.788   9.512 -1.6975 -0.5131  2.2160
   87SAPS   H9Y 8383   4.954   4.623   9.586 -0.2012 -0.0479 -1.5405
   87SAPS  C310 8384   5.084   4.701   9.439  0.2380 -0.5316 -0.3983
   87SAPS  H10X 8385   5.174   4.647   9.477  0.4396  0.1891  0.1712
   87SAPS  H10Y 8386   5.138   4.796   9.422  2.0014 -1.1978  1.3230
   87SAPS  C311 8387   5.035   4.639   9.307  0.2107 -0.4067  0.0588
   87SAPS  H11X 8388   4.938   4.675   9.265  0.6346 -0.8922 -1.3584
   87SAPS  H11Y 8389   5.018   4.530   9.316 -0.7731 -0.4657 -2.2001
   87SAPS  C312 8390   5.132   4.663   9.187  0.1866 -0.1449 -0.2879
   87SAPS  H12X 8391   5.234   4.623   9.205 -1.3405 -4.5220 -0.7935
   87SAPS  H12Y 8392   5.142   4.771   9.160  0.1661 -0.5791 -2.0325
   87SAPS  C313 8393   5.082   4.588   9.061  0.2133  0.9230 -0.4929
   87SAPS  H13X 8394   4.980   4.622   9.033  0.0927 -1.1845 -2.8337
   87SAPS  H13Y 8395   5.081   4.485   9.103  1.6123  1.3908  0.7060
   87SAPS  C314 8396   5.175   4.594   8.942  0.0155 -0.0810  0.7479
   87SAPS  H14X 8397   5.266   4.533   8.963 -2.6810 -3.3407  3.5756
   87SAPS  H14Y 8398   5.212   4.698   8.932  1.2701 -0.5703  0.2041
   87SAPS  C315 8399   5.109   4.539   8.808 -0.3209  0.0978 -1.2511
   87SAPS  H15X 8400   5.004   4.576   8.803 -0.7564 -0.9170  0.0665
   87SAPS  H15Y 8401   5.096   4.430   8.825 -0.0720  0.7430  3.5431
   87SAPS  C316 8402   5.193   4.566   8.680  0.1426  0.7011  0.8736
   87SAPS  H16X 8403   5.298   4.532   8.687 -0.0967 -0.1951  0.2080
   87SAPS  H16Y 8404   5.213   4.675   8.668 -0.7839  0.7408 -0.4268
   87SAPS  C317 8405   5.129   4.509   8.554  0.5751  0.1610  0.2012
   87SAPS  H17X 8406   5.102   4.402   8.565  0.6974  0.2161  1.0811
   87SAPS  H17Y 8407   5.212   4.509   8.480 -0.0474  0.0825 -0.4968
   87SAPS  C318 8408   5.021   4.598   8.500  0.4282  0.4063 -0.0138
   87SAPS  H18X 8409   4.979   4.565   8.402 -1.5504  0.0031  0.9436
   87SAPS  H18Y 8410   5.062   4.698   8.477 -1.3620  1.3082  0.6085
   87SAPS  H18Z 8411   4.936   4.605   8.572  1.0936 -2.0370  1.0543
   88SAPS     N 8412   0.755   2.378  11.275  0.2126  0.3447 -0.2028
   88SAPS   HN1 8413   0.716   2.409  11.366  2.5388  0.1738  0.8913
   88SAPS   HN2 8414   0.855   2.403  11.269  0.3811 -0.0359  0.8812
   88SAPS   HN3 8415   0.710   2.438  11.203 -1.2804 -1.5450 -0.9250
   88SAPS   C12 8416   0.758   2.234  11.244  0.7224  0.6113  0.1731
   88SAPS  H12A 8417   0.834   2.196  11.311  0.5218  1.9756  1.2139
   88SAPS   C13 8418   0.635   2.150  11.266  0.1507  0.4132  0.2475
   88SAPS  O13A 8419   0.532   2.194  11.320  0.2997  0.5193  0.3304
   88SAPS  O13B 8420   0.647   2.026  11.255  0.9761  0.0480  0.2468
   88SAPS   C11 8421   0.803   2.214  11.089 -0.6840 -0.3377  0.1993
   88SAPS  H11A 8422   0.797   2.105  11.067  0.7159 -0.0884 -1.4553
   88SAPS  H11B 8423   0.913   2.230  11.082 -1.0139  3.3477  2.2105
   88SAPS     P 8424   0.768   2.320  10.859 -0.0962 -0.2001 -0.0570
   88SAPS   O13 8425   0.651   2.298  10.770 -0.5827  0.4811  0.3177
   88SAPS   O14 8426   0.835   2.453  10.862  0.3424 -0.0650 -0.1884
   88SAPS   O12 8427   0.719   2.295  11.008 -0.3266  0.4755 -0.0245
   88SAPS   O11 8428   0.876   2.205  10.832 -0.0257 -0.4320  0.4074
   88SAPS    C1 8429   1.004   2.254  10.785 -0.4785 -0.5110  1.0598
   88SAPS    HA 8430   1.050   2.338  10.841 -1.8923  0.5936  0.5903
   88SAPS    HB 8431   1.077   2.170  10.786 -0.7456 -0.7758  3.9720
   88SAPS    C2 8432   1.001   2.263  10.625  0.7224  0.2227 -0.6823
   88SAPS    HS 8433   0.921   2.337  10.603  0.8518  0.4467 -0.4010
   88SAPS   O21 8434   0.959   2.131  10.579  0.0552  0.3257  0.2084
   88SAPS   C21 8435   0.863   2.124  10.495  0.3719 -0.2709  0.6237
   88SAPS   O22 8436   0.804   2.208  10.431  1.1741  0.0320  0.1842
   88SAPS   C22 8437   0.830   1.973  10.484  0.4773  0.0073 -0.0130
   88SAPS   H2R 8438   0.918   1.920  10.444 -0.5950  0.5124 -3.1281
   88SAPS   H2S 8439   0.795   1.939  10.584 -2.3875  0.4789 -0.8110
   88SAPS    C3 8440   1.136   2.322  10.565  0.7418  0.3554 -0.2475
   88SAPS    HX 8441   1.214   2.257  10.611  0.5681  1.5394  1.7625
   88SAPS    HY 8442   1.160   2.424  10.602 -0.3240 -0.0652  1.6455
   88SAPS   O31 8443   1.146   2.323  10.421 -0.2027  0.0573  0.2619
   88SAPS   C31 8444   1.196   2.214  10.369  0.0025 -0.1472 -0.2178
   88SAPS   O32 8445   1.237   2.116  10.419  0.0322 -0.3357 -0.4478
   88SAPS   C32 8446   1.193   2.246  10.218  0.0720  0.7618 -0.2645
   88SAPS   H2X 8447   1.261   2.177  10.165  0.3537 -0.9999  2.3112
   88SAPS   H2Y 8448   1.230   2.349  10.196  1.2335  0.9587  2.4531
   88SAPS   C23 8449   0.729   1.952  10.371 -0.4580 -0.1576 -0.4455
   88SAPS   H3R 8450   0.654   2.034  10.366  1.1597  1.3238 -1.1301
   88SAPS   H3S 8451   0.681   1.856  10.400 -0.9102  0.5325  1.1065
   88SAPS   C24 8452   0.786   1.927  10.229  0.2509 -0.3656  0.2440
   88SAPS   H4R 8453   0.865   1.853  10.254 -1.4662 -1.9555  1.1650
   88SAPS   H4S 8454   0.830   2.023  10.197  1.0919 -0.3446  1.4386
   88SAPS   C25 8455   0.697   1.878  10.116  1.2465  0.0365 -0.0505
   88SAPS   H5R 8456   0.625   1.797  10.139 -0.5547  1.0332 -2.0065
   88SAPS   C26 8457   0.692   1.918   9.988 -0.2948  0.0003  0.6074
   88SAPS   H6R 8458   0.617   1.871   9.922  0.5508 -3.1776  1.7795
   88SAPS   C27 8459   0.783   2.014   9.924 -0.0216  0.0165 -0.1778
   88SAPS   H7R 8460   0.858   2.049   9.998 -0.4115 -0.7646  0.5981
   88SAPS   H7S 8461   0.734   2.104   9.881 -0.5676  0.4274  1.2606
   88SAPS   C28 8462   0.855   1.935   9.817 -0.3156 -0.5143 -0.7608
   88SAPS   H8R 8463   0.929   1.866   9.860  1.7767  2.6051  0.7837
   88SAPS   C29 8464   0.860   1.957   9.684 -0.3501 -0.8807 -0.1872
   88SAPS   H9R 8465   0.913   1.887   9.618  2.0040  1.4330 -0.8357
   88SAPS  C210 8466   0.782   2.061   9.606 -0.1407  0.4231 -0.2587
   88SAPS  H10R 8467   0.725   2.125   9.676  0.7963  0.4363  0.4959
   88SAPS  H10S 8468   0.719   2.016   9.526 -1.4286  0.4084  0.7621
   88SAPS  C211 8469   0.866   2.155   9.532 -0.0506  0.0846 -0.0816
   88SAPS  H11R 8470   0.972   2.162   9.564  0.0772  2.3502 -0.8933
   88SAPS  C212 8471   0.828   2.232   9.431 -0.0901  0.0753  0.1097
   88SAPS  H12R 8472   0.903   2.289   9.374  0.0992  0.6557  0.9414
   88SAPS  C213 8473   0.696   2.243   9.361 -0.5670 -0.0077 -0.2257
   88SAPS  H13R 8474   0.667   2.349   9.349  0.0747  0.1764 -0.1671
   88SAPS  H13S 8475   0.612   2.218   9.429  0.2977  0.5053  1.0542
   88SAPS  C214 8476   0.678   2.160   9.233 -0.5795 -0.6146 -0.1475
   88SAPS  H14R 8477   0.634   2.062   9.255 -1.6851 -0.6093 -2.1874
   88SAPS  C215 8478   0.685   2.209   9.110  0.2497 -0.1231 -0.6849
   88SAPS  H15R 8479   0.674   2.143   9.023  0.7404 -0.6354 -0.3639
   88SAPS  C216 8480   0.728   2.353   9.079 -0.2841  0.1823  0.0303
   88SAPS  H16R 8481   0.787   2.405   9.157  2.8981 -1.4919 -1.1499
   88SAPS  H16S 8482   0.644   2.418   9.047  0.5626  1.2390 -0.0668
   88SAPS  C217 8483   0.832   2.344   8.965 -0.7277  0.1568  0.3815
   88SAPS  H17R 8484   0.806   2.288   8.873  0.8894  0.0753 -0.0518
   88SAPS  H17S 8485   0.927   2.309   9.011 -0.7262  1.6086  1.5445
   88SAPS  C218 8486   0.855   2.493   8.914 -0.5901  0.6339 -0.4963
   88SAPS  H18R 8487   0.907   2.549   8.995  0.5814  1.6937 -1.9331
   88SAPS  H18S 8488   0.763   2.549   8.889 -2.1651 -0.7900  1.9516
   88SAPS  C219 8489   0.956   2.489   8.791  0.1079  0.4109 -0.0655
   88SAPS  H19R 8490   0.901   2.445   8.706 -0.2193  0.4669  0.1150
   88SAPS  H19S 8491   1.042   2.429   8.829 -0.6113  0.3652  1.5411
   88SAPS  C220 8492   1.002   2.625   8.750 -0.0929  0.8077 -0.7821
   88SAPS  H20R 8493   1.066   2.618   8.659  2.3720 -2.8214  1.1294
   88SAPS  H20S 8494   1.057   2.670   8.836  1.2202 -0.8749 -0.6977
   88SAPS  H20T 8495   0.908   2.677   8.722 -0.4059 -0.6463 -2.4829
   88SAPS   C33 8496   1.056   2.229  10.154 -0.3003  0.1160 -0.4727
   88SAPS   H3X 8497   0.976   2.240  10.231 -0.3207  3.3273 -0.8725
   88SAPS   H3Y 8498   1.043   2.129  10.107  0.0974 -0.6193  0.9484
   88SAPS   C34 8499   1.030   2.329  10.040 -0.3214  0.1909  0.7845
   88SAPS   H4X 8500   1.047   2.431  10.081  0.1028  0.8249 -0.9617
   88SAPS   H4Y 8501   0.921   2.322  10.018 -0.2739 -0.8491  0.8651
   88SAPS   C35 8502   1.112   2.290   9.919 -0.5466 -0.1679  0.1646
   88SAPS   H5X 8503   1.096   2.186   9.886  0.1321 -0.0516 -0.5296
   88SAPS   H5Y 8504   1.220   2.301   9.943 -0.8739  1.0647  1.1505
   88SAPS   C36 8505   1.081   2.398   9.807  0.1044 -0.4341 -0.1220
   88SAPS   H6X 8506   1.082   2.496   9.859  1.7829 -0.7550  0.4929
   88SAPS   H6Y 8507   0.980   2.369   9.773  0.5727 -1.2671 -0.8345
   88SAPS   C37 8508   1.174   2.384   9.687  0.4016  0.2445  0.0310
   88SAPS   H7X 8509   1.189   2.280   9.650  0.0824 -0.1651  1.0343
   88SAPS   H7Y 8510   1.276   2.410   9.723  0.5846 -0.8293  0.3125
   88SAPS   C38 8511   1.120   2.475   9.570 -0.2433 -0.0918 -0.1278
   88SAPS   H8X 8512   1.095   2.577   9.608 -1.0064  0.3281 -1.7112
   88SAPS   H8Y 8513   1.029   2.438   9.517 -0.3256  0.3896 -0.3334
   88SAPS   C39 8514   1.232   2.483   9.469 -0.4660 -0.7732  0.1074
   88SAPS   H9X 8515   1.282   2.384   9.474  1.6136  0.1945 -0.9949
   88SAPS   H9Y 8516   1.308   2.560   9.495 -0.9667  0.0172 -0.7249
   88SAPS  C310 8517   1.189   2.512   9.329  0.4931 -0.1697  0.0416
   88SAPS  H10X 8518   1.137   2.610   9.332 -0.6791 -0.8117  1.1577
   88SAPS  H10Y 8519   1.116   2.435   9.295 -0.7386  1.7708 -1.7823
   88SAPS  C311 8520   1.303   2.509   9.237 -0.1797 -0.2212  0.6558
   88SAPS  H11X 8521   1.347   2.407   9.236 -2.0197 -1.0439  1.0242
   88SAPS  H11Y 8522   1.382   2.580   9.270 -1.0954  1.6749 -1.1334
   88SAPS  C312 8523   1.267   2.540   9.092  0.3460  0.1811  0.0561
   88SAPS  H12X 8524   1.235   2.646   9.082 -2.1214 -0.7458 -2.3704
   88SAPS  H12Y 8525   1.196   2.466   9.049  0.0525 -0.2950  1.3467
   88SAPS  C313 8526   1.393   2.511   9.006  0.0261  0.3245 -0.0757
   88SAPS  H13X 8527   1.427   2.405   9.009  0.1159  0.3700  0.6428
   88SAPS  H13Y 8528   1.474   2.571   9.054 -0.4134  2.7937 -2.3122
   88SAPS  C314 8529   1.377   2.564   8.861 -0.4719  0.5012 -0.1969
   88SAPS  H14X 8530   1.387   2.674   8.859 -0.9339  0.6021  1.7638
   88SAPS  H14Y 8531   1.288   2.522   8.809 -0.5343  0.0693  0.2493
   88SAPS  C315 8532   1.493   2.521   8.765 -0.9144 -0.0149  0.0843
   88SAPS  H15X 8533   1.502   2.410   8.755  0.0767 -0.0637  1.3497
   88SAPS  H15Y 8534   1.584   2.561   8.815 -1.0987  2.7138 -1.6892
   88SAPS  C316 8535   1.503   2.596   8.630 -0.0393  0.1790  0.2410
   88SAPS  H16X 8536   1.500   2.707   8.631 -1.2133  0.1563  1.1543
   88SAPS  H16Y 8537   1.424   2.560   8.561  0.4896 -2.1829  0.8147
   88SAPS  C317 8538   1.630   2.551   8.550 -0.7603  0.3720 -0.3058
   88SAPS  H17X 8539   1.712   2.536   8.623 -0.6813  1.3364 -0.1866
   88SAPS  H17Y 8540   1.667   2.628   8.479  3.0155 -0.9757  0.0844
   88SAPS  C318 8541   1.611   2.412   8.482  0.6893  0.6269  0.4433
   88SAPS  H18X 8542   1.693   2.401   8.408  1.7028  0.4404  1.5615
   88SAPS  H18Y 8543   1.519   2.405   8.421  0.0550  0.3542  1.4293
   88SAPS  H18Z 8544   1.604   2.332   8.558 -0.7111  0.2996 -0.0295
   89SAPS     N 8545   0.614   4.152  10.551 -0.4252 -0.4730 -0.8464
   89SAPS   HN1 8546   0.603   4.255  10.555 -1.2000 -0.4991 -2.2129
   89SAPS   HN2 8547   0.659   4.128  10.461 -1.2974 -1.5656 -0.9988
   89SAPS   HN3 8548   0.517   4.114  10.553 -1.1270  1.2498 -1.4780
   89SAPS   C12 8549   0.693   4.108  10.664 -0.0274  0.4341 -0.3917
   89SAPS  H12A 8550   0.651   4.147  10.755 -0.4241 -1.9184  0.4634
   89SAPS   C13 8551   0.713   3.955  10.677  0.3753 -0.5760 -0.1482
   89SAPS  O13A 8552   0.656   3.871  10.602  0.7356 -0.2495 -0.2925
   89SAPS  O13B 8553   0.764   3.917  10.785 -0.0110 -0.3414 -0.1824
   89SAPS   C11 8554   0.833   4.171  10.656  0.0060  0.5379 -0.1303
   89SAPS  H11A 8555   0.891   4.145  10.564 -0.1306  1.8575 -0.6040
   89SAPS  H11B 8556   0.895   4.126  10.736 -0.3544  0.8629  0.3349
   89SAPS     P 8557   0.833   4.384  10.805  0.0730 -0.2434  0.6575
   89SAPS   O13 8558   0.720   4.324  10.879  0.9339  0.5839  0.0645
   89SAPS   O14 8559   0.966   4.377  10.870 -0.2408  0.1315  0.3302
   89SAPS   O12 8560   0.833   4.308  10.666  0.7076  0.0842 -0.2902
   89SAPS   O11 8561   0.803   4.541  10.757  0.1351 -0.0453  0.2930
   89SAPS    C1 8562   0.711   4.582  10.663  0.1065  0.7472  0.1259
   89SAPS    HA 8563   0.641   4.505  10.625 -0.5028  1.8961 -1.1289
   89SAPS    HB 8564   0.633   4.641  10.717  0.4308  2.1414 -0.9127
   89SAPS    C2 8565   0.770   4.670  10.544  0.1744 -0.6176  0.0682
   89SAPS    HS 8566   0.689   4.711  10.481 -0.2943 -1.7578 -0.0808
   89SAPS   O21 8567   0.861   4.578  10.476  0.2361 -0.0259  0.0132
   89SAPS   C21 8568   0.905   4.605  10.361  0.6601  0.1196 -0.4681
   89SAPS   O22 8569   0.863   4.703  10.301 -0.0944 -0.1127 -0.0059
   89SAPS   C22 8570   1.003   4.502  10.322  0.1924  0.9965 -0.9671
   89SAPS   H2R 8571   1.049   4.457  10.413 -2.1995  1.4508  0.4969
   89SAPS   H2S 8572   0.932   4.432  10.274 -2.2057  1.5363  1.6367
   89SAPS    C3 8573   0.836   4.799  10.608  0.1923 -0.0385 -0.0863
   89SAPS    HX 8574   0.926   4.758  10.660 -1.4488 -0.7966  2.2461
   89SAPS    HY 8575   0.776   4.832  10.695  0.6030  0.2186  0.1039
   89SAPS   O31 8576   0.884   4.900  10.515 -0.0630  0.4149  0.0457
   89SAPS   C31 8577   0.787   4.977  10.470  0.1653  0.3091  0.0379
   89SAPS   O32 8578   0.672   4.978  10.510 -0.2372 -0.0983 -0.1624
   89SAPS   C32 8579   0.846   5.068  10.363 -0.0191  0.4079  0.2986
   89SAPS   H2X 8580   0.899   5.004  10.289 -0.1231  1.4689 -0.7148
   89SAPS   H2Y 8581   0.925   5.135  10.405  0.6308  0.0913 -0.4056
   89SAPS   C23 8582   1.117   4.543  10.217  0.1214  0.0200 -0.0998
   89SAPS   H3R 8583   1.204   4.483  10.251 -0.6699 -1.3170 -0.4200
   89SAPS   H3S 8584   1.143   4.651  10.227 -1.7888  0.6052 -1.1854
   89SAPS   C24 8585   1.074   4.508  10.077 -1.2501  0.1036  0.5488
   89SAPS   H4R 8586   1.051   4.399  10.078 -1.8115  0.2162 -0.2822
   89SAPS   H4S 8587   1.159   4.527  10.008 -1.8073 -1.1502 -0.5013
   89SAPS   C25 8588   0.956   4.579  10.029 -0.3322 -0.2266  0.6222
   89SAPS   H5R 8589   0.932   4.672  10.082 -1.1674 -0.1322  0.0931
   89SAPS   C26 8590   0.871   4.542   9.927 -0.0440 -0.6084  0.1646
   89SAPS   H6R 8591   0.786   4.608   9.903 -0.8703 -1.7123  0.0446
   89SAPS   C27 8592   0.887   4.415   9.847  0.0038  0.0187  0.2537
   89SAPS   H7R 8593   0.800   4.349   9.867  0.5412 -0.9823 -0.5909
   89SAPS   H7S 8594   0.977   4.368   9.892 -1.9837 -2.4698  1.7925
   89SAPS   C28 8595   0.910   4.435   9.701  0.6076 -0.7530  0.9166
   89SAPS   H8R 8596   0.951   4.534   9.676 -0.0603  0.4336  4.3308
   89SAPS   C29 8597   0.870   4.348   9.609  0.0256  0.1655  0.9480
   89SAPS   H9R 8598   0.884   4.370   9.502  1.2887 -3.4014  0.3045
   89SAPS  C210 8599   0.809   4.212   9.638 -0.1979  0.4463 -0.1261
   89SAPS  H10R 8600   0.702   4.219   9.667 -0.6316 -0.8005 -1.3473
   89SAPS  H10S 8601   0.845   4.165   9.732  0.4050  0.0521 -0.5463
   89SAPS  C211 8602   0.825   4.108   9.529 -0.3010  0.2285 -1.0311
   89SAPS  H11R 8603   0.923   4.060   9.523 -0.0995  0.1133  2.0579
   89SAPS  C212 8604   0.739   4.086   9.419  0.2103 -0.2523  0.1636
   89SAPS  H12R 8605   0.776   4.017   9.342 -0.4734  0.9206 -1.2290
   89SAPS  C213 8606   0.610   4.159   9.400  0.7619  0.7626  0.1243
   89SAPS  H13R 8607   0.629   4.266   9.374  2.1329 -0.0284 -2.3256
   89SAPS  H13S 8608   0.550   4.165   9.493 -0.2166  1.0615 -0.5198
   89SAPS  C214 8609   0.531   4.094   9.286 -0.3862 -0.7020  0.3791
   89SAPS  H14R 8610   0.530   3.984   9.292 -0.2298 -0.6476  1.4259
   89SAPS  C215 8611   0.461   4.155   9.198 -0.0979 -0.5248  0.0858
   89SAPS  H15R 8612   0.400   4.101   9.124  0.4639  1.8294 -2.1402
   89SAPS  C216 8613   0.449   4.299   9.180  0.5375  0.5314 -0.1571
   89SAPS  H16R 8614   0.479   4.328   9.077  0.2628  2.3385  0.2402
   89SAPS  H16S 8615   0.512   4.365   9.244  1.1992 -0.3004  0.0532
   89SAPS  C217 8616   0.305   4.358   9.208 -0.0419  0.1253  0.1640
   89SAPS  H17R 8617   0.244   4.299   9.136  1.8049  0.8292 -2.0431
   89SAPS  H17S 8618   0.301   4.466   9.180  1.3158  0.2724  0.4998
   89SAPS  C218 8619   0.256   4.329   9.351  0.1793 -0.7533  0.6478
   89SAPS  H18R 8620   0.323   4.372   9.429  2.2469  2.2172 -2.6388
   89SAPS  H18S 8621   0.270   4.219   9.365 -0.5889 -1.0330 -0.7188
   89SAPS  C219 8622   0.112   4.367   9.376  0.0629  0.0805 -0.1823
   89SAPS  H19R 8623   0.105   4.476   9.397  0.2155  0.5041 -2.2668
   89SAPS  H19S 8624   0.074   4.313   9.466 -1.0170  0.9701 -0.0845
   89SAPS  C220 8625   0.013   4.341   9.257 -0.5097 -1.3258  0.0125
   89SAPS  H20R 8626   0.007   4.231   9.243  0.8478 -1.4221  0.0927
   89SAPS  H20S 8627   0.041   4.391   9.162  0.1659 -1.9764 -0.1351
   89SAPS  H20T 8628  -0.081   4.370   9.308  0.1671  1.7985 -0.4198
   89SAPS   C33 8629   0.741   5.148  10.278  0.0920  1.0683  0.9042
   89SAPS   H3X 8630   0.777   5.244  10.235 -0.4959  1.7387  1.9134
   89SAPS   H3Y 8631   0.651   5.183  10.332  0.4018  2.6278  0.4251
   89SAPS   C34 8632   0.681   5.058  10.173  0.2542 -0.7925 -0.2618
   89SAPS   H4X 8633   0.596   5.118  10.133 -0.4757 -1.6733 -0.0488
   89SAPS   H4Y 8634   0.623   4.970  10.209 -0.8971 -0.7079 -1.8742
   89SAPS   C35 8635   0.767   5.021  10.050  0.3654 -0.2416 -0.5536
   89SAPS   H5X 8636   0.844   4.945  10.076  1.2759  1.0172  0.5161
   89SAPS   H5Y 8637   0.825   5.113  10.026  1.3272 -0.3892  1.1485
   89SAPS   C36 8638   0.691   4.987   9.921  0.0345  0.1825  0.1748
   89SAPS   H6X 8639   0.622   5.071   9.900  0.7677  0.9387  0.7343
   89SAPS   H6Y 8640   0.624   4.905   9.954 -1.8230  1.6072  0.0250
   89SAPS   C37 8641   0.772   4.946   9.803  0.1385 -0.0071  0.2115
   89SAPS   H7X 8642   0.839   4.866   9.843  0.3046  0.3655  0.6867
   89SAPS   H7Y 8643   0.821   5.037   9.762 -0.4606  0.3457  0.2883
   89SAPS   C38 8644   0.685   4.896   9.686  0.0670 -0.6313 -0.2392
   89SAPS   H8X 8645   0.749   4.885   9.595  1.3847 -2.2388  0.8635
   89SAPS   H8Y 8646   0.613   4.978   9.666  0.3854 -0.1249  0.6863
   89SAPS   C39 8647   0.600   4.772   9.713  0.1048  0.2803  0.4363
   89SAPS   H9X 8648   0.504   4.799   9.762  0.4126  1.2379  0.5089
   89SAPS   H9Y 8649   0.651   4.698   9.779 -0.9851 -0.2067  0.7483
   89SAPS  C310 8650   0.573   4.700   9.580 -0.6103 -0.0520 -0.2782
   89SAPS  H10X 8651   0.496   4.621   9.592 -1.0096 -0.2984 -3.7431
   89SAPS  H10Y 8652   0.670   4.649   9.559  0.8823  0.4744  4.8078
   89SAPS  C311 8653   0.535   4.791   9.467  0.0938  0.2818 -0.3995
   89SAPS  H11X 8654   0.623   4.855   9.440  0.3315  0.6903  1.2469
   89SAPS  H11Y 8655   0.455   4.859   9.503  1.6685  0.2745  3.3845
   89SAPS  C312 8656   0.476   4.710   9.350 -0.1229 -0.1151 -0.7474
   89SAPS  H12X 8657   0.366   4.704   9.367  0.1179  1.1138  1.4350
   89SAPS  H12Y 8658   0.517   4.607   9.339 -2.4318 -1.1286 -0.2377
   89SAPS  C313 8659   0.491   4.788   9.216 -0.0273 -0.3480  0.2814
   89SAPS  H13X 8660   0.597   4.817   9.196 -0.9556 -0.3324 -5.3978
   89SAPS  H13Y 8661   0.446   4.888   9.237 -2.6816 -1.7444  1.5056
   89SAPS  C314 8662   0.427   4.714   9.095  0.3144 -0.0250  0.4974
   89SAPS  H14X 8663   0.340   4.652   9.125  1.0062 -1.0158  0.4803
   89SAPS  H14Y 8664   0.502   4.639   9.062  0.3738 -0.7811  2.2388
   89SAPS  C315 8665   0.385   4.809   8.977 -0.0255  0.1700 -0.5398
   89SAPS  H15X 8666   0.467   4.880   8.954  1.9938 -1.2639  1.9541
   89SAPS  H15Y 8667   0.288   4.857   9.003 -0.9997 -2.1500  0.3057
   89SAPS  C316 8668   0.338   4.722   8.853  1.1446 -0.2729  0.1775
   89SAPS  H16X 8669   0.419   4.647   8.838  1.5270 -0.4248  2.8763
   89SAPS  H16Y 8670   0.323   4.789   8.765 -0.2175 -2.1194 -1.0478
   89SAPS  C317 8671   0.201   4.651   8.870  0.5100 -0.0809 -0.0758
   89SAPS  H17X 8672   0.147   4.733   8.922  2.0562 -0.2025  1.8027
   89SAPS  H17Y 8673   0.189   4.562   8.935 -0.9662  0.8943  1.0187
   89SAPS  C318 8674   0.117   4.623   8.737  0.4311 -0.8150 -0.9727
   89SAPS  H18X 8675   0.112   4.706   8.663  1.1163  0.5766  0.5250
   89SAPS  H18Y 8676   0.011   4.604   8.761  0.7343 -0.6488  0.5164
   89SAPS  H18Z 8677   0.163   4.535   8.685 -0.6729 -1.3475 -1.0659
   90SAPS     N 8678   1.863   4.714  10.962 -0.0093  0.1086  0.6879
   90SAPS   HN1 8679   1.790   4.775  10.920 -2.2602 -3.1265 -0.3227
   90SAPS   HN2 8680   1.862   4.614  10.933  0.9357  0.2488  0.1398
   90SAPS   HN3 8681   1.852   4.715  11.065 -1.3453  0.2299  0.5451
   90SAPS   C12 8682   2.003   4.768  10.942  0.3766 -0.4000 -0.4850
   90SAPS  H12A 8683   1.984   4.833  10.857 -2.2642 -0.2603  0.1589
   90SAPS   C13 8684   2.059   4.836  11.068 -0.0911  0.7458  0.2291
   90SAPS  O13A 8685   1.998   4.839  11.175  0.5122 -0.3102 -0.4160
   90SAPS  O13B 8686   2.182   4.873  11.067  0.2441 -0.4407  0.7240
   90SAPS   C11 8687   2.094   4.657  10.891 -0.3571  1.1779  0.7828
   90SAPS  H11A 8688   2.104   4.574  10.964  0.5584  1.2463  0.7387
   90SAPS  H11B 8689   2.197   4.691  10.867 -0.3572  1.7188  1.5186
   90SAPS     P 8690   2.102   4.580  10.639 -0.6658 -0.3168  0.0918
   90SAPS   O13 8691   2.249   4.562  10.658  0.2503 -0.3042 -0.0059
   90SAPS   O14 8692   2.035   4.467  10.565 -0.3282 -0.4969  0.2075
   90SAPS   O12 8693   2.032   4.601  10.778 -0.4069  0.5838 -0.2615
   90SAPS   O11 8694   2.085   4.713  10.571  0.6627  0.8115 -0.0232
   90SAPS    C1 8695   1.964   4.794  10.558 -0.3926  0.2108  0.4614
   90SAPS    HA 8696   1.873   4.731  10.561 -1.2025  1.2790 -1.2075
   90SAPS    HB 8697   1.945   4.863  10.643 -0.0557  1.1716 -0.2447
   90SAPS    C2 8698   1.968   4.880  10.433  0.0709 -0.4825  0.3067
   90SAPS    HS 8699   1.863   4.910  10.412  0.5909  0.4459 -1.0418
   90SAPS   O21 8700   2.010   4.808  10.323  0.0564  0.3653  0.3943
   90SAPS   C21 8701   1.943   4.710  10.278 -0.7562  0.1600 -0.3324
   90SAPS   O22 8702   1.837   4.667  10.330 -0.3107  0.1013  0.2717
   90SAPS   C22 8703   2.023   4.643  10.164 -0.4068 -0.0609 -0.1197
   90SAPS   H2R 8704   2.104   4.587  10.214  0.8364  0.5381 -1.4515
   90SAPS   H2S 8705   1.956   4.574  10.108  0.6473  2.5439 -4.8972
   90SAPS    C3 8706   2.054   5.004  10.448 -0.5144 -0.4171  0.0567
   90SAPS    HX 8707   2.158   4.979  10.477  0.1773 -0.4509 -2.3193
   90SAPS    HY 8708   2.017   5.067  10.531  1.9355 -0.9444  1.5896
   90SAPS   O31 8709   2.058   5.087  10.330  0.4936 -0.0149 -0.1192
   90SAPS   C31 8710   2.154   5.056  10.244  0.2442 -0.6302 -0.3814
   90SAPS   O32 8711   2.246   4.975  10.257  0.4113  0.0797  0.1049
   90SAPS   C32 8712   2.151   5.158  10.125 -0.6636 -0.3884 -0.5548
   90SAPS   H2X 8713   2.174   5.258  10.169  1.2292 -1.1772  0.3057
   90SAPS   H2Y 8714   2.048   5.166  10.082 -0.0377  0.6276 -1.9219
   90SAPS   C23 8715   2.093   4.752  10.079  0.7995 -0.9557 -0.5629
   90SAPS   H3R 8716   2.190   4.782  10.124  0.9401 -1.8339 -0.2678
   90SAPS   H3S 8717   2.036   4.843  10.054  0.9247 -0.7631 -0.1553
   90SAPS   C24 8718   2.142   4.698   9.938 -0.5289  0.6065 -0.1179
   90SAPS   H4R 8719   2.188   4.597   9.942  0.2428  0.9317 -0.6783
   90SAPS   H4S 8720   2.221   4.763   9.894  0.3759 -1.7954 -2.1681
   90SAPS   C25 8721   2.029   4.689   9.840  0.6391 -0.1197  0.7260
   90SAPS   H5R 8722   1.933   4.680   9.891  0.9202  2.3130  1.7658
   90SAPS   C26 8723   2.037   4.692   9.703 -0.0028  0.0070 -0.1806
   90SAPS   H6R 8724   1.942   4.673   9.651  0.0590 -1.5127  0.2424
   90SAPS   C27 8725   2.158   4.700   9.625 -0.8248  0.2027  0.2756
   90SAPS   H7R 8726   2.238   4.641   9.674 -0.5478 -0.2386 -0.6898
   90SAPS   H7S 8727   2.198   4.803   9.621  1.1698 -0.5062  1.2158
   90SAPS   C28 8728   2.135   4.634   9.486 -0.2214 -0.2400 -0.4381
   90SAPS   H8R 8729   2.151   4.525   9.487  2.5083  0.0836  4.0636
   90SAPS   C29 8730   2.098   4.692   9.371 -0.5561 -0.2817  0.6132
   90SAPS   H9R 8731   2.113   4.630   9.281 -2.9223  2.6764 -1.9528
   90SAPS  C210 8732   2.077   4.840   9.354  0.8319  0.0818 -0.9531
   90SAPS  H10R 8733   2.165   4.894   9.311  0.2801  1.4667 -0.3848
   90SAPS  H10S 8734   2.074   4.877   9.459  1.1350 -2.0423 -0.1845
   90SAPS  C211 8735   1.944   4.861   9.281 -0.1696 -0.5149  0.5425
   90SAPS  H11R 8736   1.848   4.861   9.335  0.1668 -1.2402  1.1546
   90SAPS  C212 8737   1.935   4.862   9.154 -0.1776  0.1130  0.2156
   90SAPS  H12R 8738   1.835   4.881   9.112 -0.3132 -2.6601 -0.7967
   90SAPS  C213 8739   2.046   4.851   9.045  0.0459 -0.3788 -0.5182
   90SAPS  H13R 8740   2.143   4.837   9.096 -0.4840 -0.5724  0.4314
   90SAPS  H13S 8741   2.048   4.956   9.007 -2.1481 -0.3062 -0.4939
   90SAPS  C214 8742   2.028   4.749   8.941 -0.0085 -0.1804  0.5906
   90SAPS  H14R 8743   2.085   4.656   8.960 -0.2506 -0.8047 -1.6138
   90SAPS  C215 8744   1.955   4.762   8.828 -0.1814 -0.3392  0.3789
   90SAPS  H15R 8745   1.958   4.678   8.758  0.0263  1.3868 -1.7483
   90SAPS  C216 8746   1.873   4.879   8.779 -0.1979 -0.3028  0.0263
   90SAPS  H16R 8747   1.911   4.977   8.818 -2.1314  0.5310 -0.1420
   90SAPS  H16S 8748   1.769   4.873   8.815 -0.1366  1.5717  0.6143
   90SAPS  C217 8749   1.877   4.890   8.630 -0.6064  0.0357 -0.1332
   90SAPS  H17R 8750   1.838   4.801   8.577 -0.2581  0.2103 -0.6930
   90SAPS  H17S 8751   1.984   4.910   8.607 -0.2069 -1.6737  0.1588
   90SAPS  C218 8752   1.801   5.012   8.576  0.3452 -0.5358  0.2141
   90SAPS  H18R 8753   1.839   5.042   8.476 -0.0274  1.1850  0.5637
   90SAPS  H18S 8754   1.838   5.091   8.646  1.9177 -0.3181 -0.8241
   90SAPS  C219 8755   1.647   5.004   8.564  0.2175 -0.3102 -0.5907
   90SAPS  H19R 8756   1.612   5.106   8.538  1.6123  0.8688  1.9594
   90SAPS  H19S 8757   1.606   4.977   8.663 -1.2357  1.3465 -0.7228
   90SAPS  C220 8758   1.614   4.883   8.476 -0.4477  0.2391  0.0089
   90SAPS  H20R 8759   1.507   4.890   8.449 -0.5708 -0.3893  0.3332
   90SAPS  H20S 8760   1.635   4.787   8.528  0.3547  1.4179  1.8899
   90SAPS  H20T 8761   1.672   4.884   8.381 -0.7617 -2.3189 -0.2337
   90SAPS   C33 8762   2.261   5.124  10.022 -0.1660  0.0797 -0.1223
   90SAPS   H3X 8763   2.271   5.015  10.003  0.4655  0.2158 -0.5767
   90SAPS   H3Y 8764   2.357   5.163  10.062 -0.2456 -0.2503  0.3937
   90SAPS   C34 8765   2.231   5.190   9.884  0.0478  0.5954  0.8215
   90SAPS   H4X 8766   2.244   5.300   9.889 -2.8372  0.8669  3.8349
   90SAPS   H4Y 8767   2.124   5.177   9.857  0.3766 -1.7124  0.4474
   90SAPS   C35 8768   2.314   5.133   9.766  0.1099 -0.2684 -0.2862
   90SAPS   H5X 8769   2.280   5.030   9.743 -0.4600 -0.6092  1.9219
   90SAPS   H5Y 8770   2.414   5.110   9.810  1.1739  1.9088 -1.5162
   90SAPS   C36 8771   2.335   5.219   9.640 -0.3918 -0.1593  0.2637
   90SAPS   H6X 8772   2.408   5.159   9.583 -1.6995 -1.4255 -0.0963
   90SAPS   H6Y 8773   2.384   5.315   9.669  1.1378 -1.2495  1.3335
   90SAPS   C37 8774   2.209   5.222   9.555  0.4648  0.1840  0.1670
   90SAPS   H7X 8775   2.148   5.312   9.579  1.4305  0.8442  0.1992
   90SAPS   H7Y 8776   2.145   5.131   9.557 -0.6006  0.8649 -1.6866
   90SAPS   C38 8777   2.244   5.242   9.409  0.2379  0.3481  0.0387
   90SAPS   H8X 8778   2.298   5.153   9.371 -0.6213 -0.2837  0.2795
   90SAPS   H8Y 8779   2.314   5.325   9.390 -1.8312  1.5473 -2.7334
   90SAPS   C39 8780   2.122   5.251   9.317  0.0867 -0.1673  0.1390
   90SAPS   H9X 8781   2.069   5.346   9.337  0.8243 -0.0948  1.7914
   90SAPS   H9Y 8782   2.057   5.166   9.347 -2.6298  0.7302 -2.7887
   90SAPS  C310 8783   2.150   5.232   9.166 -0.6234  0.0960  0.3489
   90SAPS  H10X 8784   2.149   5.129   9.125 -2.4160  0.2216  0.0355
   90SAPS  H10Y 8785   2.253   5.270   9.149 -0.8455  0.0357 -1.1718
   90SAPS  C311 8786   2.051   5.322   9.073 -0.7864  0.6157 -0.1511
   90SAPS  H11X 8787   2.052   5.416   9.132  0.5230  0.5741 -0.0984
   90SAPS  H11Y 8788   1.950   5.275   9.078 -0.0642 -0.8493  1.1700
   90SAPS  C312 8789   2.092   5.357   8.936 -0.4453 -0.3376  0.4067
   90SAPS  H12X 8790   2.096   5.269   8.869  2.2943  2.0515 -2.7382
   90SAPS  H12Y 8791   2.199   5.382   8.948 -0.6143  1.0663 -0.9044
   90SAPS  C313 8792   2.023   5.472   8.878 -0.3220  0.8529 -0.0334
   90SAPS  H13X 8793   2.020   5.551   8.957  0.2231  0.6425  0.1964
   90SAPS  H13Y 8794   1.917   5.440   8.866 -0.0523 -0.3359  0.6683
   90SAPS  C314 8795   2.077   5.514   8.738  0.0418  0.5204 -0.5547
   90SAPS  H14X 8796   2.187   5.509   8.727  0.2608  0.4045  1.5351
   90SAPS  H14Y 8797   2.063   5.624   8.726  1.0065  0.5384 -1.6157
   90SAPS  C315 8798   2.007   5.440   8.621  1.7196  0.5834 -0.2327
   90SAPS  H15X 8799   1.897   5.442   8.634  1.6593  0.1575 -0.6742
   90SAPS  H15Y 8800   2.031   5.332   8.609  1.9189  0.5775  0.2284
   90SAPS  C316 8801   2.032   5.514   8.486  0.6542  0.0712 -0.0834
   90SAPS  H16X 8802   2.140   5.525   8.464  0.8587 -3.2454 -0.9839
   90SAPS  H16Y 8803   1.978   5.610   8.495 -0.1245 -0.4102  0.4532
   90SAPS  C317 8804   1.968   5.432   8.366 -0.4997  0.8405 -0.6683
   90SAPS  H17X 8805   1.887   5.369   8.409 -0.8295  1.1434 -0.8403
   90SAPS  H17Y 8806   2.045   5.361   8.330 -2.6102 -1.9878  0.2573
   90SAPS  C318 8807   1.910   5.522   8.259  0.8501 -0.0462  0.0175
   90SAPS  H18X 8808   1.823   5.580   8.295  0.2032 -1.2584  0.4395
   90SAPS  H18Y 8809   1.888   5.459   8.170  1.6146 -1.4317  0.7944
   90SAPS  H18Z 8810   1.978   5.595   8.211  0.2264 -0.9420 -2.2895
   91SAPS     N 8811   0.539   3.308   5.772  0.0999  0.5525  0.4126
   91SAPS   HN1 8812   0.611   3.251   5.821  0.3028 -0.0712 -0.5928
   91SAPS   HN2 8813   0.482   3.234   5.726 -0.2362  2.0482 -1.6316
   91SAPS   HN3 8814   0.579   3.365   5.694 -1.3817  0.3718 -0.4936
   91SAPS   C12 8815   0.460   3.396   5.862  0.1407  0.6016 -0.8506
   91SAPS  H12A 8816   0.518   3.479   5.900 -0.0346  0.0685  0.6081
   91SAPS   C13 8817   0.356   3.472   5.779 -0.0348 -0.4576  0.7460
   91SAPS  O13A 8818   0.344   3.436   5.658 -0.0751 -0.1039  0.2962
   91SAPS  O13B 8819   0.275   3.555   5.827  0.2902 -0.0409 -0.6850
   91SAPS   C11 8820   0.395   3.321   5.979 -0.3264 -0.4936 -0.6839
   91SAPS  H11A 8821   0.308   3.379   6.015  1.3453  2.7131 -1.6525
   91SAPS  H11B 8822   0.468   3.314   6.062 -1.6328 -0.0490  0.5264
   91SAPS     P 8823   0.357   3.071   6.064 -0.4530  0.1253  0.0035
   91SAPS   O13 8824   0.267   2.953   6.037  0.1865 -0.1102 -0.5461
   91SAPS   O14 8825   0.493   3.040   6.103  0.0791  0.4207 -0.0934
   91SAPS   O12 8826   0.366   3.177   5.943  0.4298 -0.3824  0.3691
   91SAPS   O11 8827   0.302   3.157   6.181  0.5872  0.4166 -0.3126
   91SAPS    C1 8828   0.170   3.219   6.181 -0.0982  0.2763  0.3421
   91SAPS    HA 8829   0.174   3.330   6.182  1.0429  0.2313  2.0596
   91SAPS    HB 8830   0.104   3.183   6.099 -2.1654 -1.1267  2.5808
   91SAPS    C2 8831   0.107   3.182   6.323  0.1357 -0.4373 -0.4551
   91SAPS    HS 8832   0.158   3.251   6.395  2.1334 -1.4183 -0.8984
   91SAPS   O21 8833   0.135   3.044   6.361 -0.0739 -0.3247  0.0375
   91SAPS   C21 8834   0.246   3.022   6.426  0.0501 -0.4217  0.2715
   91SAPS   O22 8835   0.323   3.111   6.465  0.4422 -0.6834  0.0227
   91SAPS   C22 8836   0.258   2.876   6.456  0.1184 -0.0958  0.7264
   91SAPS   H2R 8837   0.247   2.819   6.361  1.6076  0.0396  0.4524
   91SAPS   H2S 8838   0.366   2.854   6.473  0.0999 -1.3655 -0.6996
   91SAPS    C3 8839  -0.047   3.206   6.330  0.4864 -0.3612  0.2379
   91SAPS    HX 8840  -0.097   3.108   6.312  1.2784 -0.8064  0.4604
   91SAPS    HY 8841  -0.069   3.281   6.251 -0.4645  1.3097  2.0374
   91SAPS   O31 8842  -0.083   3.255   6.457  0.0736  0.6839  0.0747
   91SAPS   C31 8843  -0.210   3.303   6.462  0.6266 -0.3009  0.0482
   91SAPS   O32 8844  -0.278   3.311   6.362  0.3553 -0.1571  0.5481
   91SAPS   C32 8845  -0.264   3.302   6.603  0.0139 -0.5561 -0.0705
   91SAPS   H2X 8846  -0.254   3.406   6.642  0.7958 -1.0010  0.9290
   91SAPS   H2Y 8847  -0.210   3.233   6.672  1.4394  1.8766  1.3215
   91SAPS   C23 8848   0.176   2.818   6.572 -0.0669 -0.0144  0.1407
   91SAPS   H3R 8849   0.202   2.829   6.680  0.0227 -1.5744  0.2927
   91SAPS   H3S 8850   0.189   2.708   6.562  0.1264 -0.2638  2.7818
   91SAPS   C24 8851   0.023   2.815   6.543  0.5419  0.6051  0.6065
   91SAPS   H4R 8852   0.007   2.787   6.436 -1.3634  0.1061  1.0059
   91SAPS   H4S 8853  -0.011   2.919   6.559 -2.1155 -0.2383  0.5755
   91SAPS   C25 8854  -0.057   2.727   6.644 -0.3019  0.6485  0.5067
   91SAPS   H5R 8855  -0.040   2.619   6.633 -1.9286  0.4975 -0.7715
   91SAPS   C26 8856  -0.139   2.772   6.743 -0.4641  0.1169  0.3642
   91SAPS   H6R 8857  -0.171   2.706   6.825 -0.7981  1.3632  1.2477
   91SAPS   C27 8858  -0.171   2.911   6.778 -0.5860  0.1127 -0.7414
   91SAPS   H7R 8859  -0.281   2.928   6.786 -0.4567 -0.3431  2.5252
   91SAPS   H7S 8860  -0.131   2.981   6.702  1.0821 -0.6679 -0.5921
   91SAPS   C28 8861  -0.112   2.942   6.912 -0.3970  0.3656  0.2392
   91SAPS   H8R 8862  -0.150   2.872   6.988  1.6565  0.9343  1.8521
   91SAPS   C29 8863  -0.023   3.043   6.945 -0.3820 -0.2505 -0.2643
   91SAPS   H9R 8864   0.005   3.060   7.050  1.5670 -3.2296 -0.2708
   91SAPS  C210 8865   0.033   3.153   6.851 -0.6109  1.0079  0.4753
   91SAPS  H10R 8866   0.049   3.254   6.896  0.2025  1.4264 -0.7295
   91SAPS  H10S 8867  -0.049   3.172   6.777  0.9128 -1.2072 -1.8563
   91SAPS  C211 8868   0.154   3.125   6.773  0.1052  0.4234  0.0063
   91SAPS  H11R 8869   0.145   3.060   6.684 -2.0093  0.0908  0.4375
   91SAPS  C212 8870   0.275   3.174   6.797  0.0027  0.1951  0.7907
   91SAPS  H12R 8871   0.354   3.142   6.728 -0.3617  0.1156  0.4012
   91SAPS  C213 8872   0.329   3.264   6.906 -0.2110 -0.5079 -0.5824
   91SAPS  H13R 8873   0.259   3.343   6.941  0.5144 -0.0717 -0.1170
   91SAPS  H13S 8874   0.421   3.318   6.878 -0.3353 -1.6891 -3.4531
   91SAPS  C214 8875   0.360   3.178   7.030 -0.2804  0.4956 -0.1396
   91SAPS  H14R 8876   0.447   3.111   7.019 -0.4798  0.1722  0.2786
   91SAPS  C215 8877   0.288   3.181   7.141  0.1644  0.2475  0.5491
   91SAPS  H15R 8878   0.307   3.107   7.220 -0.6294  0.3397  0.8269
   91SAPS  C216 8879   0.168   3.270   7.171  0.4935  0.7786  0.4942
   91SAPS  H16R 8880   0.080   3.257   7.104  0.0302 -0.0615  1.2485
   91SAPS  H16S 8881   0.182   3.379   7.157  0.8058  0.6155 -0.5425
   91SAPS  C217 8882   0.103   3.251   7.307 -0.1057 -0.5848 -0.1371
   91SAPS  H17R 8883   0.058   3.150   7.314  2.4743 -1.6902  1.5310
   91SAPS  H17S 8884   0.018   3.322   7.308 -1.3577 -2.0604 -0.9584
   91SAPS  C218 8885   0.191   3.278   7.436  0.6324 -0.1203 -0.0834
   91SAPS  H18R 8886   0.214   3.386   7.421  3.0395 -0.6154 -0.1686
   91SAPS  H18S 8887   0.287   3.223   7.446 -0.4164 -1.6893  1.5197
   91SAPS  C219 8888   0.117   3.270   7.571  0.3284  0.2397  0.5413
   91SAPS  H19R 8889   0.086   3.163   7.577 -0.2514  0.1111 -3.5257
   91SAPS  H19S 8890   0.027   3.334   7.556 -1.2909 -1.8236  1.2397
   91SAPS  C220 8891   0.206   3.312   7.687  0.9449  0.5569 -0.4470
   91SAPS  H20R 8892   0.276   3.230   7.718 -1.7351 -1.5623  0.1813
   91SAPS  H20S 8893   0.137   3.341   7.768  1.2943 -1.3768  0.5932
   91SAPS  H20T 8894   0.263   3.405   7.666  0.8095  1.0780  1.4055
   91SAPS   C33 8895  -0.418   3.264   6.604  0.0506  0.3337 -0.3569
   91SAPS   H3X 8896  -0.420   3.157   6.573  0.9693 -0.2227  1.4511
   91SAPS   H3Y 8897  -0.475   3.328   6.532  0.9703 -0.1119 -1.4970
   91SAPS   C34 8898  -0.491   3.262   6.739 -0.1127 -0.3868 -0.8875
   91SAPS   H4X 8899  -0.453   3.183   6.807 -0.5855 -1.4375 -1.8154
   91SAPS   H4Y 8900  -0.600   3.256   6.716  0.1128 -4.0650 -1.2871
   91SAPS   C35 8901  -0.473   3.392   6.818  0.1519 -0.4384  0.1281
   91SAPS   H5X 8902  -0.513   3.485   6.771 -0.6248 -0.4748  0.6955
   91SAPS   H5Y 8903  -0.362   3.399   6.825  0.1651  2.0009 -1.8170
   91SAPS   C36 8904  -0.532   3.385   6.960  0.2875  0.4829  0.8844
   91SAPS   H6X 8905  -0.640   3.410   6.947  0.6352  1.1888 -0.7451
   91SAPS   H6Y 8906  -0.495   3.468   7.023 -1.3376  2.0034 -0.1043
   91SAPS   C37 8907  -0.512   3.249   7.024 -0.2982  0.5243  0.3767
   91SAPS   H7X 8908  -0.404   3.224   7.022  0.0930  1.7732  3.1722
   91SAPS   H7Y 8909  -0.570   3.175   6.964  0.3203 -0.7535  1.3175
   91SAPS   C38 8910  -0.569   3.250   7.168 -0.3612 -0.4562 -0.4712
   91SAPS   H8X 8911  -0.679   3.266   7.159 -0.4350 -0.0737  1.0272
   91SAPS   H8Y 8912  -0.532   3.338   7.226  0.2334 -0.8279 -0.2867
   91SAPS   C39 8913  -0.548   3.131   7.257 -0.4795 -0.9818 -0.2784
   91SAPS   H9X 8914  -0.607   3.040   7.231 -0.1519 -0.9953 -0.9838
   91SAPS   H9Y 8915  -0.599   3.155   7.353 -0.5469  0.5039 -0.6805
   91SAPS  C310 8916  -0.403   3.097   7.288 -0.4514 -0.0369 -0.8245
   91SAPS  H10X 8917  -0.360   3.196   7.316 -2.7734  0.9012 -0.4535
   91SAPS  H10Y 8918  -0.342   3.084   7.196  1.0338 -1.2049  0.2877
   91SAPS  C311 8919  -0.369   3.004   7.403  0.9360 -0.5549  0.5103
   91SAPS  H11X 8920  -0.259   3.000   7.418  1.1399 -1.3664 -1.0682
   91SAPS  H11Y 8921  -0.418   2.907   7.380  0.6776 -0.7384  1.7875
   91SAPS  C312 8922  -0.422   3.065   7.539 -0.5039  0.2081 -0.2102
   91SAPS  H12X 8923  -0.533   3.060   7.538 -0.4201 -1.7714 -1.1499
   91SAPS  H12Y 8924  -0.393   3.172   7.543 -1.7067  0.5983 -1.5598
   91SAPS  C313 8925  -0.366   3.010   7.675 -0.0670  0.2074  0.2131
   91SAPS  H13X 8926  -0.369   2.899   7.674 -2.2102  0.2547 -0.3348
   91SAPS  H13Y 8927  -0.431   3.054   7.753 -2.0418  1.7380 -2.2202
   91SAPS  C314 8928  -0.225   3.066   7.696 -0.8839  0.3622 -0.5923
   91SAPS  H14X 8929  -0.231   3.177   7.689  1.2280  0.4173 -2.1224
   91SAPS  H14Y 8930  -0.151   3.030   7.621  3.6586  2.2125  2.7811
   91SAPS  C315 8931  -0.165   3.046   7.839  0.3606 -0.8035 -0.0583
   91SAPS  H15X 8932  -0.158   2.935   7.847 -0.2356 -0.6698  2.8989
   91SAPS  H15Y 8933  -0.239   3.079   7.915  0.6730  2.3416 -1.0578
   91SAPS  C316 8934  -0.036   3.120   7.871  0.1977 -0.0876 -0.0096
   91SAPS  H16X 8935  -0.058   3.226   7.843  0.7575 -0.5276 -2.2270
   91SAPS  H16Y 8936   0.038   3.097   7.791 -1.0948  1.2894 -1.6520
   91SAPS  C317 8937   0.014   3.110   8.013 -0.2118  0.6269 -0.3062
   91SAPS  H17X 8938  -0.068   3.151   8.075 -0.2381 -1.3813  1.0492
   91SAPS  H17Y 8939   0.112   3.157   8.037 -0.9113  1.0452  1.8255
   91SAPS  C318 8940   0.059   2.971   8.061 -0.1223  0.2832 -0.8275
   91SAPS  H18X 8941   0.160   2.942   8.027  0.5397  1.3433  0.1907
   91SAPS  H18Y 8942  -0.014   2.888   8.046  1.0678 -1.0069  0.2706
   91SAPS  H18Z 8943   0.076   2.965   8.171 -2.1852 -0.3751 -0.5085
   92SAPS     N 8944   6.095   0.752   6.048  0.1578 -0.4440 -0.0152
   92SAPS   HN1 8945   6.022   0.815   6.007 -0.8597 -2.3199 -1.1571
   92SAPS   HN2 8946   6.116   0.677   5.979  2.1561 -1.1859  1.3777
   92SAPS   HN3 8947   6.064   0.703   6.134 -0.9041 -1.4732 -0.9718
   92SAPS   C12 8948   6.225   0.820   6.077 -0.2940 -0.6403  0.8308
   92SAPS  H12A 8949   6.308   0.754   6.058 -0.7124 -0.5662 -1.3752
   92SAPS   C13 8950   6.264   0.944   5.980  0.7470 -0.1930  0.3855
   92SAPS  O13A 8951   6.173   0.980   5.898  0.1149  0.2161  0.3607
   92SAPS  O13B 8952   6.372   0.997   5.983  0.1220 -0.1453  0.1781
   92SAPS   C11 8953   6.221   0.880   6.220 -0.2344  0.0870  0.2576
   92SAPS  H11A 8954   6.140   0.957   6.217 -1.2325 -0.9856 -2.5430
   92SAPS  H11B 8955   6.316   0.934   6.235 -0.0458  0.0794 -0.8786
   92SAPS     P 8956   6.129   0.810   6.449 -0.1514  0.4600  0.4711
   92SAPS   O13 8957   5.993   0.852   6.419 -0.6416 -0.3535 -0.0773
   92SAPS   O14 8958   6.150   0.705   6.551 -0.3112  0.0388 -0.2049
   92SAPS   O12 8959   6.202   0.773   6.315  0.0982 -0.6938 -0.1435
   92SAPS   O11 8960   6.207   0.947   6.489 -0.4327 -0.1132 -0.0358
   92SAPS    C1 8961   6.347   0.954   6.503 -0.0465 -0.5844 -0.0888
   92SAPS    HA 8962   6.408   0.921   6.416  0.4901 -1.5107  0.6298
   92SAPS    HB 8963   6.378   1.057   6.529  1.0850 -0.9521  0.0264
   92SAPS    C2 8964   6.402   0.879   6.625 -0.0000 -0.0760 -0.9636
   92SAPS    HS 8965   6.405   0.772   6.596 -0.4068 -0.5944  0.8399
   92SAPS   O21 8966   6.333   0.906   6.748  0.0694 -0.5987 -0.2986
   92SAPS   C21 8967   6.302   0.803   6.816  0.1104 -0.5251  0.3075
   92SAPS   O22 8968   6.350   0.690   6.799 -0.1160  0.3344  0.4637
   92SAPS   C22 8969   6.216   0.833   6.937 -0.7130  0.0985  0.4370
   92SAPS   H2R 8970   6.200   0.943   6.937  2.3191  0.6183 -2.1230
   92SAPS   H2S 8971   6.117   0.783   6.924 -0.7930  0.4237 -0.2118
   92SAPS    C3 8972   6.550   0.915   6.649  0.3673  0.1272 -0.0826
   92SAPS    HX 8973   6.547   1.025   6.663 -1.0132  0.0902 -0.0177
   92SAPS    HY 8974   6.615   0.905   6.559 -0.7998 -2.2859 -0.7125
   92SAPS   O31 8975   6.608   0.841   6.767  0.0923 -0.0636  0.6981
   92SAPS   C31 8976   6.661   0.725   6.732  0.3749  0.0846  0.5568
   92SAPS   O32 8977   6.656   0.673   6.620  0.3037  0.3546 -0.4499
   92SAPS   C32 8978   6.726   0.671   6.858  0.8936  0.0885  0.2929
   92SAPS   H2X 8979   6.825   0.721   6.856  0.5748  0.7297  0.5433
   92SAPS   H2Y 8980   6.745   0.563   6.837 -0.5932 -0.2720  0.7871
   92SAPS   C23 8981   6.286   0.785   7.064 -0.4408 -0.3395 -0.0761
   92SAPS   H3R 8982   6.387   0.830   7.061 -0.0215 -1.2402  0.2885
   92SAPS   H3S 8983   6.303   0.675   7.073  0.8879 -0.0878  0.6469
   92SAPS   C24 8984   6.218   0.826   7.200 -0.2302  0.1566  0.5171
   92SAPS   H4R 8985   6.238   0.935   7.211 -0.0042  0.1176  0.4881
   92SAPS   H4S 8986   6.285   0.780   7.275  0.9941 -2.3991 -2.0539
   92SAPS   C25 8987   6.074   0.776   7.214 -0.2251  0.0620 -0.3236
   92SAPS   H5R 8988   6.013   0.773   7.123 -0.9840  1.4235  0.1369
   92SAPS   C26 8989   6.013   0.729   7.328 -0.1494 -0.7980  0.2921
   92SAPS   H6R 8990   5.910   0.692   7.322 -0.1942 -0.4303 -1.3998
   92SAPS   C27 8991   6.072   0.709   7.471 -0.3788 -1.3394 -0.0587
   92SAPS   H7R 8992   6.002   0.772   7.531  2.0352 -0.0925  1.5195
   92SAPS   H7S 8993   6.177   0.744   7.479 -0.1998 -2.2706  2.2134
   92SAPS   C28 8994   6.071   0.569   7.519 -0.2305  0.4439 -0.3975
   92SAPS   H8R 8995   6.081   0.500   7.434  0.1365 -1.2494  0.9957
   92SAPS   C29 8996   6.065   0.532   7.649  0.7657 -0.1702  0.5162
   92SAPS   H9R 8997   6.079   0.427   7.678 -1.8426 -0.9405 -0.8811
   92SAPS  C210 8998   6.071   0.626   7.766  0.0718 -0.0567 -0.0273
   92SAPS  H10R 8999   5.973   0.671   7.793  0.5902  0.9732  0.1574
   92SAPS  H10S 9000   6.132   0.717   7.750 -0.3436  1.0978  4.1834
   92SAPS  C211 9001   6.125   0.558   7.889  0.1963  0.2420 -0.3457
   92SAPS  H11R 9002   6.235   0.547   7.889  0.3799  1.7887  1.8903
   92SAPS  C212 9003   6.057   0.498   7.989  0.4405 -0.5631  0.2521
   92SAPS  H12R 9004   6.108   0.457   8.077  1.8508  0.1536 -0.2172
   92SAPS  C213 9005   5.904   0.476   7.982 -0.3101 -0.5002  0.1213
   92SAPS  H13R 9006   5.891   0.384   7.921  0.5393  0.5983 -1.7305
   92SAPS  H13S 9007   5.846   0.555   7.931 -0.6683  1.1067  2.9031
   92SAPS  C214 9008   5.847   0.453   8.122  0.5523 -0.9588 -0.5821
   92SAPS  H14R 9009   5.862   0.539   8.188 -0.1708 -0.9898 -0.3834
   92SAPS  C215 9010   5.763   0.362   8.166  0.2635  0.4580  0.2074
   92SAPS  H15R 9011   5.726   0.359   8.269 -1.4471  0.7248 -0.3722
   92SAPS  C216 9012   5.709   0.244   8.086  0.1329 -0.2994  0.5464
   92SAPS  H16R 9013   5.783   0.162   8.072  2.2100  1.8537 -1.3670
   92SAPS  H16S 9014   5.687   0.273   7.981 -0.5155  0.8961  0.9980
   92SAPS  C217 9015   5.578   0.193   8.139 -0.1936  0.0349  0.1875
   92SAPS  H17R 9016   5.536   0.117   8.070  1.1870 -1.5715  1.0813
   92SAPS  H17S 9017   5.497   0.269   8.145  0.8599  1.1662  0.3416
   92SAPS  C218 9018   5.601   0.114   8.274  0.1132  0.8742  0.7382
   92SAPS  H18R 9019   5.622   0.190   8.353 -0.0156 -0.0785  1.6967
   92SAPS  H18S 9020   5.690   0.048   8.264 -0.0801  0.7970 -0.5131
   92SAPS  C219 9021   5.480   0.015   8.309 -0.5134 -0.0755  0.3446
   92SAPS  H19R 9022   5.466  -0.049   8.219 -1.3067  0.5358  0.0244
   92SAPS  H19S 9023   5.393   0.081   8.327 -1.8241 -1.1725 -1.7737
   92SAPS  C220 9024   5.514  -0.059   8.433  0.9139  0.2514 -1.0186
   92SAPS  H20R 9025   5.442  -0.141   8.450  0.0308  1.6789  2.5600
   92SAPS  H20S 9026   5.524   0.006   8.523  1.6246 -2.4428  0.8837
   92SAPS  H20T 9027   5.616  -0.099   8.415  0.7754 -0.8734  0.6418
   92SAPS   C33 9028   6.665   0.695   6.998  0.1241  0.5957 -0.1196
   92SAPS   H3X 9029   6.564   0.649   6.994 -0.5007  2.0873 -1.9176
   92SAPS   H3Y 9030   6.641   0.803   7.003  2.8591  1.2370  0.3504
   92SAPS   C34 9031   6.740   0.648   7.117  0.2166 -0.5753 -0.1588
   92SAPS   H4X 9032   6.835   0.705   7.115 -0.1079  0.0398  1.7291
   92SAPS   H4Y 9033   6.771   0.542   7.102 -0.6446 -0.9204  0.4854
   92SAPS   C35 9034   6.670   0.649   7.253  0.2550  0.4942  0.0504
   92SAPS   H5X 9035   6.747   0.627   7.330  1.2908  4.3232  0.2180
   92SAPS   H5Y 9036   6.587   0.576   7.244  0.7959 -0.1516  0.2903
   92SAPS   C36 9037   6.614   0.781   7.293  0.2176  1.1022 -0.8661
   92SAPS   H6X 9038   6.522   0.809   7.238 -0.3420 -1.0615 -1.0943
   92SAPS   H6Y 9039   6.686   0.861   7.267  0.3484  1.3744  0.2738
   92SAPS   C37 9040   6.572   0.773   7.443 -0.7410 -0.0381  0.8252
   92SAPS   H7X 9041   6.656   0.750   7.513  0.5109  1.6409 -0.0868
   92SAPS   H7Y 9042   6.497   0.693   7.456 -0.6064 -0.3541 -0.2888
   92SAPS   C38 9043   6.533   0.916   7.493 -0.2669 -0.1224 -0.5114
   92SAPS   H8X 9044   6.450   0.957   7.431 -0.9690  0.1059  0.5665
   92SAPS   H8Y 9045   6.621   0.984   7.488 -0.3943  0.4352  3.4133
   92SAPS   C39 9046   6.478   0.908   7.637 -0.4573 -0.1147  0.1808
   92SAPS   H9X 9047   6.532   0.835   7.700 -1.7203 -1.1082  0.1304
   92SAPS   H9Y 9048   6.377   0.863   7.637 -0.2003 -0.7894 -2.2750
   92SAPS  C310 9049   6.457   1.038   7.715  0.0415 -0.0880  0.3955
   92SAPS  H10X 9050   6.380   1.098   7.662  0.1353  0.8409  1.2852
   92SAPS  H10Y 9051   6.549   1.100   7.721  0.0199 -0.0743  0.5803
   92SAPS  C311 9052   6.419   1.010   7.862 -0.0102 -0.1861 -0.5532
   92SAPS  H11X 9053   6.445   1.095   7.929  1.4297  0.1517 -1.5208
   92SAPS  H11Y 9054   6.470   0.919   7.900  0.0257  0.1945  0.3152
   92SAPS  C312 9055   6.268   0.984   7.877 -0.0618  0.2517  0.1041
   92SAPS  H12X 9056   6.256   0.898   7.808  2.6089 -0.5842  0.5882
   92SAPS  H12Y 9057   6.209   1.071   7.842 -0.2795 -0.2258 -0.7354
   92SAPS  C313 9058   6.236   0.948   8.018 -0.3699 -0.5296 -0.3387
   92SAPS  H13X 9059   6.265   1.029   8.087 -0.9426 -0.0962 -0.6007
   92SAPS  H13Y 9060   6.292   0.860   8.057 -0.7783 -0.7548 -0.2553
   92SAPS  C314 9061   6.088   0.900   8.042  0.2294  0.9320  0.1291
   92SAPS  H14X 9062   6.084   0.796   8.003 -0.5068  1.7900 -2.1985
   92SAPS  H14Y 9063   6.027   0.964   7.974  0.3612 -1.5455 -2.4510
   92SAPS  C315 9064   6.041   0.898   8.186 -0.2099 -0.4653 -0.6014
   92SAPS  H15X 9065   6.079   0.996   8.223 -0.4293 -0.6113  0.0079
   92SAPS  H15Y 9066   6.081   0.810   8.240  1.2452  0.2825 -0.4125
   92SAPS  C316 9067   5.894   0.879   8.194 -0.0015  0.4422 -0.0992
   92SAPS  H16X 9068   5.876   0.807   8.111  0.7483  0.4012 -0.2292
   92SAPS  H16Y 9069   5.842   0.974   8.167 -0.1985 -0.1002 -1.7149
   92SAPS  C317 9070   5.836   0.815   8.327 -0.1067 -0.1583  0.7216
   92SAPS  H17X 9071   5.886   0.716   8.320 -0.1220 -0.0667 -0.8481
   92SAPS  H17Y 9072   5.726   0.801   8.319 -0.3791  1.2167  2.0265
   92SAPS  C318 9073   5.863   0.893   8.458 -0.6739 -0.6450  0.2838
   92SAPS  H18X 9074   5.796   0.982   8.457 -0.0960 -0.2166 -1.0629
   92SAPS  H18Y 9075   5.966   0.935   8.464 -0.4860 -0.8579 -1.3296
   92SAPS  H18Z 9076   5.839   0.840   8.553  1.6016  0.0393  1.2770
   93SAPS     N 9077   6.313   1.272   6.315  0.0640 -0.0688 -0.1872
   93SAPS   HN1 9078   6.384   1.197   6.306 -2.3459 -2.6100  0.9988
   93SAPS   HN2 9079   6.235   1.230   6.370  0.7177 -2.1367 -0.8087
   93SAPS   HN3 9080   6.275   1.303   6.224 -1.1449  0.0562  0.3486
   93SAPS   C12 9081   6.378   1.387   6.386 -0.4430  0.1968 -0.1932
   93SAPS  H12A 9082   6.463   1.421   6.329  0.3918  0.1508  1.0195
   93SAPS   C13 9083   6.286   1.507   6.385 -0.9937 -0.3070 -0.0046
   93SAPS  O13A 9084   6.184   1.509   6.313 -0.6619  0.1527 -0.0080
   93SAPS  O13B 9085   6.331   1.613   6.438  0.3102 -0.0376 -0.3032
   93SAPS   C11 9086   6.418   1.351   6.535  0.0597  1.0791 -0.7810
   93SAPS  H11A 9087   6.328   1.318   6.591  1.4519  0.0297  0.9323
   93SAPS  H11B 9088   6.449   1.446   6.584 -3.2626  1.0791  1.4666
   93SAPS     P 9089   6.670   1.275   6.520 -0.3319  0.3214  0.2471
   93SAPS   O13 9090   6.748   1.149   6.543 -0.3964 -0.1499  0.1818
   93SAPS   O14 9091   6.680   1.341   6.391 -0.2467  0.7901  0.4939
   93SAPS   O12 9092   6.514   1.243   6.542 -0.3873 -0.9038  0.4426
   93SAPS   O11 9093   6.707   1.381   6.631 -0.3252 -0.5933 -0.4432
   93SAPS    C1 9094   6.698   1.348   6.770  0.4732  0.0257  0.3902
   93SAPS    HA 9095   6.600   1.377   6.813 -0.6374 -0.4453 -1.7445
   93SAPS    HB 9096   6.708   1.238   6.781  1.1006  0.0971  0.5063
   93SAPS    C2 9097   6.813   1.415   6.853  0.6238  0.4755 -0.1219
   93SAPS    HS 9098   6.798   1.384   6.958 -1.2350 -1.1315 -0.8174
   93SAPS   O21 9099   6.814   1.556   6.819  0.2954  0.2072  0.4139
   93SAPS   C21 9100   6.764   1.640   6.915 -0.3451  0.6101 -0.9436
   93SAPS   O22 9101   6.731   1.601   7.022  0.0288 -0.2423 -0.0047
   93SAPS   C22 9102   6.782   1.771   6.849  0.4712 -0.0687 -0.2455
   93SAPS   H2R 9103   6.885   1.778   6.808 -0.4613 -0.1123 -2.6951
   93SAPS   H2S 9104   6.709   1.776   6.766 -0.9515  0.4618  1.0224
   93SAPS    C3 9105   6.950   1.345   6.816  0.2877  0.3312 -0.0027
   93SAPS    HX 9106   7.025   1.413   6.863  0.4013 -0.1991  0.5884
   93SAPS    HY 9107   6.962   1.348   6.706 -0.9357 -0.9291 -0.1802
   93SAPS   O31 9108   6.959   1.213   6.870  0.0688 -0.2061  0.1795
   93SAPS   C31 9109   7.022   1.201   6.994 -0.2574  0.1681 -0.2678
   93SAPS   O32 9110   7.077   1.292   7.048  0.1147  0.2936 -0.2587
   93SAPS   C32 9111   6.997   1.060   7.052 -0.7163 -0.3708  0.7562
   93SAPS   H2X 9112   6.996   0.982   6.973  1.4101  0.8097 -0.5036
   93SAPS   H2Y 9113   6.896   1.060   7.098 -1.3896  2.4957 -0.5803
   93SAPS   C23 9114   6.780   1.882   6.961 -0.3152  0.6475  0.0756
   93SAPS   H3R 9115   6.865   1.871   7.032  1.6452  1.5555 -2.0482
   93SAPS   H3S 9116   6.692   1.874   7.028 -0.1283 -1.8571  0.0626
   93SAPS   C24 9117   6.787   2.027   6.912 -0.8036  0.1529  0.8548
   93SAPS   H4R 9118   6.872   2.035   6.841 -0.3342 -2.5037  1.0909
   93SAPS   H4S 9119   6.810   2.095   6.997  0.8876  0.0709  0.4699
   93SAPS   C25 9120   6.665   2.065   6.831 -0.8722 -0.2112  0.1742
   93SAPS   H5R 9121   6.647   2.006   6.740 -0.6464 -2.9939  1.8689
   93SAPS   C26 9122   6.587   2.173   6.847 -0.2550 -1.1391  0.0477
   93SAPS   H6R 9123   6.511   2.194   6.770 -0.7649  0.5481  1.0039
   93SAPS   C27 9124   6.596   2.282   6.962 -0.1090 -0.0490 -0.4175
   93SAPS   H7R 9125   6.612   2.383   6.919 -0.5756  0.2907  0.2100
   93SAPS   H7S 9126   6.670   2.259   7.041  1.2617  0.6530 -1.4634
   93SAPS   C28 9127   6.462   2.278   7.029 -0.3434 -0.8188  0.1703
   93SAPS   H8R 9128   6.381   2.260   6.956 -0.6936  1.1225  0.0634
   93SAPS   C29 9129   6.436   2.278   7.161  0.1691  0.4989  0.5981
   93SAPS   H9R 9130   6.333   2.261   7.197  0.2829  0.9712  1.1520
   93SAPS  C210 9131   6.537   2.269   7.273 -0.0677 -0.4155 -0.5105
   93SAPS  H10R 9132   6.500   2.335   7.355 -0.3098  0.8379 -1.6110
   93SAPS  H10S 9133   6.633   2.313   7.238 -0.8350  1.7600  0.0497
   93SAPS  C211 9134   6.589   2.141   7.329  0.0772 -0.4558  0.6681
   93SAPS  H11R 9135   6.574   2.061   7.255  0.2676 -1.6515  1.9000
   93SAPS  C212 9136   6.650   2.110   7.444 -0.3181 -0.3834 -0.1103
   93SAPS  H12R 9137   6.694   2.009   7.439 -0.0707 -0.3008  0.3238
   93SAPS  C213 9138   6.690   2.192   7.563  0.1827 -0.4765 -0.2166
   93SAPS  H13R 9139   6.678   2.301   7.545  1.4536 -0.1123  1.0735
   93SAPS  H13S 9140   6.796   2.174   7.592  0.4528  1.3229 -0.0262
   93SAPS  C214 9141   6.595   2.151   7.669  0.3694 -0.7135 -0.0983
   93SAPS  H14R 9142   6.498   2.203   7.663 -0.1450 -1.7604 -1.0438
   93SAPS  C215 9143   6.608   2.061   7.766 -0.5224  0.2654 -0.8092
   93SAPS  H15R 9144   6.522   2.037   7.831 -0.2484 -0.4141 -0.6979
   93SAPS  C216 9145   6.734   1.990   7.796  0.3740 -0.0977 -0.0449
   93SAPS  H16R 9146   6.816   2.016   7.725 -2.2901  1.0973 -2.7890
   93SAPS  H16S 9147   6.712   1.882   7.782 -1.3186  0.1036  1.0125
   93SAPS  C217 9148   6.796   2.017   7.936  0.3663 -0.4939  0.9035
   93SAPS  H17R 9149   6.801   2.128   7.948 -0.7102 -0.3217 -0.1900
   93SAPS  H17S 9150   6.898   1.974   7.939  0.3336 -0.6169  0.2799
   93SAPS  C218 9151   6.707   1.956   8.046  0.2836  0.6587 -0.1889
   93SAPS  H18R 9152   6.723   1.847   8.052  0.8199  0.6376 -1.9649
   93SAPS  H18S 9153   6.603   1.983   8.015 -0.4097 -1.8070 -0.1054
   93SAPS  C219 9154   6.729   2.020   8.186 -0.0141  0.4190 -0.0410
   93SAPS  H19R 9155   6.824   1.983   8.231  1.4987  0.6182 -2.9826
   93SAPS  H19S 9156   6.650   1.973   8.248  0.3764 -0.8641 -0.5114
   93SAPS  C220 9157   6.721   2.180   8.191 -0.0213 -0.9572  0.1662
   93SAPS  H20R 9158   6.809   2.231   8.147 -0.6462 -1.2613 -1.4812
   93SAPS  H20S 9159   6.713   2.210   8.298  0.0199 -0.1954 -0.0395
   93SAPS  H20T 9160   6.628   2.209   8.137 -0.1602 -0.3320  0.7375
   93SAPS   C33 9161   7.095   1.022   7.162 -0.0377 -0.1409  0.0409
   93SAPS   H3X 9162   7.106   1.099   7.241 -0.8263  0.9460 -0.8882
   93SAPS   H3Y 9163   7.195   1.013   7.116 -0.7530 -2.1625 -1.2033
   93SAPS   C34 9164   7.052   0.894   7.218  0.0353  0.8233 -0.4431
   93SAPS   H4X 9165   7.054   0.824   7.132  0.1288  0.2227  0.0415
   93SAPS   H4Y 9166   6.944   0.891   7.246 -0.2549  1.0042 -1.5119
   93SAPS   C35 9167   7.136   0.840   7.339  0.9246 -0.6717  0.2558
   93SAPS   H5X 9168   7.245   0.841   7.321  0.6484 -1.0707 -1.5266
   93SAPS   H5Y 9169   7.106   0.734   7.352 -0.2984 -0.5741 -1.6198
   93SAPS   C36 9170   7.111   0.912   7.475  0.1342  0.6840  0.9221
   93SAPS   H6X 9171   7.127   1.022   7.463 -1.8460  1.2391  2.8485
   93SAPS   H6Y 9172   7.183   0.870   7.548  1.5812  0.3185 -0.6753
   93SAPS   C37 9173   6.984   0.876   7.546  0.7390 -0.1506 -0.0895
   93SAPS   H7X 9174   6.983   0.764   7.545  3.6436 -0.3506  3.9724
   93SAPS   H7Y 9175   6.893   0.916   7.497 -0.7215  0.5094  3.0349
   93SAPS   C38 9176   6.982   0.924   7.691 -0.3493 -0.0429  0.2812
   93SAPS   H8X 9177   6.959   1.033   7.699 -0.2456  0.0257 -0.3077
   93SAPS   H8Y 9178   7.081   0.919   7.741 -0.1804  0.1358 -0.0356
   93SAPS   C39 9179   6.859   0.856   7.760  0.1514  0.2570  0.2405
   93SAPS   H9X 9180   6.845   0.751   7.728 -0.6332  0.0496  1.2612
   93SAPS   H9Y 9181   6.772   0.911   7.720 -0.2504 -0.7053 -0.2002
   93SAPS  C310 9182   6.872   0.876   7.912  0.3209 -0.1410 -0.3691
   93SAPS  H10X 9183   6.918   0.975   7.932 -2.8774  1.3323  0.0452
   93SAPS  H10Y 9184   6.930   0.794   7.960  2.1312  0.8682 -0.7856
   93SAPS  C311 9185   6.730   0.880   7.973  0.1980 -0.0617  0.2904
   93SAPS  H11X 9186   6.675   0.800   7.919 -0.8832  0.9254 -0.0942
   93SAPS  H11Y 9187   6.683   0.975   7.941  0.2640 -0.4072 -0.8653
   93SAPS  C312 9188   6.723   0.842   8.124  0.0764 -0.1623 -0.2877
   93SAPS  H12X 9189   6.757   0.928   8.186  1.8752 -0.7797 -0.3729
   93SAPS  H12Y 9190   6.788   0.754   8.145  1.7596  1.2976  0.7194
   93SAPS  C313 9191   6.572   0.816   8.158 -0.3358 -0.4230  1.1831
   93SAPS  H13X 9192   6.541   0.725   8.102 -0.0246 -0.0899  0.4574
   93SAPS  H13Y 9193   6.508   0.901   8.126 -1.2381 -1.6052 -0.2672
   93SAPS  C314 9194   6.549   0.792   8.303 -0.0854  0.8980  0.0801
   93SAPS  H14X 9195   6.597   0.870   8.367 -1.0248  0.8253  0.8896
   93SAPS  H14Y 9196   6.593   0.697   8.340 -1.0783 -0.1200 -1.3190
   93SAPS  C315 9197   6.402   0.790   8.344 -0.5288  0.2539  0.2044
   93SAPS  H15X 9198   6.356   0.709   8.284  0.5608 -1.8978  2.1627
   93SAPS  H15Y 9199   6.356   0.887   8.318 -0.2247  0.5837  0.8712
   93SAPS  C316 9200   6.391   0.750   8.496 -0.4688  0.0271 -0.1841
   93SAPS  H16X 9201   6.454   0.826   8.548 -0.2690 -0.7786  0.7728
   93SAPS  H16Y 9202   6.434   0.651   8.519  1.5495  0.2878 -2.6499
   93SAPS  C317 9203   6.254   0.772   8.561 -0.0188 -0.2203  0.6021
   93SAPS  H17X 9204   6.226   0.867   8.510  2.7351 -0.7446 -2.0216
   93SAPS  H17Y 9205   6.265   0.791   8.670  1.5835  1.1634  0.2119
   93SAPS  C318 9206   6.144   0.657   8.538  0.2198  0.0443 -0.1301
   93SAPS  H18X 9207   6.191   0.564   8.577 -2.4868 -0.1070  2.9564
   93SAPS  H18Y 9208   6.106   0.647   8.434  2.0762 -1.6009 -0.6847
   93SAPS  H18Z 9209   6.055   0.679   8.600  0.1347 -2.6740  0.7948
   94SAPS     N 9210   0.532   3.985   5.841  0.1029 -0.0325  0.0687
   94SAPS   HN1 9211   0.505   4.003   5.742 -0.0107 -1.1570 -0.1027
   94SAPS   HN2 9212   0.636   3.975   5.833  0.2034  1.3573 -0.6497
   94SAPS   HN3 9213   0.481   3.904   5.879  1.3019  0.2472  2.3664
   94SAPS   C12 9214   0.499   4.102   5.920 -0.2540 -0.1442 -0.3085
   94SAPS  H12A 9215   0.522   4.075   6.022 -0.0739 -2.9640 -1.0611
   94SAPS   C13 9216   0.574   4.236   5.882  0.0455 -0.2667  0.3039
   94SAPS  O13A 9217   0.658   4.241   5.786 -0.2142  0.1357 -0.0960
   94SAPS  O13B 9218   0.555   4.340   5.950 -0.0405  0.1065  0.2077
   94SAPS   C11 9219   0.339   4.141   5.913  0.0936  0.4932  0.3630
   94SAPS  H11A 9220   0.314   4.163   5.807 -0.1185 -1.6971 -0.0668
   94SAPS  H11B 9221   0.331   4.229   5.980 -0.9663  0.5781  0.1231
   94SAPS     P 9222   0.134   3.989   5.917  0.0929  0.2562 -0.0581
   94SAPS   O13 9223   0.059   4.113   5.882  0.1297 -0.4180 -0.6583
   94SAPS   O14 9224   0.141   3.883   5.807 -0.1666  0.6685 -0.4800
   94SAPS   O12 9225   0.276   4.028   5.966 -0.2145  0.0883  0.1821
   94SAPS   O11 9226   0.055   3.924   6.042  0.0215 -0.0362 -0.3398
   94SAPS    C1 9227   0.111   3.827   6.130 -0.2009  0.2897 -0.5952
   94SAPS    HA 9228   0.034   3.783   6.197  1.6614 -1.2129  0.6142
   94SAPS    HB 9229   0.138   3.736   6.072 -1.0759 -0.3413 -0.0229
   94SAPS    C2 9230   0.227   3.878   6.227  0.3419 -0.2368  0.4048
   94SAPS    HS 9231   0.323   3.885   6.173  0.4849  1.1528  0.8162
   94SAPS   O21 9232   0.236   3.778   6.335 -0.2183 -0.9104 -0.9869
   94SAPS   C21 9233   0.344   3.781   6.401  0.3402  0.1865  0.2059
   94SAPS   O22 9234   0.449   3.840   6.376  0.0031  0.3892 -0.2725
   94SAPS   C22 9235   0.315   3.721   6.539  0.5933  0.6397 -0.1940
   94SAPS   H2R 9236   0.228   3.769   6.589 -0.4008 -1.5313  0.2328
   94SAPS   H2S 9237   0.291   3.614   6.522 -1.3125  1.0559 -0.2490
   94SAPS    C3 9238   0.192   4.023   6.275 -1.0497  1.1095  0.4036
   94SAPS    HX 9239   0.081   4.019   6.283 -1.2682 -0.6525 -2.7177
   94SAPS    HY 9240   0.229   4.088   6.194 -1.2840  1.4242  0.5509
   94SAPS   O31 9241   0.263   4.061   6.401 -0.5681 -0.5603  0.1028
   94SAPS   C31 9242   0.179   4.084   6.511 -0.1773 -0.3196 -0.0936
   94SAPS   O32 9243   0.063   4.067   6.507 -0.0584 -0.3982 -0.0016
   94SAPS   C32 9244   0.251   4.129   6.640 -0.4452 -0.8158  0.1191
   94SAPS   H2X 9245   0.260   4.239   6.627 -3.7725 -0.5485 -0.2053
   94SAPS   H2Y 9246   0.347   4.074   6.648  0.0098  0.0532  0.7889
   94SAPS   C23 9247   0.434   3.734   6.634 -0.4136  0.9722  0.0786
   94SAPS   H3R 9248   0.452   3.841   6.658 -0.1524  0.6127  1.5762
   94SAPS   H3S 9249   0.522   3.688   6.585 -0.9947 -0.2438  0.1605
   94SAPS   C24 9250   0.414   3.661   6.770 -0.2240  0.1434  0.0932
   94SAPS   H4R 9251   0.430   3.554   6.744 -0.2192  0.7500 -2.6021
   94SAPS   H4S 9252   0.310   3.683   6.804 -0.3039  1.0908 -0.7279
   94SAPS   C25 9253   0.520   3.688   6.873 -0.0366  0.3152 -0.2271
   94SAPS   H5R 9254   0.620   3.711   6.834  0.3960 -0.6936  0.2825
   94SAPS   C26 9255   0.493   3.681   7.008 -0.1755  0.8346 -0.5943
   94SAPS   H6R 9256   0.573   3.698   7.082 -0.1162 -1.7770 -0.0115
   94SAPS   C27 9257   0.358   3.658   7.078  0.2737 -0.0047 -0.8458
   94SAPS   H7R 9258   0.315   3.570   7.025 -0.8977 -0.6185  1.0871
   94SAPS   H7S 9259   0.292   3.742   7.047  0.7961  0.0848 -1.7406
   94SAPS   C28 9260   0.351   3.650   7.228 -0.2844 -0.2496 -0.5439
   94SAPS   H8R 9261   0.277   3.714   7.278  1.0673 -0.1783  1.4479
   94SAPS   C29 9262   0.419   3.567   7.309  0.1148 -0.4164  0.5309
   94SAPS   H9R 9263   0.396   3.568   7.417  0.3149 -3.2919  0.6504
   94SAPS  C210 9264   0.525   3.474   7.253  0.2107  0.8452  0.1438
   94SAPS  H10R 9265   0.616   3.521   7.209  0.1681  1.6142  0.8744
   94SAPS  H10S 9266   0.478   3.420   7.167  0.6196  1.7968 -0.6951
   94SAPS  C211 9267   0.559   3.369   7.357 -0.1468 -0.8960  0.1387
   94SAPS  H11R 9268   0.503   3.275   7.362  2.4486 -2.4060  1.6512
   94SAPS  C212 9269   0.646   3.387   7.456 -0.1750  0.1189 -0.3805
   94SAPS  H12R 9270   0.669   3.307   7.527  0.7751  2.0870  1.5763
   94SAPS  C213 9271   0.721   3.519   7.484  0.2310 -0.1140  0.2459
   94SAPS  H13R 9272   0.738   3.575   7.390  0.1173 -1.3943 -0.5550
   94SAPS  H13S 9273   0.825   3.489   7.509  0.0854  1.0786  2.3182
   94SAPS  C214 9274   0.641   3.601   7.587 -0.2380  0.6962  0.5202
   94SAPS  H14R 9275   0.567   3.676   7.554 -0.5803 -0.1612 -0.7071
   94SAPS  C215 9276   0.646   3.590   7.724 -0.3823 -0.0040  0.2316
   94SAPS  H15R 9277   0.587   3.668   7.774 -0.3892  0.3709 -0.3668
   94SAPS  C216 9278   0.731   3.490   7.799  1.5622 -0.2035 -0.3728
   94SAPS  H16R 9279   0.825   3.479   7.741  1.0242 -1.9986 -0.9658
   94SAPS  H16S 9280   0.689   3.387   7.808  1.0160 -0.2217 -2.7508
   94SAPS  C217 9281   0.754   3.550   7.938 -0.2484 -0.1568  0.9913
   94SAPS  H17R 9282   0.654   3.569   7.982 -0.5240  0.5786  0.0738
   94SAPS  H17S 9283   0.805   3.648   7.929 -2.0450  0.6632 -0.6435
   94SAPS  C218 9284   0.830   3.462   8.035 -0.0344  0.8316 -0.4955
   94SAPS  H18R 9285   0.938   3.469   8.011  0.4050  0.7118  1.3324
   94SAPS  H18S 9286   0.797   3.358   8.054 -0.6620  1.1113 -0.0371
   94SAPS  C219 9287   0.835   3.519   8.182  0.3521 -0.0799 -0.4416
   94SAPS  H19R 9288   0.730   3.528   8.218  0.6615  1.3527  0.1317
   94SAPS  H19S 9289   0.870   3.625   8.177 -0.8949  0.3753  0.3897
   94SAPS  C220 9290   0.926   3.445   8.273  0.3506  0.0604  0.1350
   94SAPS  H20R 9291   1.029   3.428   8.234  0.7063 -0.4942  1.2963
   94SAPS  H20S 9292   0.879   3.349   8.302  0.5682 -0.2485 -0.5268
   94SAPS  H20T 9293   0.948   3.498   8.368 -0.0436  1.5905 -0.6204
   94SAPS   C33 9294   0.171   4.097   6.771 -0.0346  0.0149  0.2683
   94SAPS   H3X 9295   0.181   3.989   6.794  2.5012 -0.0246 -0.8874
   94SAPS   H3Y 9296   0.062   4.114   6.758  0.0426  2.7467  2.6837
   94SAPS   C34 9297   0.217   4.183   6.891 -0.4421 -0.3110  0.2248
   94SAPS   H4X 9298   0.204   4.292   6.870 -1.0024 -0.5521 -0.6800
   94SAPS   H4Y 9299   0.327   4.175   6.906 -0.2288  0.9060 -0.6392
   94SAPS   C35 9300   0.148   4.146   7.020  0.8084 -0.3200 -0.1571
   94SAPS   H5X 9301   0.039   4.138   7.000  0.3745 -0.5027  2.1093
   94SAPS   H5Y 9302   0.158   4.227   7.096  0.8953  0.1258 -0.6366
   94SAPS   C36 9303   0.193   4.012   7.074 -0.4409  0.2890 -0.4078
   94SAPS   H6X 9304   0.304   4.007   7.064 -0.6108 -0.8950 -2.0259
   94SAPS   H6Y 9305   0.147   3.926   7.021  0.4049  0.4791 -1.4779
   94SAPS   C37 9306   0.160   3.993   7.224  0.0838 -0.0428  0.3960
   94SAPS   H7X 9307   0.205   4.072   7.287  1.6619 -0.9815  0.4654
   94SAPS   H7Y 9308   0.216   3.903   7.256  1.3306  0.9211  0.9772
   94SAPS   C38 9309   0.011   3.989   7.264 -0.3015  0.3964  0.0866
   94SAPS   H8X 9310  -0.051   3.915   7.209 -1.2572  1.6890 -0.5943
   94SAPS   H8Y 9311  -0.015   4.095   7.244  2.1652  1.0519  0.2087
   94SAPS   C39 9312  -0.018   3.978   7.413 -0.3088  0.0353 -0.9130
   94SAPS   H9X 9313  -0.126   3.988   7.435 -0.4354 -1.2189 -0.9349
   94SAPS   H9Y 9314   0.027   4.058   7.476  3.4166 -2.8457  0.2918
   94SAPS  C310 9315   0.023   3.845   7.473  0.4458  0.1157 -0.0558
   94SAPS  H10X 9316   0.133   3.848   7.489  0.4781 -0.7267 -0.0849
   94SAPS  H10Y 9317  -0.006   3.753   7.417 -0.2967  1.8522 -2.5503
   94SAPS  C311 9318  -0.027   3.825   7.619 -0.9055 -0.2806 -0.2060
   94SAPS  H11X 9319  -0.137   3.807   7.624 -0.5353 -2.4358  0.6551
   94SAPS  H11Y 9320  -0.004   3.916   7.679  2.6416 -0.6595 -0.9188
   94SAPS  C312 9321   0.053   3.714   7.687  0.8187  0.3174  0.0561
   94SAPS  H12X 9322   0.161   3.733   7.667  1.2348 -1.4029  0.5996
   94SAPS  H12Y 9323   0.033   3.619   7.633 -1.3944  1.2548 -0.8450
   94SAPS  C313 9324   0.023   3.694   7.836 -0.8627 -0.1288 -0.2965
   94SAPS  H13X 9325   0.030   3.794   7.885 -0.4183  0.8981 -2.4078
   94SAPS  H13Y 9326   0.098   3.632   7.890  1.4900  1.8211 -1.2521
   94SAPS  C314 9327  -0.111   3.620   7.862  0.2082 -0.2274  1.0322
   94SAPS  H14X 9328  -0.092   3.516   7.827  0.6039  0.4886 -0.9051
   94SAPS  H14Y 9329  -0.185   3.673   7.799 -0.1563 -0.6807  1.0729
   94SAPS  C315 9330  -0.170   3.621   8.003  0.2076 -0.3394 -0.5012
   94SAPS  H15X 9331  -0.270   3.572   8.004  0.2795 -0.5121  2.0188
   94SAPS  H15Y 9332  -0.188   3.728   8.029 -3.6510 -0.8750 -0.7653
   94SAPS  C316 9333  -0.085   3.548   8.112  1.2330  0.4079 -1.1950
   94SAPS  H16X 9334   0.023   3.573   8.105  1.9908 -2.1594  0.5519
   94SAPS  H16Y 9335  -0.093   3.442   8.080 -3.2785  0.5894 -1.0499
   94SAPS  C317 9336  -0.144   3.550   8.254 -0.7064 -0.3147  0.1539
   94SAPS  H17X 9337  -0.082   3.476   8.309 -1.1406  0.2860  1.4567
   94SAPS  H17Y 9338  -0.250   3.519   8.265 -0.7498 -0.1944  0.0669
   94SAPS  C318 9339  -0.139   3.694   8.322  0.8415  0.1312 -0.1773
   94SAPS  H18X 9340  -0.063   3.758   8.272 -1.3849 -1.0936 -5.4152
   94SAPS  H18Y 9341  -0.112   3.686   8.430 -0.8679  0.8146  0.3207
   94SAPS  H18Z 9342  -0.238   3.746   8.329  0.7115 -0.3353  1.7144
   95SAPS     N 9343   3.375   1.010   6.079  0.0395  0.2530  0.1231
   95SAPS   HN1 9344   3.396   1.043   6.175 -1.1890  2.7614 -0.4447
   95SAPS   HN2 9345   3.402   1.076   6.004 -1.6199  1.3016  0.4116
   95SAPS   HN3 9346   3.274   0.994   6.062  0.5941 -1.1575 -2.0074
   95SAPS   C12 9347   3.439   0.871   6.054 -0.5656 -0.1947 -0.4960
   95SAPS  H12A 9348   3.381   0.804   6.116  1.9889 -0.8131  1.3227
   95SAPS   C13 9349   3.427   0.824   5.911 -0.3459  0.6488  0.7573
   95SAPS  O13A 9350   3.398   0.905   5.816  0.4126 -0.0221 -0.3710
   95SAPS  O13B 9351   3.482   0.716   5.877  0.1603  0.6119  0.0603
   95SAPS   C11 9352   3.591   0.871   6.088  0.3795  0.1667 -0.0585
   95SAPS  H11A 9353   3.651   0.947   6.033 -0.9489  2.0926  1.1028
   95SAPS  H11B 9354   3.630   0.770   6.063 -1.4494 -0.4410 -0.5267
   95SAPS     P 9355   3.654   1.021   6.285 -0.1995  0.1671  0.2238
   95SAPS   O13 9356   3.753   1.087   6.202 -0.9311  0.8167 -0.5180
   95SAPS   O14 9357   3.522   1.089   6.304 -0.1568  0.2881  0.6717
   95SAPS   O12 9358   3.623   0.880   6.225  0.1598 -0.4105 -0.1015
   95SAPS   O11 9359   3.722   0.981   6.417  0.2985  0.2026 -0.2757
   95SAPS    C1 9360   3.658   0.901   6.517  0.1957  0.0624 -0.0368
   95SAPS    HA 9361   3.570   0.847   6.474  1.0585 -2.1728  0.9242
   95SAPS    HB 9362   3.730   0.826   6.556  0.2875  1.4406  2.5096
   95SAPS    C2 9363   3.609   0.984   6.633  0.0289  0.1590  0.0133
   95SAPS    HS 9364   3.571   1.081   6.594 -1.6056 -1.4982 -2.7497
   95SAPS   O21 9365   3.709   0.991   6.730  0.0063 -1.0415 -0.1181
   95SAPS   C21 9366   3.710   1.101   6.820  0.6625 -0.1054  0.2930
   95SAPS   O22 9367   3.633   1.196   6.810 -0.4211  0.5501  0.2778
   95SAPS   C22 9368   3.807   1.074   6.936  0.5714 -0.6413  0.8671
   95SAPS   H2R 9369   3.821   0.965   6.951 -0.9230 -0.9847 -0.1391
   95SAPS   H2S 9370   3.899   1.122   6.894  0.0998 -0.0435  0.5042
   95SAPS    C3 9371   3.478   0.929   6.689  0.5155  0.0658  0.7000
   95SAPS    HX 9372   3.501   0.832   6.738 -1.4409 -1.2488 -0.9114
   95SAPS    HY 9373   3.422   0.912   6.595  1.7764 -1.5755  0.2037
   95SAPS   O31 9374   3.416   1.023   6.781 -0.1995  0.0168  0.2089
   95SAPS   C31 9375   3.339   1.120   6.735 -0.2913  0.2539 -0.0384
   95SAPS   O32 9376   3.292   1.132   6.624 -0.1691  0.2036  0.1967
   95SAPS   C32 9377   3.303   1.214   6.849  0.3322 -0.2964 -1.5354
   95SAPS   H2X 9378   3.379   1.294   6.862 -0.5012  0.5875 -2.0796
   95SAPS   H2Y 9379   3.310   1.152   6.941 -0.1610  0.0292 -1.2776
   95SAPS   C23 9380   3.777   1.152   7.065 -0.3188 -0.0911 -0.1754
   95SAPS   H3R 9381   3.748   1.260   7.063 -0.3968 -0.1164 -0.4762
   95SAPS   H3S 9382   3.871   1.164   7.123 -0.6514 -2.2814  0.8453
   95SAPS   C24 9383   3.688   1.072   7.159  0.3359 -0.1697 -0.2137
   95SAPS   H4R 9384   3.686   1.115   7.262  3.1553 -0.4574 -0.0192
   95SAPS   H4S 9385   3.740   0.974   7.158 -0.2763 -0.4937 -0.7502
   95SAPS   C25 9386   3.541   1.057   7.117  0.7477  0.1365 -0.4126
   95SAPS   H5R 9387   3.518   1.085   7.013  2.1720  0.5075 -0.6353
   95SAPS   C26 9388   3.451   0.995   7.196  0.2950 -0.1880  0.0807
   95SAPS   H6R 9389   3.350   0.973   7.158  0.3048  1.2188 -0.7985
   95SAPS   C27 9390   3.472   0.958   7.336  0.3927 -0.2505 -0.2204
   95SAPS   H7R 9391   3.579   0.970   7.365  0.3034  1.2645 -0.5194
   95SAPS   H7S 9392   3.446   0.850   7.344  1.2999 -0.4364  0.3949
   95SAPS   C28 9393   3.401   1.038   7.453  0.3768  0.3643  0.4413
   95SAPS   H8R 9394   3.328   1.114   7.422  0.7149  0.5765  0.1557
   95SAPS   C29 9395   3.440   1.043   7.582  0.0383  0.7635 -0.0956
   95SAPS   H9R 9396   3.393   1.113   7.652  0.7660  2.1321 -0.9582
   95SAPS  C210 9397   3.561   0.974   7.637 -0.2649 -1.2415 -0.2954
   95SAPS  H10R 9398   3.574   0.871   7.597  1.8288 -0.0193 -2.8751
   95SAPS  H10S 9399   3.544   0.947   7.744  0.6586  1.7078  0.6195
   95SAPS  C211 9400   3.691   1.053   7.619  0.0741  0.7177 -0.1495
   95SAPS  H11R 9401   3.731   1.076   7.519 -1.0637 -0.4026 -0.8858
   95SAPS  C212 9402   3.769   1.099   7.722 -0.9356 -0.3175  0.5698
   95SAPS  H12R 9403   3.864   1.145   7.692 -0.7740 -1.4922 -0.8224
   95SAPS  C213 9404   3.745   1.069   7.863  0.2383 -0.5757  0.0647
   95SAPS  H13R 9405   3.735   0.960   7.881  1.1805 -0.8453 -1.0223
   95SAPS  H13S 9406   3.645   1.113   7.885  0.0828 -0.4470 -0.8676
   95SAPS  C214 9407   3.846   1.132   7.963  0.0651 -0.1517  0.5986
   95SAPS  H14R 9408   3.927   1.190   7.916  2.3491 -0.7091  3.6929
   95SAPS  C215 9409   3.834   1.130   8.092 -0.3551 -0.6702  0.7571
   95SAPS  H15R 9410   3.901   1.196   8.150 -0.6737  0.5416 -0.2513
   95SAPS  C216 9411   3.729   1.049   8.168 -0.3369  0.0827 -0.1234
   95SAPS  H16R 9412   3.742   0.942   8.142  0.3306  0.2472 -0.4781
   95SAPS  H16S 9413   3.625   1.074   8.138  0.4219 -0.0496 -2.9576
   95SAPS  C217 9414   3.745   1.074   8.322 -0.2441  0.9254 -0.6484
   95SAPS  H17R 9415   3.706   1.176   8.343  2.1268  1.3350  2.1341
   95SAPS  H17S 9416   3.851   1.081   8.354 -1.1219  1.9082  2.2905
   95SAPS  C218 9417   3.658   0.990   8.417 -0.0734  0.7541  0.0415
   95SAPS  H18R 9418   3.684   0.886   8.389 -1.2567 -0.4174  3.0204
   95SAPS  H18S 9419   3.549   1.006   8.405 -0.3691  1.4318  3.1473
   95SAPS  C219 9420   3.688   1.003   8.566 -0.1973  0.6608  0.1228
   95SAPS  H19R 9421   3.786   1.056   8.572  0.1009  0.0514  0.7908
   95SAPS  H19S 9422   3.698   0.906   8.618 -1.4542  0.2334 -0.4147
   95SAPS  C220 9423   3.584   1.087   8.635 -0.5842 -0.3912  0.2362
   95SAPS  H20R 9424   3.490   1.029   8.632  0.1684 -1.5721 -1.2160
   95SAPS  H20S 9425   3.582   1.185   8.581  1.0305  0.4854  1.6975
   95SAPS  H20T 9426   3.623   1.117   8.735  0.0333 -1.1293  0.2197
   95SAPS   C33 9427   3.155   1.259   6.843 -0.1300  0.1392 -0.4740
   95SAPS   H3X 9428   3.102   1.162   6.843  2.2734 -1.2984  3.0599
   95SAPS   H3Y 9429   3.129   1.310   6.748 -0.4387 -0.2307 -0.5886
   95SAPS   C34 9430   3.102   1.326   6.973  0.2163  0.0206 -0.0033
   95SAPS   H4X 9431   2.996   1.359   6.963 -0.5187 -1.9363  1.0358
   95SAPS   H4Y 9432   3.170   1.411   6.995 -0.4826  1.4930 -3.2517
   95SAPS   C35 9433   3.095   1.234   7.093 -0.9098  0.1387  0.6223
   95SAPS   H5X 9434   3.190   1.180   7.110 -1.2468 -0.0636  1.9620
   95SAPS   H5Y 9435   3.008   1.165   7.087 -1.1170  0.0385  3.7299
   95SAPS   C36 9436   3.059   1.319   7.211  0.1360  0.7611  0.5869
   95SAPS   H6X 9437   2.953   1.353   7.211  0.8237  2.9786  0.8689
   95SAPS   H6Y 9438   3.119   1.411   7.226 -0.8426  1.2332  1.7148
   95SAPS   C37 9439   3.068   1.228   7.333 -0.7705  0.6464  0.0400
   95SAPS   H7X 9440   3.166   1.176   7.323 -1.0210  0.1575  0.0867
   95SAPS   H7Y 9441   2.990   1.149   7.338  0.9686 -1.0793  0.9956
   95SAPS   C38 9442   3.077   1.302   7.466  0.2253 -0.1662  0.2005
   95SAPS   H8X 9443   3.019   1.396   7.454 -1.8555 -1.8512 -3.4582
   95SAPS   H8Y 9444   3.182   1.325   7.494  0.5855 -1.8164  0.2704
   95SAPS   C39 9445   3.044   1.218   7.596 -0.8197 -0.2683  0.7488
   95SAPS   H9X 9446   3.090   1.118   7.577  0.6619  0.5215  0.1060
   95SAPS   H9Y 9447   2.936   1.204   7.618 -1.3959 -0.2595 -1.9041
   95SAPS  C310 9448   3.087   1.283   7.726  0.7996 -0.1734  0.2562
   95SAPS  H10X 9449   3.117   1.390   7.717  0.7687  0.0116  2.1765
   95SAPS  H10Y 9450   3.177   1.228   7.760  1.5510 -0.0832 -1.5713
   95SAPS  C311 9451   2.995   1.280   7.848 -0.6002  0.9288  0.7328
   95SAPS  H11X 9452   2.908   1.347   7.832 -0.6727  0.8817  0.9290
   95SAPS  H11Y 9453   3.046   1.325   7.936 -1.1825  2.3539  0.3563
   95SAPS  C312 9454   2.956   1.136   7.881 -1.1623 -0.5395 -0.5711
   95SAPS  H12X 9455   2.904   1.078   7.801  0.3369 -2.2341 -0.3430
   95SAPS  H12Y 9456   2.878   1.139   7.960 -1.8995  0.9655 -1.3472
   95SAPS  C313 9457   3.078   1.049   7.928 -0.3537 -0.6742  0.7047
   95SAPS  H13X 9458   3.141   1.097   8.006  0.2652  1.7364 -1.2384
   95SAPS  H13Y 9459   3.146   1.024   7.843  0.5001 -1.8550  1.7107
   95SAPS  C314 9460   3.031   0.914   7.985 -0.7855  0.5688  0.0490
   95SAPS  H14X 9461   3.122   0.856   8.010  0.3074  0.6146 -3.6255
   95SAPS  H14Y 9462   2.982   0.850   7.909 -0.6573 -0.8108  1.1023
   95SAPS  C315 9463   2.953   0.933   8.113  0.0610  0.3014 -0.5461
   95SAPS  H15X 9464   2.869   1.006   8.104  0.3583  0.4337 -2.4185
   95SAPS  H15Y 9465   3.024   0.970   8.189 -2.0238  1.5014  0.8546
   95SAPS  C316 9466   2.889   0.810   8.180 -0.7151  0.0490  0.1948
   95SAPS  H16X 9467   2.971   0.745   8.217 -0.1007  0.9391  0.4219
   95SAPS  H16Y 9468   2.827   0.760   8.102  1.5342  0.3371 -1.8681
   95SAPS  C317 9469   2.804   0.848   8.305 -0.1878 -0.7854 -0.1878
   95SAPS  H17X 9470   2.715   0.910   8.279  1.0816  0.4983 -1.5687
   95SAPS  H17Y 9471   2.877   0.899   8.371 -0.3479 -1.7627  0.7674
   95SAPS  C318 9472   2.753   0.728   8.380 -0.6449 -0.4832 -0.5287
   95SAPS  H18X 9473   2.827   0.653   8.415 -1.7305 -1.6126 -0.6129
   95SAPS  H18Y 9474   2.675   0.670   8.327 -0.7029 -1.3553  0.5020
   95SAPS  H18Z 9475   2.704   0.760   8.475 -1.8253 -0.7487 -1.0350
   96SAPS     N 9476   4.157   2.801   5.947 -0.6447  0.3030  0.2840
   96SAPS   HN1 9477   4.226   2.726   5.966  0.5224  1.2229 -0.2260
   96SAPS   HN2 9478   4.128   2.796   5.847 -0.4001 -0.8160  0.2634
   96SAPS   HN3 9479   4.207   2.890   5.965  0.5551  0.2377 -2.5157
   96SAPS   C12 9480   4.037   2.775   6.037 -0.6693  0.2127 -0.2496
   96SAPS  H12A 9481   3.964   2.852   6.016  1.0798  1.5543 -1.6057
   96SAPS   C13 9482   3.964   2.645   6.016  0.3306  0.4733  0.2006
   96SAPS  O13A 9483   4.004   2.557   5.934  0.3610  1.1943  0.0178
   96SAPS  O13B 9484   3.854   2.638   6.073 -0.0744 -0.1953  0.3801
   96SAPS   C11 9485   4.079   2.784   6.187  0.1443  0.6229  0.0145
   96SAPS  H11A 9486   4.159   2.714   6.216 -2.7965 -2.0891  1.9402
   96SAPS  H11B 9487   3.988   2.769   6.249 -0.3524 -0.1913 -0.8913
   96SAPS     P 9488   4.110   2.983   6.355  0.0530 -0.4257  0.5155
   96SAPS   O13 9489   4.209   3.095   6.349 -0.2691  0.2418  0.5820
   96SAPS   O14 9490   3.963   3.017   6.359 -0.2349  0.3422 -0.5911
   96SAPS   O12 9491   4.131   2.909   6.218 -0.4998 -0.2374 -0.8381
   96SAPS   O11 9492   4.152   2.875   6.463  0.1872 -0.1818  0.1077
   96SAPS    C1 9493   4.287   2.834   6.470  0.3565  0.1379 -0.6567
   96SAPS    HA 9494   4.310   2.781   6.375 -0.5621 -1.6015  0.0721
   96SAPS    HB 9495   4.351   2.924   6.480 -1.0736  1.0522  0.2783
   96SAPS    C2 9496   4.334   2.737   6.582  0.0150  0.4164  0.3462
   96SAPS    HS 9497   4.412   2.664   6.550  0.4918  0.2650  1.7833
   96SAPS   O21 9498   4.234   2.659   6.644  0.3198  0.3510 -0.0049
   96SAPS   C21 9499   4.168   2.572   6.574  0.3362 -0.1194 -1.0691
   96SAPS   O22 9500   4.193   2.542   6.454 -0.0028  0.0224  0.0734
   96SAPS   C22 9501   4.046   2.531   6.660  0.0131 -0.3368 -0.2120
   96SAPS   H2R 9502   3.987   2.473   6.586  0.7400  0.5177 -1.4819
   96SAPS   H2S 9503   4.066   2.464   6.747  1.2006 -0.8317 -0.8468
   96SAPS    C3 9504   4.390   2.823   6.702 -0.3150 -0.2556 -0.5994
   96SAPS    HX 9505   4.335   2.918   6.717 -1.5800 -1.2172  0.9965
   96SAPS    HY 9506   4.495   2.844   6.671  0.2249 -1.5267  0.2975
   96SAPS   O31 9507   4.399   2.744   6.826 -0.1093 -0.0076 -0.1065
   96SAPS   C31 9508   4.289   2.752   6.901  0.6993 -0.1861 -0.5283
   96SAPS   O32 9509   4.195   2.830   6.889 -0.3889 -0.1101  0.2560
   96SAPS   C32 9510   4.292   2.634   7.008  0.1899 -0.2912 -0.1171
   96SAPS   H2X 9511   4.292   2.536   6.956  0.6545 -0.8099  0.8608
   96SAPS   H2Y 9512   4.202   2.661   7.068 -0.0707  0.7859 -0.9626
   96SAPS   C23 9513   3.958   2.649   6.706  0.6367  0.3110  0.0243
   96SAPS   H3R 9514   3.894   2.677   6.620 -0.4475 -1.0556  0.3762
   96SAPS   H3S 9515   4.022   2.734   6.738  1.7468 -0.5878  0.2249
   96SAPS   C24 9516   3.860   2.613   6.826  0.1145 -0.0219  0.2628
   96SAPS   H4R 9517   3.782   2.692   6.831 -0.6670 -0.6649 -1.3165
   96SAPS   H4S 9518   3.928   2.622   6.914 -0.2009  4.5162  0.1351
   96SAPS   C25 9519   3.794   2.474   6.819 -0.1602  0.1127  0.3921
   96SAPS   H5R 9520   3.843   2.407   6.747 -0.2914  0.6492 -0.1970
   96SAPS   C26 9521   3.681   2.436   6.880 -0.0962 -0.5208 -0.0498
   96SAPS   H6R 9522   3.649   2.331   6.875 -2.1376  0.1021 -0.4895
   96SAPS   C27 9523   3.593   2.528   6.965 -0.0780  0.8123 -0.0597
   96SAPS   H7R 9524   3.485   2.502   6.966 -0.1684  1.2422  2.1032
   96SAPS   H7S 9525   3.601   2.634   6.930 -1.6866  0.2976 -2.1057
   96SAPS   C28 9526   3.636   2.523   7.112  0.1761  0.2759 -0.5357
   96SAPS   H8R 9527   3.712   2.447   7.136  0.3254  0.4935 -0.3181
   96SAPS   C29 9528   3.585   2.597   7.214  0.3855 -0.3976  0.6718
   96SAPS   H9R 9529   3.621   2.597   7.318 -0.2941 -1.0943  0.9126
   96SAPS  C210 9530   3.474   2.700   7.199 -0.2096  1.1362 -0.3722
   96SAPS  H10R 9531   3.407   2.683   7.112  1.4361  1.4644 -1.7326
   96SAPS  H10S 9532   3.527   2.795   7.177  2.6337 -0.7595 -2.0511
   96SAPS  C211 9533   3.395   2.716   7.329 -0.2619  0.2508  0.1191
   96SAPS  H11R 9534   3.309   2.650   7.348 -0.5803  0.8511  0.7713
   96SAPS  C212 9535   3.408   2.817   7.417 -0.3905 -0.1476 -0.3906
   96SAPS  H12R 9536   3.352   2.806   7.512 -1.8320 -0.4036 -1.2617
   96SAPS  C213 9537   3.494   2.943   7.422  0.1356  0.0965 -0.0163
   96SAPS  H13R 9538   3.577   2.934   7.349  0.4285  2.6801 -0.0516
   96SAPS  H13S 9539   3.546   2.947   7.519 -0.0630  1.4065  0.0498
   96SAPS  C214 9540   3.442   3.083   7.400  0.3639 -0.9572 -0.5800
   96SAPS  H14R 9541   3.499   3.137   7.322  0.6291  0.8480  0.8204
   96SAPS  C215 9542   3.335   3.146   7.461  0.2642 -0.2189  1.1066
   96SAPS  H15R 9543   3.311   3.247   7.426  1.2962 -0.6382 -0.9715
   96SAPS  C216 9544   3.241   3.082   7.573 -0.3195 -0.3217 -0.4554
   96SAPS  H16R 9545   3.259   2.973   7.564 -0.7614 -0.5552  1.2653
   96SAPS  H16S 9546   3.135   3.089   7.541 -0.1923  2.8224 -0.3360
   96SAPS  C217 9547   3.274   3.115   7.720 -0.0567  0.5388  0.7948
   96SAPS  H17R 9548   3.199   3.074   7.791 -0.1960 -1.1543 -0.2969
   96SAPS  H17S 9549   3.273   3.225   7.729  0.3044  0.5466  0.7267
   96SAPS  C218 9550   3.404   3.054   7.762 -0.0392 -0.0699 -0.6273
   96SAPS  H18R 9551   3.488   3.092   7.699 -0.2519  1.9175  0.2596
   96SAPS  H18S 9552   3.392   2.946   7.739  0.1958 -0.2169 -0.0687
   96SAPS  C219 9553   3.431   3.072   7.911  0.5557  0.0299 -0.0147
   96SAPS  H19R 9554   3.532   3.031   7.932 -0.9835 -2.3350  3.2447
   96SAPS  H19S 9555   3.361   3.010   7.971  0.9484 -1.0513 -0.6687
   96SAPS  C220 9556   3.414   3.219   7.959  0.5391 -0.9200 -0.0189
   96SAPS  H20R 9557   3.308   3.251   7.946  0.1649 -2.7875 -1.7763
   96SAPS  H20S 9558   3.487   3.282   7.904 -2.0174 -0.1897 -2.7328
   96SAPS  H20T 9559   3.427   3.228   8.069 -0.5550 -1.1840  0.1347
   96SAPS   C33 9560   4.423   2.653   7.096  0.2020 -0.6949  0.1477
   96SAPS   H3X 9561   4.447   2.760   7.116  0.3826 -1.0443  1.9428
   96SAPS   H3Y 9562   4.510   2.613   7.042 -0.2971 -2.5737  0.7179
   96SAPS   C34 9563   4.425   2.563   7.220  0.8405 -0.7468 -0.6581
   96SAPS   H4X 9564   4.527   2.565   7.264  0.2797  1.1153  0.6046
   96SAPS   H4Y 9565   4.399   2.456   7.206  1.1781 -0.6862 -1.8372
   96SAPS   C35 9566   4.322   2.613   7.320 -0.7291  0.1512  0.1322
   96SAPS   H5X 9567   4.223   2.627   7.271 -0.7669  0.8242  0.4001
   96SAPS   H5Y 9568   4.346   2.710   7.368 -3.6369  0.7172  0.5799
   96SAPS   C36 9569   4.311   2.526   7.445 -0.6236 -0.4236  0.1660
   96SAPS   H6X 9570   4.297   2.420   7.414 -1.6253  0.3364 -2.0438
   96SAPS   H6Y 9571   4.214   2.561   7.485  0.2359 -0.9003  2.7407
   96SAPS   C37 9572   4.435   2.528   7.534 -0.2715  0.4803 -0.0186
   96SAPS   H7X 9573   4.528   2.524   7.472  1.3986 -0.1858  2.4486
   96SAPS   H7Y 9574   4.429   2.437   7.597 -1.0968  1.1752  0.9246
   96SAPS   C38 9575   4.445   2.647   7.629 -0.5266  0.4168 -0.7674
   96SAPS   H8X 9576   4.484   2.729   7.565  0.9990  0.1944 -0.1419
   96SAPS   H8Y 9577   4.530   2.631   7.698 -0.6531  2.1088 -0.1995
   96SAPS   C39 9578   4.323   2.686   7.712  0.1244  0.4134 -0.0191
   96SAPS   H9X 9579   4.256   2.743   7.644 -2.2704  0.5559  2.3987
   96SAPS   H9Y 9580   4.352   2.768   7.781  1.1886  1.6029 -1.8286
   96SAPS  C310 9581   4.252   2.565   7.773  0.4894  0.1079 -0.1117
   96SAPS  H10X 9582   4.334   2.501   7.813  1.3412  1.1989 -0.0984
   96SAPS  H10Y 9583   4.208   2.495   7.699  1.0796 -0.1236 -0.2448
   96SAPS  C311 9584   4.153   2.594   7.894 -0.4409 -0.1085 -0.0806
   96SAPS  H11X 9585   4.068   2.650   7.849 -0.3172  0.6904  0.6624
   96SAPS  H11Y 9586   4.189   2.673   7.964 -0.8355  0.7448 -0.8368
   96SAPS  C312 9587   4.096   2.478   7.966 -1.2192  0.3163  0.8108
   96SAPS  H12X 9588   4.166   2.420   8.029 -0.5082  2.6884  2.2657
   96SAPS  H12Y 9589   4.055   2.410   7.888 -0.6356  1.6854 -0.7157
   96SAPS  C313 9590   3.982   2.519   8.057 -0.2843  0.0463  0.2165
   96SAPS  H13X 9591   3.918   2.589   7.999  0.0122  0.5610  0.5111
   96SAPS  H13Y 9592   4.031   2.554   8.150  3.0729 -2.7893 -0.3516
   96SAPS  C314 9593   3.893   2.399   8.090  0.2287 -0.1733 -0.0553
   96SAPS  H14X 9594   3.859   2.338   8.004  0.7465  1.0874 -1.1624
   96SAPS  H14Y 9595   3.797   2.450   8.116 -0.0215  0.9922 -3.1227
   96SAPS  C315 9596   3.948   2.313   8.203 -0.1537  0.7248  0.0395
   96SAPS  H15X 9597   4.056   2.292   8.187  0.2231  1.6605  1.2692
   96SAPS  H15Y 9598   3.899   2.215   8.186  0.0498  0.8404 -1.3123
   96SAPS  C316 9599   3.896   2.345   8.343  0.4562 -0.3714  0.6646
   96SAPS  H16X 9600   3.920   2.274   8.425 -2.0433 -0.3855  1.4279
   96SAPS  H16Y 9601   3.787   2.357   8.330  0.5072  2.2527  2.2090
   96SAPS  C317 9602   3.939   2.478   8.407  0.5919  0.1055 -0.0973
   96SAPS  H17X 9603   3.873   2.497   8.494  0.4941  0.8047 -0.3191
   96SAPS  H17Y 9604   3.936   2.562   8.334 -1.1222 -0.0552 -0.2317
   96SAPS  C318 9605   4.092   2.474   8.442  0.5544 -0.2038  0.2260
   96SAPS  H18X 9606   4.113   2.391   8.513 -1.6480  0.7713  2.0890
   96SAPS  H18Y 9607   4.130   2.570   8.482  0.2342 -0.2816  0.7133
   96SAPS  H18Z 9608   4.152   2.468   8.348 -1.0179  1.2709 -0.8978
   97SAPS     N 9609   4.367   0.727   6.164 -0.7216 -0.6224  0.5080
   97SAPS   HN1 9610   4.365   0.786   6.249  2.2296  2.1988 -1.2612
   97SAPS   HN2 9611   4.280   0.746   6.110 -1.9672  0.8398  2.9493
   97SAPS   HN3 9612   4.365   0.632   6.206 -4.1739 -1.5120 -1.4654
   97SAPS   C12 9613   4.482   0.754   6.071  0.5741 -0.5369  0.1191
   97SAPS  H12A 9614   4.476   0.675   5.998  0.8098  0.5951 -1.1401
   97SAPS   C13 9615   4.475   0.889   6.000  0.8183 -0.1724  0.6183
   97SAPS  O13A 9616   4.365   0.953   6.008 -0.5909 -0.8750 -0.0589
   97SAPS  O13B 9617   4.548   0.906   5.898 -0.4373  0.7997 -0.2484
   97SAPS   C11 9618   4.612   0.748   6.161 -0.6861 -0.6763 -0.8487
   97SAPS  H11A 9619   4.691   0.783   6.092 -2.2207  0.7947 -1.9177
   97SAPS  H11B 9620   4.642   0.645   6.186 -0.2886 -0.6403 -1.1789
   97SAPS     P 9621   4.736   0.848   6.363  0.2013  0.1280  0.0075
   97SAPS   O13 9622   4.852   0.855   6.271  0.4890 -0.5416  0.5337
   97SAPS   O14 9623   4.713   0.962   6.456 -0.5508 -0.6375 -0.1829
   97SAPS   O12 9624   4.606   0.831   6.276 -0.2363 -0.2886  0.3331
   97SAPS   O11 9625   4.742   0.709   6.435  0.4698  0.0651  0.3016
   97SAPS    C1 9626   4.634   0.658   6.514 -0.4540 -0.0355  0.1444
   97SAPS    HA 9627   4.534   0.695   6.482 -1.5131 -1.4893  1.7095
   97SAPS    HB 9628   4.621   0.548   6.503 -0.1150  0.0774 -1.4988
   97SAPS    C2 9629   4.659   0.692   6.666 -0.1745 -0.2757  0.0783
   97SAPS    HS 9630   4.673   0.802   6.672  0.8863 -0.4080  0.1025
   97SAPS   O21 9631   4.775   0.614   6.707 -0.1462 -0.3374  0.7235
   97SAPS   C21 9632   4.895   0.667   6.681  0.4959  0.7738  0.0741
   97SAPS   O22 9633   4.914   0.788   6.663  0.4386 -0.3375  0.0302
   97SAPS   C22 9634   5.002   0.556   6.707 -0.8915 -0.3762 -0.2220
   97SAPS   H2R 9635   4.965   0.507   6.800 -2.0872 -0.5890 -0.7946
   97SAPS   H2S 9636   4.976   0.475   6.635 -1.1529 -1.4238  1.0435
   97SAPS    C3 9637   4.535   0.654   6.756 -0.1922 -0.0218 -0.2239
   97SAPS    HX 9638   4.502   0.553   6.724  0.0533 -0.1172 -0.1747
   97SAPS    HY 9639   4.449   0.723   6.741 -1.3959 -1.9682 -2.6832
   97SAPS   O31 9640   4.575   0.648   6.891  0.1359  0.0889 -0.4304
   97SAPS   C31 9641   4.599   0.765   6.950 -0.1143 -0.1217 -0.2564
   97SAPS   O32 9642   4.585   0.876   6.901  0.2297  0.7352 -0.3109
   97SAPS   C32 9643   4.659   0.743   7.086  0.2904  0.3257  0.0945
   97SAPS   H2X 9644   4.728   0.656   7.080  0.6990  0.5992  0.7652
   97SAPS   H2Y 9645   4.572   0.715   7.150 -0.5118 -0.3709 -1.2775
   97SAPS   C23 9646   5.150   0.600   6.710  0.7259  0.1862  0.4680
   97SAPS   H3R 9647   5.188   0.635   6.611  0.4281 -0.5781  0.0731
   97SAPS   H3S 9648   5.205   0.503   6.718  1.1275  0.4851  1.3170
   97SAPS   C24 9649   5.194   0.690   6.826  0.9819  0.0213 -0.5638
   97SAPS   H4R 9650   5.197   0.627   6.917  0.9526  1.8863  0.7680
   97SAPS   H4S 9651   5.117   0.768   6.844 -0.7087 -1.8237  0.4652
   97SAPS   C25 9652   5.319   0.760   6.789  0.0744  0.0176  0.0199
   97SAPS   H5R 9653   5.324   0.810   6.692 -0.6749 -0.4458 -0.2563
   97SAPS   C26 9654   5.429   0.775   6.860  0.4621 -0.4192  0.0967
   97SAPS   H6R 9655   5.496   0.856   6.829  1.1949  0.3006  3.3799
   97SAPS   C27 9656   5.442   0.719   7.001  0.0890  0.2997  0.6873
   97SAPS   H7R 9657   5.388   0.622   7.003  1.8412 -0.7355 -0.5371
   97SAPS   H7S 9658   5.404   0.795   7.072 -1.4781  1.3495 -1.2077
   97SAPS   C28 9659   5.583   0.680   7.026  0.5176 -0.3677 -0.3935
   97SAPS   H8R 9660   5.645   0.661   6.937 -1.5296 -1.2676 -1.6539
   97SAPS   C29 9661   5.645   0.678   7.150  0.0227  0.5323  0.2809
   97SAPS   H9R 9662   5.754   0.665   7.142  0.2911  3.3631 -1.2109
   97SAPS  C210 9663   5.578   0.705   7.284  0.5634  0.3738 -1.0416
   97SAPS  H10R 9664   5.589   0.618   7.351 -1.0908  2.4491  2.0282
   97SAPS  H10S 9665   5.468   0.719   7.273  0.8174  0.9158 -3.0737
   97SAPS  C211 9666   5.638   0.828   7.354 -0.5037 -0.5794 -0.4093
   97SAPS  H11R 9667   5.673   0.910   7.290  0.4264  1.2706  2.3574
   97SAPS  C212 9668   5.638   0.850   7.488  0.1185  0.0356  0.7667
   97SAPS  H12R 9669   5.676   0.944   7.529  0.7265 -0.3437  1.0751
   97SAPS  C213 9670   5.574   0.759   7.591 -0.4475  0.0424  0.0794
   97SAPS  H13R 9671   5.486   0.714   7.541 -0.2794  1.5222 -1.6120
   97SAPS  H13S 9672   5.534   0.826   7.669 -0.1968 -1.4310  1.5077
   97SAPS  C214 9673   5.655   0.649   7.661  0.4135  0.5611 -0.0509
   97SAPS  H14R 9674   5.761   0.635   7.638  0.6101  0.0537  1.1103
   97SAPS  C215 9675   5.604   0.578   7.768 -0.5928  0.2827  0.8853
   97SAPS  H15R 9676   5.666   0.502   7.818  0.9370  1.5957  0.9970
   97SAPS  C216 9677   5.468   0.594   7.837  0.4583 -0.0598 -0.2851
   97SAPS  H16R 9678   5.405   0.675   7.794  1.9237  0.1076 -2.1771
   97SAPS  H16S 9679   5.489   0.632   7.939 -0.0353 -0.7083  0.0630
   97SAPS  C217 9680   5.384   0.462   7.857 -0.1473  0.1541  0.5565
   97SAPS  H17R 9681   5.298   0.496   7.920 -0.8304  1.9217 -1.2769
   97SAPS  H17S 9682   5.457   0.402   7.915  0.1613  0.2126  0.2299
   97SAPS  C218 9683   5.348   0.394   7.722  0.1062  0.1746 -0.9645
   97SAPS  H18R 9684   5.446   0.367   7.677  0.5155 -0.3509  0.2306
   97SAPS  H18S 9685   5.286   0.465   7.662 -0.2297 -1.2082 -2.2869
   97SAPS  C219 9686   5.269   0.265   7.748  0.2957 -0.5465 -0.1203
   97SAPS  H19R 9687   5.222   0.230   7.654  0.4016 -3.7665  0.9744
   97SAPS  H19S 9688   5.179   0.283   7.811 -0.1689 -2.8348 -0.0935
   97SAPS  C220 9689   5.336   0.149   7.819 -0.3175  0.2824 -0.3433
   97SAPS  H20R 9690   5.254   0.095   7.870 -0.8337  0.7118 -0.7076
   97SAPS  H20S 9691   5.413   0.183   7.892  1.5099 -3.3707 -0.4518
   97SAPS  H20T 9692   5.370   0.071   7.748  2.3979  1.6974 -0.6595
   97SAPS   C33 9693   4.722   0.879   7.138  0.2129 -0.1130 -0.7946
   97SAPS   H3X 9694   4.746   0.956   7.062  0.0450  0.9477  0.2031
   97SAPS   H3Y 9695   4.825   0.856   7.174  0.9604  1.3082 -1.9965
   97SAPS   C34 9696   4.652   0.953   7.254  0.8361 -0.1825  0.2253
   97SAPS   H4X 9697   4.546   0.979   7.231  1.2064  0.9512 -0.2106
   97SAPS   H4Y 9698   4.692   1.052   7.284 -2.6613  1.2022  0.5296
   97SAPS   C35 9699   4.658   0.866   7.379 -0.0636 -0.2897  0.4354
   97SAPS   H5X 9700   4.764   0.849   7.405 -0.0870 -0.4219  0.4452
   97SAPS   H5Y 9701   4.611   0.766   7.363  0.5565 -0.4040 -0.7228
   97SAPS   C36 9702   4.603   0.947   7.492 -0.4564  0.5731  0.2561
   97SAPS   H6X 9703   4.493   0.956   7.477 -0.4409 -0.9647 -0.8985
   97SAPS   H6Y 9704   4.633   1.054   7.490 -1.2747  0.8591  2.1265
   97SAPS   C37 9705   4.639   0.887   7.623 -0.6495 -0.5813 -0.4952
   97SAPS   H7X 9706   4.620   0.965   7.699 -0.0340  0.0472 -0.9742
   97SAPS   H7Y 9707   4.748   0.867   7.617 -0.2266  0.8661  1.7713
   97SAPS   C38 9708   4.577   0.750   7.643  0.0525  0.3943 -0.2007
   97SAPS   H8X 9709   4.611   0.672   7.572  1.4332 -0.4168  1.3183
   97SAPS   H8Y 9710   4.475   0.772   7.607  0.3175  1.3074 -0.4178
   97SAPS   C39 9711   4.580   0.688   7.784  0.5322 -0.3456 -0.6704
   97SAPS   H9X 9712   4.585   0.579   7.767 -0.3828 -0.1428 -2.3023
   97SAPS   H9Y 9713   4.488   0.717   7.839  0.8032 -1.0102  0.1464
   97SAPS  C310 9714   4.701   0.743   7.855 -0.1055 -0.1618 -1.0248
   97SAPS  H10X 9715   4.687   0.852   7.873 -0.9322 -0.3130 -0.7544
   97SAPS  H10Y 9716   4.786   0.736   7.784 -0.6182  0.1515 -1.6706
   97SAPS  C311 9717   4.726   0.668   7.988  0.0156  0.3750  0.2396
   97SAPS  H11X 9718   4.624   0.644   8.024 -0.6581  0.2935 -1.6508
   97SAPS  H11Y 9719   4.767   0.733   8.069  0.8149  1.1007 -0.7190
   97SAPS  C312 9720   4.824   0.547   7.963 -0.0215 -0.1559 -0.0979
   97SAPS  H12X 9721   4.917   0.589   7.919 -0.1263 -0.3318 -0.4840
   97SAPS  H12Y 9722   4.780   0.482   7.885  0.4143  1.3998 -1.6828
   97SAPS  C313 9723   4.830   0.469   8.092 -0.3077 -0.4855 -0.2859
   97SAPS  H13X 9724   4.733   0.429   8.127 -0.1527 -1.8058 -1.3098
   97SAPS  H13Y 9725   4.863   0.544   8.167 -0.1938 -2.2641  1.4597
   97SAPS  C314 9726   4.958   0.372   8.094 -0.0445  0.2349  0.2493
   97SAPS  H14X 9727   5.043   0.422   8.042  1.3428 -1.4842  0.8055
   97SAPS  H14Y 9728   4.936   0.285   8.028  0.0863 -2.1172  3.1987
   97SAPS  C315 9729   4.991   0.313   8.228  0.4243  0.1237  0.3255
   97SAPS  H15X 9730   5.068   0.235   8.211  0.8740  0.9150 -1.4537
   97SAPS  H15Y 9731   4.904   0.266   8.278  0.5002  0.0596  0.3992
   97SAPS  C316 9732   5.062   0.406   8.330 -0.4462 -0.2343  0.4244
   97SAPS  H16X 9733   5.044   0.355   8.428 -0.7435 -1.0843 -0.0648
   97SAPS  H16Y 9734   5.005   0.501   8.341  1.6270  1.0026  0.5808
   97SAPS  C317 9735   5.217   0.419   8.299  0.4904  0.1992 -0.2254
   97SAPS  H17X 9736   5.233   0.456   8.195  2.3519  2.2021  0.7490
   97SAPS  H17Y 9737   5.245   0.313   8.313 -2.8515 -0.8064 -0.5652
   97SAPS  C318 9738   5.286   0.507   8.400  0.8878  0.3753  0.5085
   97SAPS  H18X 9739   5.254   0.612   8.382  1.2687  0.7697  2.0782
   97SAPS  H18Y 9740   5.396   0.505   8.386  0.8979  1.6327  0.3637
   97SAPS  H18Z 9741   5.267   0.482   8.507 -1.1047  1.2700  0.3942
   98SAPS     N 9742   3.150   0.884   5.651  0.3015 -0.6165 -0.4249
   98SAPS   HN1 9743   3.210   0.876   5.736  0.1710  0.4817 -0.2151
   98SAPS   HN2 9744   3.170   0.814   5.578 -0.8934 -1.6130  0.1934
   98SAPS   HN3 9745   3.161   0.978   5.608  1.5022 -1.0607 -1.1054
   98SAPS   C12 9746   3.006   0.875   5.699  0.2236 -0.1256 -0.2603
   98SAPS  H12A 9747   2.993   0.969   5.750  0.0097  0.5543 -1.5400
   98SAPS   C13 9748   2.887   0.884   5.604  0.6313  0.2621  0.0461
   98SAPS  O13A 9749   2.902   0.930   5.489  0.1668 -0.4162  0.4553
   98SAPS  O13B 9750   2.769   0.878   5.652  0.1731  0.3565 -0.0920
   98SAPS   C11 9751   2.990   0.752   5.793 -0.5798 -0.1788 -0.1371
   98SAPS  H11A 9752   3.018   0.666   5.729 -1.6349 -1.1704  0.6998
   98SAPS  H11B 9753   2.882   0.737   5.817 -0.9725  2.3020 -0.1422
   98SAPS     P 9754   3.017   0.850   6.027  0.3217  0.2985  0.0084
   98SAPS   O13 9755   3.118   0.962   6.007  0.8894  0.3484 -0.6662
   98SAPS   O14 9756   2.874   0.887   6.016 -0.3019 -0.3144 -0.5808
   98SAPS   O12 9757   3.065   0.752   5.916  0.6395  0.8810 -0.2440
   98SAPS   O11 9758   3.047   0.775   6.164 -0.0461 -0.2744  0.4683
   98SAPS    C1 9759   2.980   0.648   6.186 -0.1280  0.3895 -0.2311
   98SAPS    HA 9760   2.870   0.664   6.189  0.1885  2.7801 -0.5308
   98SAPS    HB 9761   2.996   0.563   6.117  1.7654  0.8418 -0.3554
   98SAPS    C2 9762   3.015   0.594   6.332 -0.0818  0.1275 -0.0145
   98SAPS    HS 9763   2.945   0.513   6.364 -0.7971  0.5893 -0.4007
   98SAPS   O21 9764   3.012   0.703   6.427 -0.4464 -0.6637  0.4671
   98SAPS   C21 9765   2.891   0.740   6.456  0.1747 -0.1502 -0.0390
   98SAPS   O22 9766   2.785   0.692   6.421  0.6557  0.2367  0.0459
   98SAPS   C22 9767   2.886   0.874   6.520  0.0109 -0.5783 -0.0690
   98SAPS   H2R 9768   2.905   0.951   6.442  1.1113 -1.3638 -0.5829
   98SAPS   H2S 9769   2.789   0.886   6.573  1.1785  2.9071  1.4351
   98SAPS    C3 9770   3.151   0.522   6.341 -0.8914 -0.4895  0.3133
   98SAPS    HX 9771   3.232   0.582   6.294 -1.3104  0.2726  0.5636
   98SAPS    HY 9772   3.136   0.441   6.265 -0.5402 -0.1602 -0.1088
   98SAPS   O31 9773   3.180   0.471   6.473  0.5602  0.3589  0.0971
   98SAPS   C31 9774   3.264   0.537   6.546 -0.4010  0.5182 -0.1650
   98SAPS   O32 9775   3.341   0.625   6.513 -0.3472 -0.2169 -0.1646
   98SAPS   C32 9776   3.249   0.476   6.684  0.0092 -0.9865  0.4994
   98SAPS   H2X 9777   3.242   0.366   6.674  1.0350 -1.0455  0.3430
   98SAPS   H2Y 9778   3.141   0.489   6.704  0.0576 -0.8061  0.6432
   98SAPS   C23 9779   2.999   0.889   6.626 -0.1587 -0.3324  0.2567
   98SAPS   H3R 9780   3.012   0.992   6.663 -1.2679 -0.4911  1.0906
   98SAPS   H3S 9781   3.102   0.872   6.587  0.6232  3.0854  0.6783
   98SAPS   C24 9782   2.982   0.782   6.734 -0.8444 -0.3488  0.3921
   98SAPS   H4R 9783   3.007   0.680   6.699  1.9089 -0.3327  2.1794
   98SAPS   H4S 9784   2.881   0.768   6.778 -0.8451  1.8112  1.1085
   98SAPS   C25 9785   3.090   0.819   6.840  0.4317  0.7232  0.7709
   98SAPS   H5R 9786   3.190   0.820   6.795  0.3975 -0.1798  0.6693
   98SAPS   C26 9787   3.076   0.846   6.974 -0.6603 -0.5613 -0.2116
   98SAPS   H6R 9788   3.172   0.853   7.028 -1.1452 -3.1054  1.0798
   98SAPS   C27 9789   2.950   0.846   7.058  1.0124  0.4275  0.2553
   98SAPS   H7R 9790   2.862   0.839   6.990  0.1049 -0.1240  1.4784
   98SAPS   H7S 9791   2.932   0.947   7.100 -0.1594  0.0986  0.5509
   98SAPS   C28 9792   2.932   0.733   7.156  0.5407  0.5172  0.0219
   98SAPS   H8R 9793   2.862   0.658   7.116  0.5168  1.6790 -2.2443
   98SAPS   C29 9794   2.980   0.727   7.277  1.1190  0.0974 -0.4463
   98SAPS   H9R 9795   2.946   0.651   7.349  1.9900 -0.4913 -0.6470
   98SAPS  C210 9796   3.068   0.824   7.349  0.4175 -0.4058 -0.8145
   98SAPS  H10R 9797   3.020   0.923   7.335 -1.7319 -1.3165 -0.0880
   98SAPS  H10S 9798   3.169   0.815   7.303  0.7375 -1.3190  0.0531
   98SAPS  C211 9799   3.081   0.826   7.499  0.2439 -0.0340  0.1019
   98SAPS  H11R 9800   3.188   0.818   7.524  0.1292  0.0761  0.6292
   98SAPS  C212 9801   2.989   0.836   7.594  0.4621 -0.6252 -0.2393
   98SAPS  H12R 9802   3.036   0.832   7.693  0.3377  1.1993 -0.0954
   98SAPS  C213 9803   2.842   0.858   7.585  0.4345  0.1621  0.7055
   98SAPS  H13R 9804   2.804   0.889   7.486 -0.4305 -2.9052  0.0139
   98SAPS  H13S 9805   2.816   0.950   7.641  1.0303  0.7909 -0.0386
   98SAPS  C214 9806   2.753   0.743   7.646 -0.0612 -0.1009  0.4275
   98SAPS  H14R 9807   2.767   0.640   7.610  0.0299 -0.1695  0.6626
   98SAPS  C215 9808   2.643   0.767   7.719  0.1980 -0.2128 -0.0332
   98SAPS  H15R 9809   2.590   0.679   7.757 -1.4923  1.0530  0.6092
   98SAPS  C216 9810   2.578   0.897   7.766 -0.3900 -0.0624  0.0139
   98SAPS  H16R 9811   2.469   0.888   7.751 -0.6009  1.3567  0.6726
   98SAPS  H16S 9812   2.601   0.977   7.693 -0.4672 -0.7358 -0.7614
   98SAPS  C217 9813   2.610   0.940   7.908 -0.3403  0.6367  0.2547
   98SAPS  H17R 9814   2.719   0.952   7.923 -0.2317 -1.1750  1.0412
   98SAPS  H17S 9815   2.583   0.855   7.974  0.1539  0.9486  0.8582
   98SAPS  C218 9816   2.536   1.075   7.940  0.3644 -0.0012  0.0812
   98SAPS  H18R 9817   2.429   1.074   7.909  0.5581  1.2372 -0.6479
   98SAPS  H18S 9818   2.585   1.149   7.874 -1.0701  0.0106 -0.9926
   98SAPS  C219 9819   2.546   1.129   8.085  0.1431  0.1816 -0.2202
   98SAPS  H19R 9820   2.652   1.137   8.119 -0.5537  0.8659  1.8529
   98SAPS  H19S 9821   2.500   1.045   8.141  0.5135  1.0347  1.3836
   98SAPS  C220 9822   2.467   1.251   8.120 -0.8140  0.0114  0.0274
   98SAPS  H20R 9823   2.514   1.332   8.060 -0.9794 -0.5370 -0.8484
   98SAPS  H20S 9824   2.463   1.280   8.227  1.8605  1.3396 -0.1773
   98SAPS  H20T 9825   2.362   1.252   8.083 -0.9993  0.5540  0.5622
   98SAPS   C33 9826   3.359   0.522   6.795  0.1694 -0.1635 -0.6839
   98SAPS   H3X 9827   3.378   0.630   6.780 -0.4016  0.4214  2.5565
   98SAPS   H3Y 9828   3.448   0.457   6.780  3.0713  3.8921 -1.7476
   98SAPS   C34 9829   3.306   0.502   6.934  0.3919 -0.4694 -0.5197
   98SAPS   H4X 9830   3.259   0.401   6.934 -0.4370 -0.1063  1.5676
   98SAPS   H4Y 9831   3.226   0.574   6.962  0.2357 -1.5296  1.8360
   98SAPS   C35 9832   3.410   0.505   7.048 -0.4431  0.2690 -0.0047
   98SAPS   H5X 9833   3.461   0.602   7.030 -1.8298  1.6505  3.1111
   98SAPS   H5Y 9834   3.488   0.429   7.030 -1.3114 -0.5759 -0.2318
   98SAPS   C36 9835   3.358   0.478   7.184 -0.4147 -0.8709 -0.7924
   98SAPS   H6X 9836   3.344   0.368   7.194 -1.4374 -0.7720 -1.1303
   98SAPS   H6Y 9837   3.256   0.521   7.191  0.7509  1.6431  1.8589
   98SAPS   C37 9838   3.442   0.522   7.312  0.1965 -0.0483  0.4229
   98SAPS   H7X 9839   3.470   0.628   7.293 -0.5744 -0.0677 -0.8413
   98SAPS   H7Y 9840   3.535   0.461   7.308 -0.6415 -1.4279  1.4289
   98SAPS   C38 9841   3.369   0.503   7.440  0.2809  0.3522 -0.3573
   98SAPS   H8X 9842   3.338   0.396   7.446 -0.0731  0.4458 -0.4794
   98SAPS   H8Y 9843   3.279   0.569   7.442  0.0439  0.0062  1.1101
   98SAPS   C39 9844   3.456   0.536   7.565 -0.2738  0.3110 -0.1120
   98SAPS   H9X 9845   3.502   0.631   7.529 -0.5937  0.2987 -0.5603
   98SAPS   H9Y 9846   3.526   0.450   7.568 -0.3416  0.2293 -0.6644
   98SAPS  C310 9847   3.377   0.561   7.693 -0.5003  0.4576 -0.1891
   98SAPS  H10X 9848   3.302   0.484   7.722  0.9088 -0.1270  2.0334
   98SAPS  H10Y 9849   3.313   0.651   7.682 -0.3065  0.3450 -2.3880
   98SAPS  C311 9850   3.467   0.587   7.813 -0.0800 -0.3173  0.1067
   98SAPS  H11X 9851   3.543   0.652   7.766 -1.8904  1.1178 -0.9310
   98SAPS  H11Y 9852   3.524   0.496   7.843 -0.5330 -0.4464  0.5864
   98SAPS  C312 9853   3.393   0.659   7.930  0.5811 -0.1781  0.1402
   98SAPS  H12X 9854   3.331   0.577   7.974 -0.6827  0.3587 -0.5986
   98SAPS  H12Y 9855   3.329   0.743   7.895 -1.2459 -2.2442 -1.6727
   98SAPS  C313 9856   3.478   0.726   8.042 -0.6349  0.0817  0.5438
   98SAPS  H13X 9857   3.544   0.802   7.996 -0.5400 -1.3621 -1.7399
   98SAPS  H13Y 9858   3.535   0.644   8.090 -1.6603 -0.8190  0.2415
   98SAPS  C314 9859   3.392   0.810   8.135 -0.6513  0.2175  0.1042
   98SAPS  H14X 9860   3.303   0.861   8.092 -0.0298  2.5564  1.5324
   98SAPS  H14Y 9861   3.457   0.884   8.185  1.3699 -0.3919 -1.5595
   98SAPS  C315 9862   3.333   0.728   8.245 -0.7184 -0.2380  0.1699
   98SAPS  H15X 9863   3.406   0.659   8.291 -0.5119 -0.0771  0.0820
   98SAPS  H15Y 9864   3.253   0.666   8.200 -1.9453  0.1746  1.7057
   98SAPS  C316 9865   3.254   0.822   8.348  0.2611 -0.0067 -0.0017
   98SAPS  H16X 9866   3.184   0.886   8.290 -0.6740  0.9531  2.1652
   98SAPS  H16Y 9867   3.332   0.882   8.400  2.0097 -4.4534  2.8231
   98SAPS  C317 9868   3.183   0.733   8.447 -0.1449 -0.2782  1.1665
   98SAPS  H17X 9869   3.259   0.656   8.470 -0.3742  0.1132  3.3265
   98SAPS  H17Y 9870   3.103   0.674   8.399 -0.8594  1.7519 -0.1981
   98SAPS  C318 9871   3.141   0.804   8.576 -1.1058  0.3494  0.1053
   98SAPS  H18X 9872   3.125   0.719   8.646 -1.2327 -0.2260 -0.6183
   98SAPS  H18Y 9873   3.039   0.848   8.568 -0.5953  1.9937  2.1755
   98SAPS  H18Z 9874   3.213   0.879   8.615 -1.0163 -0.9258  2.4714
   99SAPS     N 9875   2.826   4.774   6.332  0.3265  0.6317  0.2746
   99SAPS   HN1 9876   2.875   4.860   6.302  1.3174  0.4485  1.3046
   99SAPS   HN2 9877   2.881   4.736   6.412  0.8735 -3.3739 -1.8545
   99SAPS   HN3 9878   2.839   4.691   6.270 -3.4482  0.4646 -0.3771
   99SAPS   C12 9879   2.684   4.779   6.383 -1.0714 -0.5502  0.5992
   99SAPS  H12A 9880   2.620   4.804   6.300  1.3675 -1.0203 -1.4569
   99SAPS   C13 9881   2.623   4.653   6.446 -0.4914  0.2564  0.1321
   99SAPS  O13A 9882   2.692   4.548   6.455 -0.6080  0.2910 -0.1294
   99SAPS  O13B 9883   2.511   4.660   6.493 -0.2448 -0.4126  0.9536
   99SAPS   C11 9884   2.664   4.898   6.482  0.2178  0.2910 -0.2160
   99SAPS  H11A 9885   2.722   4.879   6.575 -1.3354 -1.0009  0.5214
   99SAPS  H11B 9886   2.558   4.898   6.515  0.0776 -3.4987 -0.5104
   99SAPS     P 9887   2.617   5.133   6.361  0.0839  0.0658 -0.0576
   99SAPS   O13 9888   2.719   5.203   6.287 -0.2793 -0.1378 -0.2364
   99SAPS   O14 9889   2.495   5.083   6.295  0.0600  0.1379 -0.2121
   99SAPS   O12 9890   2.701   5.019   6.430  0.6102  0.5865 -0.0462
   99SAPS   O11 9891   2.575   5.219   6.480 -0.1003  0.0522 -0.4944
   99SAPS    C1 9892   2.654   5.226   6.600  0.0154  0.4284 -0.6014
   99SAPS    HA 9893   2.763   5.214   6.582 -0.2379 -2.5297 -0.5617
   99SAPS    HB 9894   2.632   5.325   6.643 -2.5701 -0.9389  1.3524
   99SAPS    C2 9895   2.600   5.136   6.723  0.3984 -0.0194 -0.6215
   99SAPS    HS 9896   2.665   5.047   6.712  0.8423  0.3216 -0.7652
   99SAPS   O21 9897   2.456   5.118   6.708 -0.2111 -0.3103  1.2059
   99SAPS   C21 9898   2.408   5.019   6.770  0.9733  0.1514 -0.3999
   99SAPS   O22 9899   2.481   4.942   6.827 -0.8527 -0.3388  0.0520
   99SAPS   C22 9900   2.258   5.018   6.792  0.4275 -0.5148 -0.4654
   99SAPS   H2R 9901   2.229   5.117   6.832  0.6185 -0.6655  0.0447
   99SAPS   H2S 9902   2.203   4.995   6.698  1.1954 -0.9100 -0.8255
   99SAPS    C3 9903   2.632   5.223   6.848  1.0226 -0.0736  0.4815
   99SAPS    HX 9904   2.593   5.164   6.934 -1.1201 -0.3851 -0.6584
   99SAPS    HY 9905   2.582   5.322   6.853  4.5601  1.7465  1.0422
   99SAPS   O31 9906   2.778   5.256   6.857  0.3478 -0.0289 -0.1654
   99SAPS   C31 9907   2.808   5.284   6.986  0.4805  0.0223  0.1931
   99SAPS   O32 9908   2.730   5.307   7.078 -0.5308  0.1155  0.2336
   99SAPS   C32 9909   2.960   5.266   6.997 -0.1030  0.1056  0.4485
   99SAPS   H2X 9910   3.005   5.330   6.918 -0.5754  0.0328  0.1176
   99SAPS   H2Y 9911   2.985   5.161   6.970 -0.8999  0.2189 -0.7918
   99SAPS   C23 9912   2.201   4.898   6.872  0.4355  0.0033  0.3837
   99SAPS   H3R 9913   2.241   4.906   6.976  2.1873 -0.4410 -0.2593
   99SAPS   H3S 9914   2.231   4.803   6.825  2.8582  0.7483  0.3761
   99SAPS   C24 9915   2.047   4.906   6.899 -0.1287  0.7206  0.2098
   99SAPS   H4R 9916   2.018   4.817   6.960  1.0917 -0.1168 -0.4016
   99SAPS   H4S 9917   2.004   4.922   6.798 -0.6544  1.2005  0.5062
   99SAPS   C25 9918   2.007   5.025   6.980  0.1856  0.2737  0.1805
   99SAPS   H5R 9919   1.975   5.111   6.919 -1.3642  0.1400  0.7764
   99SAPS   C26 9920   2.010   5.028   7.116 -0.0518 -0.4738  0.4796
   99SAPS   H6R 9921   1.971   5.113   7.175  1.8863  0.1857  0.8544
   99SAPS   C27 9922   2.061   4.920   7.209  0.0231 -0.0131  0.3730
   99SAPS   H7R 9923   2.126   4.850   7.153 -2.7131 -2.1720 -0.1808
   99SAPS   H7S 9924   1.976   4.867   7.256  0.1811  0.0649  0.7422
   99SAPS   C28 9925   2.151   4.985   7.311  0.0261 -0.1090  0.6329
   99SAPS   H8R 9926   2.241   5.032   7.268  0.2417 -1.3167 -0.2349
   99SAPS   C29 9927   2.120   5.014   7.438  0.7920  0.7738  0.6714
   99SAPS   H9R 9928   2.190   5.069   7.502  0.2732  1.1107  0.9537
   99SAPS  C210 9929   1.997   4.973   7.515  0.3760 -0.5122 -0.1681
   99SAPS  H10R 9930   2.018   4.954   7.623 -2.7425 -0.1680  0.5513
   99SAPS  H10S 9931   1.957   4.879   7.470  2.0949 -0.2725 -2.2518
   99SAPS  C211 9932   1.877   5.062   7.496 -0.1738 -1.3596 -0.2218
   99SAPS  H11R 9933   1.836   5.054   7.395  1.5284  2.0996 -1.2624
   99SAPS  C212 9934   1.807   5.127   7.591  0.6737  0.2091  0.1201
   99SAPS  H12R 9935   1.720   5.190   7.564  0.9933  0.5401 -0.1337
   99SAPS  C213 9936   1.839   5.136   7.738 -0.3392  0.9724  0.7420
   99SAPS  H13R 9937   1.849   5.245   7.760 -1.3833  0.3912  4.4506
   99SAPS  H13S 9938   1.938   5.095   7.766 -0.2815 -0.3180 -1.2675
   99SAPS  C214 9939   1.728   5.088   7.826 -0.0852 -0.1497  0.1630
   99SAPS  H14R 9940   1.640   5.052   7.771 -1.1365  0.7019  1.2619
   99SAPS  C215 9941   1.714   5.100   7.962 -0.0898  0.3210  0.3111
   99SAPS  H15R 9942   1.620   5.068   8.009 -0.1215 -2.4350 -1.5106
   99SAPS  C216 9943   1.815   5.161   8.063  0.2790 -0.5604 -0.4633
   99SAPS  H16R 9944   1.774   5.264   8.070 -0.8126 -1.1293  2.3596
   99SAPS  H16S 9945   1.904   5.183   8.001  0.0553 -1.4246 -1.0947
   99SAPS  C217 9946   1.836   5.087   8.198 -0.8614 -0.0280  0.3873
   99SAPS  H17R 9947   1.739   5.087   8.253 -1.2616  1.6163 -0.2906
   99SAPS  H17S 9948   1.913   5.146   8.252  2.1582 -0.4731 -3.2388
   99SAPS  C218 9949   1.882   4.940   8.184  0.3400  0.3197 -0.5614
   99SAPS  H18R 9950   1.804   4.872   8.144 -0.0382 -0.2675  1.1015
   99SAPS  H18S 9951   1.915   4.898   8.282 -3.1101  2.6023  1.7401
   99SAPS  C219 9952   2.004   4.932   8.087  0.6518 -0.1100 -0.0506
   99SAPS  H19R 9953   1.971   4.956   7.984 -1.9060  0.2944  0.8243
   99SAPS  H19S 9954   2.035   4.825   8.084  1.3838  0.1268 -0.9983
   99SAPS  C220 9955   2.128   5.016   8.126 -0.1947 -0.2857  0.3606
   99SAPS  H20R 9956   2.178   4.994   8.223 -0.9038  4.4574  1.9425
   99SAPS  H20S 9957   2.100   5.123   8.131  0.6841 -0.0398  0.0110
   99SAPS  H20T 9958   2.207   5.001   8.050 -1.5017 -0.1476 -1.0463
   99SAPS   C33 9959   3.014   5.312   7.130  0.1925 -0.1494  0.1228
   99SAPS   H3X 9960   2.974   5.248   7.211  0.0159  0.4433  0.5030
   99SAPS   H3Y 9961   2.989   5.417   7.154 -3.6525 -0.5367 -1.7612
   99SAPS   C34 9962   3.164   5.297   7.120 -0.8902  0.2446  0.1033
   99SAPS   H4X 9963   3.212   5.373   7.055 -0.0254 -0.2471  0.1614
   99SAPS   H4Y 9964   3.202   5.198   7.089  1.1278  1.1724 -0.4311
   99SAPS   C35 9965   3.226   5.304   7.256  0.2907  0.2767 -0.3251
   99SAPS   H5X 9966   3.179   5.396   7.296 -3.9416 -1.4392 -1.0543
   99SAPS   H5Y 9967   3.337   5.310   7.246  0.5522  0.4148  2.3687
   99SAPS   C36 9968   3.192   5.183   7.347 -0.2856 -0.4773 -0.6097
   99SAPS   H6X 9969   3.214   5.091   7.289  0.0276 -2.0946  1.9785
   99SAPS   H6Y 9970   3.083   5.177   7.370 -0.3332  2.9191  0.3451
   99SAPS   C37 9971   3.261   5.194   7.480  0.3081 -0.5201 -0.1771
   99SAPS   H7X 9972   3.367   5.228   7.472  0.7150 -1.7997 -0.2694
   99SAPS   H7Y 9973   3.250   5.093   7.524 -0.1627 -0.7306 -0.7771
   99SAPS   C38 9974   3.186   5.293   7.567  0.4612 -0.1142 -0.3696
   99SAPS   H8X 9975   3.092   5.251   7.609 -1.4601  2.7611 -1.6339
   99SAPS   H8Y 9976   3.153   5.382   7.508  0.3094 -0.4957 -0.8601
   99SAPS   C39 9977   3.263   5.343   7.690  0.4144  0.3402  0.9133
   99SAPS   H9X 9978   3.321   5.431   7.656 -0.7638  0.8879  0.2954
   99SAPS   H9Y 9979   3.336   5.262   7.713 -2.0123 -2.6563 -1.4212
   99SAPS  C310 9980   3.181   5.370   7.821  0.0824  0.2435  0.2725
   99SAPS  H10X 9981   3.127   5.277   7.851 -1.1072  0.3175 -1.5785
   99SAPS  H10Y 9982   3.112   5.454   7.797 -1.1713 -0.1863  2.2128
   99SAPS  C311 9983   3.280   5.406   7.939 -0.3748 -0.6413  0.1781
   99SAPS  H11X 9984   3.342   5.491   7.902  0.8576 -1.0569  1.2541
   99SAPS  H11Y 9985   3.349   5.319   7.944 -0.1061 -0.4648 -0.3874
   99SAPS  C312 9986   3.228   5.438   8.076  0.4329  1.1337 -0.1614
   99SAPS  H12X 9987   3.246   5.348   8.140  0.1174  0.5886 -0.8367
   99SAPS  H12Y 9988   3.121   5.463   8.065  1.2753  3.3916 -3.9122
   99SAPS  C313 9989   3.304   5.564   8.130  0.0674  0.7073  0.0967
   99SAPS  H13X 9990   3.269   5.650   8.069  0.0342  0.5418 -0.1156
   99SAPS  H13Y 9991   3.415   5.558   8.121  0.0652  1.0570 -0.1619
   99SAPS  C314 9992   3.266   5.604   8.270 -0.3860  0.1455 -0.2146
   99SAPS  H14X 9993   3.158   5.623   8.289 -0.5117 -0.5983 -0.1756
   99SAPS  H14Y 9994   3.308   5.706   8.286 -1.8728  0.3909  2.3702
   99SAPS  C315 9995   3.324   5.508   8.375  0.0364 -0.1170 -0.9371
   99SAPS  H15X 9996   3.432   5.503   8.349  0.0604 -0.5947 -0.7554
   99SAPS  H15Y 9997   3.288   5.404   8.355  2.0250 -0.5752 -2.2346
   99SAPS  C316 9998   3.293   5.557   8.520 -0.0873  0.2121 -0.0485
   99SAPS  H16X 9999   3.358   5.644   8.541 -2.4557  2.1148 -0.4259
   99SAPS  H16Y10000   3.315   5.475   8.593 -1.9167 -0.8207 -0.6293
   99SAPS  C31710001   3.146   5.594   8.545 -0.0509 -0.6465  0.8125
   99SAPS  H17X10002   3.090   5.515   8.490 -0.2339  0.3944 -0.5198
   99SAPS  H17Y10003   3.130   5.692   8.495 -0.6499 -0.4683  1.3445
   99SAPS  C31810004   3.108   5.604   8.687 -0.1927  0.5433  0.4357
   99SAPS  H18X10005   3.119   5.503   8.730  2.0621  0.7964  0.5153
   99SAPS  H18Y10006   2.998   5.622   8.689 -0.1574  0.6166  1.7411
   99SAPS  H18Z10007   3.165   5.689   8.732 -1.6850  2.0779 -0.4816
  100SAPS     N10008   5.820   0.349   6.347  0.4881 -0.5437  0.2618
  100SAPS   HN110009   5.763   0.362   6.433  0.6021 -1.8059  0.5420
  100SAPS   HN210010   5.754   0.319   6.272  1.6060 -1.9813 -0.1777
  100SAPS   HN310011   5.888   0.272   6.365  0.0531 -1.5073 -2.0481
  100SAPS   C1210012   5.901   0.466   6.296 -0.5959 -1.1271 -0.4348
  100SAPS  H12A10013   5.967   0.500   6.375 -1.7762  0.7243 -0.2179
  100SAPS   C1310014   5.989   0.433   6.177 -0.0298  0.2621  0.1219
  100SAPS  O13A10015   5.980   0.320   6.117  0.4102  0.1996  0.0300
  100SAPS  O13B10016   6.068   0.525   6.142  0.1833  0.4755  0.7742
  100SAPS   C1110017   5.794   0.573   6.270 -0.0828  0.5713 -0.4927
  100SAPS  H11A10018   5.851   0.662   6.236 -0.4776  1.7728  1.8951
  100SAPS  H11B10019   5.741   0.594   6.365  1.7050 -1.1814  0.9315
  100SAPS     P10020   5.593   0.660   6.142  0.0054 -0.2107  0.0953
  100SAPS   O1310021   5.661   0.793   6.167  0.2020  0.5605 -0.3605
  100SAPS   O1410022   5.522   0.645   6.012  0.0048  0.0507  0.2115
  100SAPS   O1210023   5.700   0.543   6.166 -0.0575  0.7658 -0.2198
  100SAPS   O1110024   5.484   0.638   6.259 -0.1689  0.4002 -0.0739
  100SAPS    C110025   5.420   0.517   6.270 -0.3194 -0.0773 -0.0233
  100SAPS    HA10026   5.314   0.550   6.270  0.2348  1.7259  0.9368
  100SAPS    HB10027   5.431   0.452   6.181 -0.9258  2.5711 -2.0945
  100SAPS    C210028   5.426   0.449   6.401 -0.2760  0.2477 -0.1473
  100SAPS    HS10029   5.511   0.378   6.400 -0.5773 -0.1115 -0.5160
  100SAPS   O2110030   5.294   0.388   6.437  0.0219  0.1643  0.1431
  100SAPS   C2110031   5.311   0.286   6.515 -0.1264 -0.2311  0.0487
  100SAPS   O2210032   5.417   0.237   6.542  0.5053  0.3376  0.7337
  100SAPS   C2210033   5.179   0.223   6.564  0.0432 -0.7662  0.2929
  100SAPS   H2R10034   5.117   0.306   6.606  0.0186  0.9079 -2.9185
  100SAPS   H2S10035   5.123   0.170   6.484 -0.5103  0.6674 -0.3037
  100SAPS    C310036   5.451   0.552   6.517  0.6257  0.1188  0.1672
  100SAPS    HX10037   5.364   0.621   6.520  0.8517  0.3632  1.3140
  100SAPS    HY10038   5.540   0.608   6.482  1.0334  0.4418  1.6573
  100SAPS   O3110039   5.475   0.495   6.650 -0.5983  0.3883  0.3028
  100SAPS   C3110040   5.595   0.438   6.672 -0.1567 -0.1405  0.2089
  100SAPS   O3210041   5.685   0.436   6.587  0.7100  0.6666 -0.3882
  100SAPS   C3210042   5.602   0.376   6.805  0.3174 -0.4552  0.1736
  100SAPS   H2X10043   5.547   0.279   6.805  0.3906 -0.4984  1.4658
  100SAPS   H2Y10044   5.559   0.451   6.874  0.3390  0.0854 -0.3915
  100SAPS   C2310045   5.196   0.120   6.686 -0.2385 -0.3527 -0.3310
  100SAPS   H3R10046   5.265   0.040   6.649 -0.1575 -0.8164  0.8099
  100SAPS   H3S10047   5.096   0.073   6.701 -0.6298  0.1742 -1.2484
  100SAPS   C2410048   5.225   0.187   6.824  0.4920 -0.0370 -1.2448
  100SAPS   H4R10049   5.140   0.258   6.836  1.4449  1.1262 -1.2414
  100SAPS   H4S10050   5.321   0.244   6.820  0.2936  0.2717 -1.6637
  100SAPS   C2510051   5.231   0.098   6.944 -0.4462  0.7992  0.4769
  100SAPS   H5R10052   5.157   0.017   6.935 -1.2839  1.6492 -0.4230
  100SAPS   C2610053   5.300   0.110   7.055  0.2931  0.0744  0.1622
  100SAPS   H6R10054   5.293   0.017   7.113 -1.3580  0.6555  0.9224
  100SAPS   C2710055   5.395   0.221   7.091  0.1419 -0.0175  0.0537
  100SAPS   H7R10056   5.357   0.316   7.048  1.0027  0.0269 -0.6314
  100SAPS   H7S10057   5.496   0.207   7.045  0.5836 -2.2321  1.6201
  100SAPS   C2810058   5.405   0.242   7.238  0.3929 -0.4943  0.3683
  100SAPS   H8R10059   5.493   0.209   7.294 -0.9499 -2.9916  1.1108
  100SAPS   C2910060   5.310   0.293   7.315  0.5468  0.1176  0.4535
  100SAPS   H9R10061   5.333   0.304   7.422  0.7054  2.2929  0.2204
  100SAPS  C21010062   5.174   0.351   7.281 -1.1974 -0.1330  0.4106
  100SAPS  H10R10063   5.121   0.368   7.377 -0.7272 -2.0995  1.0535
  100SAPS  H10S10064   5.125   0.273   7.219 -0.4226 -0.3334  0.0549
  100SAPS  C21110065   5.205   0.480   7.210 -0.7956 -0.3194 -0.0218
  100SAPS  H11R10066   5.287   0.477   7.136 -0.3068 -0.1251  0.5107
  100SAPS  C21210067   5.154   0.598   7.237  0.3662  0.4104  0.5728
  100SAPS  H12R10068   5.168   0.673   7.157 -1.4627  1.4751  1.2194
  100SAPS  C21310069   5.054   0.633   7.346  0.5039 -0.4219 -0.1063
  100SAPS  H13R10070   4.987   0.545   7.355 -0.2239  0.0904 -0.4057
  100SAPS  H13S10071   4.986   0.717   7.319 -0.5803 -1.5456 -0.9587
  100SAPS  C21410072   5.104   0.657   7.486 -0.5143 -0.3244 -0.5318
  100SAPS  H14R10073   5.117   0.563   7.542  0.9303 -0.2539 -0.7433
  100SAPS  C21510074   5.139   0.774   7.540 -0.6495 -1.0116  1.1191
  100SAPS  H15R10075   5.168   0.785   7.645  3.6214 -1.8124  0.1524
  100SAPS  C21610076   5.129   0.906   7.464 -0.3414 -0.3000  0.8666
  100SAPS  H16R10077   5.115   0.998   7.525 -0.1480  0.8497 -0.7909
  100SAPS  H16S10078   5.042   0.900   7.396  1.5867  0.2122 -1.7295
  100SAPS  C21710079   5.250   0.941   7.373 -0.3407 -0.1811 -0.1663
  100SAPS  H17R10080   5.264   0.861   7.296 -0.3136 -1.9836  1.6517
  100SAPS  H17S10081   5.341   0.939   7.437  0.0283  0.6985 -0.6550
  100SAPS  C21810082   5.239   1.087   7.314  0.4038  0.4915  0.8367
  100SAPS  H18R10083   5.340   1.111   7.273  0.2632 -1.4902 -0.7440
  100SAPS  H18S10084   5.232   1.158   7.399  0.4096  1.1706  0.2817
  100SAPS  C21910085   5.125   1.115   7.219  0.2115 -0.4900  0.2798
  100SAPS  H19R10086   5.142   1.210   7.163  0.2680 -0.5900  0.1268
  100SAPS  H19S10087   5.023   1.125   7.262 -0.1273  0.6979 -0.7761
  100SAPS  C22010088   5.119   1.010   7.104 -0.4371  0.7266 -0.6123
  100SAPS  H20R10089   5.221   1.004   7.060 -0.3507 -0.9005 -0.2170
  100SAPS  H20S10090   5.048   1.053   7.030 -0.1259  0.3292 -1.1535
  100SAPS  H20T10091   5.094   0.917   7.160  1.4088  0.9101  0.5592
  100SAPS   C3310092   5.745   0.346   6.861  0.4312 -0.6010  0.8753
  100SAPS   H3X10093   5.807   0.436   6.842 -1.6417  1.2241  2.4798
  100SAPS   H3Y10094   5.784   0.257   6.806 -1.0782  1.2217 -3.3366
  100SAPS   C3410095   5.755   0.310   7.012 -0.7271 -0.5585 -0.8081
  100SAPS   H4X10096   5.742   0.200   7.021 -3.7672 -0.1872 -0.2541
  100SAPS   H4Y10097   5.682   0.361   7.079  1.4840 -0.9544  2.0145
  100SAPS   C3510098   5.891   0.359   7.072  0.1949  0.0164  0.5706
  100SAPS   H5X10099   5.873   0.468   7.089 -1.1313  0.2036 -1.7721
  100SAPS   H5Y10100   5.979   0.350   7.006 -0.4693  1.8080 -0.6180
  100SAPS   C3610101   5.908   0.301   7.205  0.0553 -0.5650  0.4802
  100SAPS   H6X10102   6.017   0.302   7.225  0.4008  0.9159 -1.3789
  100SAPS   H6Y10103   5.868   0.197   7.201 -1.7409  0.1634 -1.9257
  100SAPS   C3710104   5.819   0.350   7.321 -0.1453 -0.2924  0.0622
  100SAPS   H7X10105   5.712   0.354   7.293 -0.2928 -1.0271  0.5071
  100SAPS   H7Y10106   5.842   0.456   7.344  3.4366 -1.1247  0.6562
  100SAPS   C3810107   5.837   0.257   7.443 -0.7761 -0.6168  0.3824
  100SAPS   H8X10108   5.933   0.276   7.497  0.8599  1.0271 -2.9615
  100SAPS   H8Y10109   5.832   0.148   7.421 -1.5221 -0.7033  0.9818
  100SAPS   C3910110   5.733   0.293   7.543 -0.2060  0.0203  0.3883
  100SAPS   H9X10111   5.630   0.280   7.502  0.4517 -1.1031 -0.9434
  100SAPS   H9Y10112   5.746   0.401   7.563  0.7636  0.4839 -2.5365
  100SAPS  C31010113   5.748   0.220   7.675  0.5721 -0.5853  0.8925
  100SAPS  H10X10114   5.677   0.264   7.748  0.0111  1.3121 -0.7528
  100SAPS  H10Y10115   5.849   0.231   7.722  1.3371 -0.6122 -0.7256
  100SAPS  C31110116   5.720   0.069   7.673 -0.0324  0.3881 -0.4373
  100SAPS  H11X10117   5.788   0.027   7.596  0.4799  0.8342 -0.2303
  100SAPS  H11Y10118   5.617   0.059   7.633 -1.0142  0.1339  2.0888
  100SAPS  C31210119   5.735   0.004   7.807  0.3009 -0.2519 -0.7255
  100SAPS  H12X10120   5.656   0.040   7.876  0.2626 -0.2964 -0.7464
  100SAPS  H12Y10121   5.836   0.020   7.852  0.2774 -1.3163 -0.2918
  100SAPS  C31310122   5.703  -0.147   7.791 -0.2900 -0.5954  0.6101
  100SAPS  H13X10123   5.784  -0.182   7.724 -1.0188 -1.5260  0.2094
  100SAPS  H13Y10124   5.598  -0.175   7.766 -0.5556 -0.3613  1.4331
  100SAPS  C31410125   5.738  -0.217   7.919 -0.8116 -0.5946 -0.4162
  100SAPS  H14X10126   5.827  -0.174   7.969 -1.3596  1.2774 -0.9992
  100SAPS  H14Y10127   5.756  -0.324   7.899  0.3967 -0.6748  0.9876
  100SAPS  C31510128   5.631  -0.215   8.038  0.1435  0.7574 -0.2608
  100SAPS  H15X10129   5.539  -0.271   8.009 -0.5573  1.4652  0.5600
  100SAPS  H15Y10130   5.620  -0.107   8.058 -0.9317  1.0517 -2.2268
  100SAPS  C31610131   5.683  -0.293   8.161  0.0774  0.2281 -0.8174
  100SAPS  H16X10132   5.759  -0.228   8.209  0.2201 -1.4493  1.3234
  100SAPS  H16Y10133   5.749  -0.376   8.129 -0.5839 -0.7115  0.1847
  100SAPS  C31710134   5.572  -0.357   8.253  0.1968 -0.4414 -0.2452
  100SAPS  H17X10135   5.523  -0.432   8.186  0.6017  0.9660 -2.1455
  100SAPS  H17Y10136   5.500  -0.278   8.282 -1.7988 -1.3257 -2.5680
  100SAPS  C31810137   5.627  -0.419   8.383  0.0080 -0.3182 -0.0713
  100SAPS  H18X10138   5.682  -0.515   8.377  0.5245 -0.0247 -0.1198
  100SAPS  H18Y10139   5.547  -0.414   8.460  0.2526 -1.7770  0.2834
  100SAPS  H18Z10140   5.692  -0.340   8.428 -1.2956  0.9578 -0.3804
  101OSM      N10141   4.578   6.773  11.043  0.9340 -0.7947 -0.1409
  101OSM    C1510142   4.512   6.739  11.180  0.4935 -0.3425 -0.1088
  101OSM   H15A10143   4.412   6.781  11.192 -0.2674 -1.8088 -1.2009
  101OSM   H15B10144   4.573   6.771  11.263 -0.7024  1.6907  0.0186
  101OSM   H15C10145   4.484   6.635  11.185  1.2013 -0.4758  1.1004
  101OSM    C1410146   4.564   6.928  11.032 -0.2621 -0.9022  0.4757
  101OSM   H14A10147   4.458   6.947  11.025  0.2027  0.7025 -2.9103
  101OSM   H14B10148   4.610   6.946  10.936  3.7629 -1.8811  2.1196
  101OSM   H14C10149   4.605   6.988  11.111  1.3605  0.4150 -1.3274
  101OSM    C1310150   4.722   6.725  11.049 -0.7935  0.1002  0.0826
  101OSM   H13A10151   4.725   6.618  11.063 -0.0447  0.4551  2.9820
  101OSM   H13B10152   4.787   6.766  11.125  0.2466 -2.7683  0.7931
  101OSM   H13C10153   4.767   6.731  10.951  0.2022  0.6876  0.5556
  101OSM    C1210154   4.508   6.710  10.919 -0.2967 -0.3369  0.3725
  101OSM   H12A10155   4.536   6.762  10.829 -2.5163 -0.5552 -0.4610
  101OSM   H12B10156   4.404   6.737  10.922  0.1832  1.5032  2.0197
  101OSM    C1110157   4.539   6.560  10.886  0.7459 -0.1482  0.1812
  101OSM   H11A10158   4.463   6.531  10.810  0.0445  1.2066  0.3451
  101OSM   H11B10159   4.526   6.506  10.982  1.8887  2.1852  1.7145
  101OSM      P10160   4.724   6.576  10.700 -0.1343 -0.1501 -0.1187
  101OSM    O1310161   4.693   6.718  10.691 -0.0276 -0.0463  0.0530
  101OSM    O1410162   4.867   6.535  10.689  0.4174  0.0753 -0.2416
  101OSM    O1110163   4.643   6.479  10.603 -0.4745  0.2262  0.4737
  101OSM    O1210164   4.671   6.537  10.838 -0.9652  0.3576  0.1935
  101OSM    C1S10165   4.556   6.533  10.504  0.4606  0.4431 -0.3468
  101OSM    H1S10166   4.480   6.602  10.546 -0.0202 -0.8230  0.8848
  101OSM    H1T10167   4.492   6.448  10.473  0.7262  1.0446 -2.6092
  101OSM     NF10168   4.535   6.656  10.299 -0.2199 -0.0037  0.0836
  101OSM    HNF10169   4.484   6.612  10.226 -1.2787 -0.2758  0.9765
  101OSM    C2S10170   4.630   6.583  10.375 -0.0687  1.0078  0.4433
  101OSM    H2S10171   4.711   6.652  10.406  0.5458  0.1924  0.6540
  101OSM    C3S10172   4.690   6.464  10.301 -0.2863  0.2316 -0.1874
  101OSM    H3S10173   4.608   6.396  10.270  3.0978 -3.3629 -1.6924
  101OSM     O310174   4.767   6.375  10.374  0.9436 -0.2583  0.0154
  101OSM    HO310175   4.749   6.409  10.462 -2.2353 -1.7235 -0.0152
  101OSM    C4S10176   4.754   6.522  10.182 -0.1493  0.0191  0.4494
  101OSM    H4S10177   4.689   6.531  10.093  0.9430  1.2391 -0.2396
  101OSM    C5S10178   4.883   6.543  10.171 -0.3617 -0.2772 -0.8123
  101OSM    H5S10179   4.944   6.509  10.255 -1.8480 -0.6040  0.1472
  101OSM    C6S10180   4.947   6.590  10.053  0.2410 -0.5803  0.7596
  101OSM    H6S10181   5.048   6.542  10.050  0.2683 -0.4369 -1.3289
  101OSM    H6T10182   4.958   6.699  10.071 -0.7632 -0.7105  2.1803
  101OSM    C7S10183   4.878   6.575   9.921 -0.2417  0.3383  0.0494
  101OSM    H7S10184   4.781   6.626   9.909 -0.3821 -0.0936 -0.6812
  101OSM    H7T10185   4.857   6.468   9.899  1.0781  0.3975 -1.6083
  101OSM    C8S10186   4.985   6.597   9.807 -0.0400 -0.3080  0.1579
  101OSM    H8S10187   5.066   6.520   9.810 -0.6537 -0.9412  0.7100
  101OSM    H8T10188   5.028   6.698   9.820 -1.0410  0.0639  0.6248
  101OSM    C9S10189   4.909   6.592   9.671  0.9078 -0.6385  0.2573
  101OSM    H9S10190   4.831   6.671   9.668 -0.1796 -1.5684  2.7402
  101OSM    H9T10191   4.844   6.501   9.667 -1.8067  1.2034  0.6239
  101OSM   C10S10192   5.010   6.616   9.551 -0.8830 -1.0598 -0.2314
  101OSM   H10S10193   5.083   6.533   9.542  0.2643 -0.1701  0.6983
  101OSM   H10T10194   5.065   6.712   9.544  1.0852 -2.0891  0.9087
  101OSM   C11S10195   4.923   6.601   9.420  0.0888 -0.0104  0.6695
  101OSM   H11S10196   4.845   6.679   9.430 -0.4399 -0.5924  1.2228
  101OSM   H11T10197   4.875   6.501   9.427 -2.5343  1.2076  0.7583
  101OSM   C12S10198   4.983   6.635   9.283  0.2763  0.3038 -0.1553
  101OSM   H12S10199   5.072   6.571   9.268  1.1531  1.3203  0.7142
  101OSM   H12T10200   5.020   6.739   9.278  0.5236  0.5136  4.3078
  101OSM   C13S10201   4.893   6.608   9.163 -0.3870 -0.2314  0.3511
  101OSM   H13S10202   4.801   6.668   9.178  0.2175  2.3509 -5.0344
  101OSM   H13T10203   4.854   6.504   9.163 -0.3283 -0.2742 -1.4902
  101OSM   C14S10204   4.962   6.626   9.025 -0.0896  0.3114  0.3973
  101OSM   H14S10205   4.967   6.526   8.977 -0.2722  1.2859 -1.6842
  101OSM   H14T10206   5.064   6.661   9.054 -0.0295 -0.8256  1.6286
  101OSM   C15S10207   4.896   6.734   8.935 -0.7826 -0.0826 -0.3730
  101OSM   H15S10208   4.960   6.753   8.846  1.0444 -3.6716  0.1051
  101OSM   H15T10209   4.885   6.826   8.996  0.8613 -0.7238  0.9004
  101OSM   C16S10210   4.759   6.697   8.877 -0.2329 -0.1322  0.2336
  101OSM   H16S10211   4.684   6.705   8.957  0.7409  0.2322  1.1197
  101OSM   H16T10212   4.763   6.592   8.840  0.6836  0.2373 -0.7519
  101OSM   C17S10213   4.708   6.790   8.757 -0.2178  0.1795 -0.2637
  101OSM   H17S10214   4.609   6.751   8.726 -1.5272  0.1514  3.7292
  101OSM   H17T10215   4.777   6.787   8.669  0.5378  0.3569  0.3157
  101OSM   C18S10216   4.668   6.933   8.801 -0.1046 -0.3368  0.2575
  101OSM   H18S10217   4.591   6.917   8.879  0.0553 -0.2570  0.4335
  101OSM   H18T10218   4.629   7.002   8.723 -0.7493 -0.1816  0.7141
  101OSM   H18U10219   4.756   6.979   8.850  0.3646 -0.3734 -0.5348
  101OSM    C1F10220   4.498   6.780  10.328  0.2218 -0.2998 -0.4750
  101OSM     OF10221   4.564   6.842  10.409  0.0595  0.6929 -0.0729
  101OSM    C2F10222   4.396   6.846  10.242 -0.0735 -0.5605 -0.5575
  101OSM    H2F10223   4.299   6.793  10.240 -0.5884  0.3876 -1.0862
  101OSM    H2G10224   4.439   6.852  10.139  0.4862 -2.5922 -0.4697
  101OSM    C3F10225   4.365   6.988  10.295  0.3212 -1.0593  0.0471
  101OSM    H3F10226   4.456   7.051  10.307  0.0246 -0.4727 -0.7811
  101OSM    H3G10227   4.316   6.981  10.395  1.9290 -0.5494  0.8962
  101OSM    C4F10228   4.276   7.061  10.186  0.3277 -0.3239  0.6088
  101OSM    H4F10229   4.181   7.007  10.168 -0.6331  1.4751  0.2353
  101OSM    H4G10230   4.346   7.076  10.100  0.0294  1.2296  0.6297
  101OSM    C5F10231   4.245   7.207  10.232 -0.3526 -0.2738  0.9228
  101OSM    H5F10232   4.328   7.235  10.299 -0.1010  0.4443  0.3211
  101OSM    H5G10233   4.149   7.201  10.288 -1.2646 -2.0803 -0.7369
  101OSM    C6F10234   4.224   7.304  10.108 -0.8789 -0.2668  0.0131
  101OSM    H6F10235   4.319   7.317  10.053 -0.8107 -2.3218 -0.3921
  101OSM    H6G10236   4.179   7.402  10.136 -3.5008 -1.2920 -0.5141
  101OSM    C7F10237   4.126   7.254  10.007 -0.6241 -0.6749  0.1789
  101OSM    H7F10238   4.022   7.265  10.045  0.0894  2.7249  1.2988
  101OSM    H7G10239   4.138   7.144   9.998 -0.6083 -0.8229  1.8545
  101OSM    C8F10240   4.133   7.330   9.876 -0.2480  0.0778 -0.0668
  101OSM    H8F10241   4.057   7.283   9.810  1.2059 -0.1579 -1.6010
  101OSM    H8G10242   4.233   7.329   9.827  0.4345  0.2852  1.3167
  101OSM    C9F10243   4.086   7.476   9.898 -0.0209 -0.7635 -0.0815
  101OSM    H9F10244   4.155   7.540   9.954  0.4692 -0.9145 -0.5145
  101OSM   C10F10245   3.967   7.526   9.865  0.4911  0.1270 -0.2485
  101OSM   H10F10246   3.969   7.636   9.869  2.5575  0.2013 -2.2754
  101OSM   C11F10247   3.851   7.465   9.800  0.9286 -0.7939 -0.4021
  101OSM   H11F10248   3.762   7.505   9.854  0.9144  1.3091 -1.9218
  101OSM   H11G10249   3.845   7.354   9.811 -2.2100 -0.7591 -1.1219
  101OSM   C12F10250   3.831   7.506   9.654  0.6874 -0.2419 -0.1194
  101OSM   H12F10251   3.815   7.615   9.636  1.7530 -0.2553 -1.1928
  101OSM   H12G10252   3.738   7.458   9.617  1.1504 -0.4363 -1.0351
  101OSM   C13F10253   3.944   7.455   9.565  0.2677  0.2810  0.7996
  101OSM   H13F10254   3.949   7.345   9.580 -0.2670  0.0603 -0.5382
  101OSM   H13G10255   4.046   7.492   9.586  0.8705 -0.5464 -0.5792
  101OSM   C14F10256   3.911   7.473   9.417  0.1527 -0.0698 -0.3228
  101OSM   H14F10257   3.809   7.434   9.393  0.5396 -1.2054 -0.1304
  101OSM   H14G10258   3.982   7.412   9.357  0.4077 -0.4862  0.3980
  101OSM   C15F10259   3.937   7.619   9.368 -0.2064 -0.3601 -0.5026
  101OSM   H15F10260   4.047   7.630   9.373  0.0394 -3.3461  2.5911
  101OSM   H15G10261   3.864   7.685   9.420 -1.6799 -0.5600 -2.2291
  101OSM   C16F10262   3.885   7.634   9.225 -0.0508  0.3345 -0.2878
  101OSM   H16F10263   3.774   7.628   9.219  0.0174 -2.6974  0.8734
  101OSM   H16G10264   3.918   7.549   9.162  0.6505  0.6349 -0.3316
  101OSM   C17F10265   3.929   7.768   9.150 -0.3677 -0.0862 -0.1878
  101OSM   H17F10266   3.909   7.761   9.041  0.8498 -0.4209 -0.3972
  101OSM   H17G10267   4.039   7.774   9.161 -0.2840  0.0901 -1.1405
  101OSM   C18F10268   3.893   7.900   9.205  0.4801  0.2123  0.8315
  101OSM   H18F10269   3.900   7.915   9.315 -2.0847 -2.9507  1.4966
  101OSM   H18G10270   3.786   7.911   9.177  1.4848  1.9472 -2.6789
  101OSM   H18H10271   3.939   7.986   9.151  0.0952 -1.3623 -2.0607
  102OSM      N10272   3.880   6.138  10.942  0.0985 -0.5594 -0.0997
  102OSM    C1510273   3.778   6.093  11.033 -0.5261  0.8764 -0.3192
  102OSM   H15A10274   3.705   6.036  10.978 -0.0566  0.3864 -0.4323
  102OSM   H15B10275   3.722   6.170  11.084 -0.4035  1.2784 -0.7837
  102OSM   H15C10276   3.822   6.030  11.109 -3.3114 -0.2369  0.4313
  102OSM    C1410277   3.991   6.202  11.015 -0.2415 -0.3481  0.4500
  102OSM   H14A10278   4.055   6.137  11.073  1.6806  0.3096 -0.8517
  102OSM   H14B10279   3.942   6.265  11.088 -0.3836 -0.8596  0.7912
  102OSM   H14C10280   4.055   6.262  10.951  0.7334  0.0166  1.7295
  102OSM    C1310281   3.932   6.020  10.863 -0.3291 -0.4355 -0.0209
  102OSM   H13A10282   3.983   5.946  10.922  0.6994 -1.2351 -1.8656
  102OSM   H13B10283   4.000   6.054  10.787 -1.2820 -1.2289 -1.2700
  102OSM   H13C10284   3.858   5.960  10.812 -1.5208  0.3507  0.7584
  102OSM    C1210285   3.822   6.236  10.839 -0.6163 -0.2722  0.6231
  102OSM   H12A10286   3.790   6.319  10.900  0.3819  0.3830  0.2788
  102OSM   H12B10287   3.730   6.198  10.797 -1.1563  1.8773 -0.2074
  102OSM    C1110288   3.902   6.296  10.724  0.3680 -0.6520 -0.2215
  102OSM   H11A10289   3.837   6.358  10.659 -0.2929 -1.1997 -0.0894
  102OSM   H11B10290   3.936   6.206  10.669  1.8841  0.3063 -0.8851
  102OSM      P10291   4.153   6.388  10.699 -0.3478 -0.2065  0.1054
  102OSM    O1310292   4.193   6.526  10.723  0.1395 -0.3049  0.0202
  102OSM    O1410293   4.241   6.282  10.749  0.1743  0.6535 -0.1038
  102OSM    O1110294   4.120   6.344  10.547  0.4484  0.6159  0.0095
  102OSM    O1210295   4.017   6.377  10.765  0.4951 -0.0768  0.2879
  102OSM    C1S10296   4.081   6.436  10.453  0.2043  0.4749 -0.0820
  102OSM    H1S10297   4.159   6.512  10.433  1.5327 -0.1209  2.5707
  102OSM    H1T10298   3.986   6.489  10.477  0.3933  0.9169 -0.3054
  102OSM     NF10299   3.980   6.465  10.230 -0.0815 -0.4197  0.5351
  102OSM    HNF10300   3.885   6.479  10.256 -0.3146 -1.4032  0.2309
  102OSM    C2S10301   4.047   6.371  10.315  0.3975 -0.3197 -0.1368
  102OSM    H2S10302   4.140   6.339  10.263  0.0832 -0.7721 -0.4205
  102OSM    C3S10303   3.956   6.239  10.334  0.2910 -0.4814  1.1374
  102OSM    H3S10304   3.855   6.276  10.360  0.8060  1.1300  0.9209
  102OSM     O310305   4.001   6.148  10.428  0.0237 -0.0337  0.1241
  102OSM    HO310306   4.046   6.207  10.489 -1.6794  1.4630 -0.0118
  102OSM    C4S10307   3.945   6.159  10.208  0.4057  0.4575  0.7405
  102OSM    H4S10308   4.035   6.151  10.145 -0.2592  1.1872 -0.3180
  102OSM    C5S10309   3.827   6.119  10.156 -0.4796 -0.2439  0.1152
  102OSM    H5S10310   3.735   6.155  10.206  1.2715  2.6718  1.4000
  102OSM    C6S10311   3.813   6.043  10.030  0.0220 -0.7068  0.9198
  102OSM    H6S10312   3.755   6.104   9.957  1.6172 -0.7854 -0.4222
  102OSM    H6T10313   3.746   5.957  10.050 -0.4068 -0.1220  2.0329
  102OSM    C7S10314   3.939   5.981   9.967  0.2174  0.0614  1.0217
  102OSM    H7S10315   3.992   5.911  10.035  2.5620  1.4866  0.7232
  102OSM    H7T10316   4.018   6.059   9.961  0.3386  0.0019  1.8019
  102OSM    C8S10317   3.917   5.923   9.831 -0.0951  0.9749 -0.5415
  102OSM    H8S10318   3.843   5.840   9.830  0.8992  0.0776 -0.6051
  102OSM    H8T10319   4.017   5.887   9.796 -0.0608  1.3834 -0.8670
  102OSM    C9S10320   3.879   6.023   9.718 -0.2114 -0.3732  0.3841
  102OSM    H9S10321   3.948   6.108   9.736  0.1823 -0.7583  0.7089
  102OSM    H9T10322   3.775   6.059   9.726  0.7767  3.1454 -1.7161
  102OSM   C10S10323   3.890   5.963   9.578 -0.1267 -0.1894 -0.7893
  102OSM   H10S10324   3.809   5.890   9.558 -0.6485  0.0984  0.2442
  102OSM   H10T10325   3.979   5.904   9.547  0.5514  0.6924 -0.5629
  102OSM   C11S10326   3.880   6.077   9.482  0.1467  0.3265  0.2777
  102OSM   H11S10327   3.976   6.131   9.462 -0.9148  1.7132 -1.1684
  102OSM   H11T10328   3.812   6.152   9.528 -1.5888 -0.7398 -0.5153
  102OSM   C12S10329   3.848   6.029   9.340 -0.0283 -0.0517 -0.4151
  102OSM   H12S10330   3.742   5.994   9.335 -0.3399  1.1091 -2.2791
  102OSM   H12T10331   3.907   5.942   9.306  2.0373  0.7943  0.9238
  102OSM   C13S10332   3.858   6.159   9.247 -0.9555  0.7676 -0.0809
  102OSM   H13S10333   3.966   6.187   9.246 -1.1127  1.4447  1.0523
  102OSM   H13T10334   3.800   6.243   9.291 -0.1987  1.9268 -1.2620
  102OSM   C14S10335   3.795   6.133   9.114  0.0280  0.3140 -0.0497
  102OSM   H14S10336   3.686   6.154   9.112  0.4852  2.9101  0.6989
  102OSM   H14T10337   3.811   6.031   9.072  0.9619  0.3317  0.2354
  102OSM   C15S10338   3.851   6.230   9.004 -0.4274  0.8059  0.0351
  102OSM   H15S10339   3.959   6.215   8.981 -0.4470  1.1319 -0.2878
  102OSM   H15T10340   3.842   6.337   9.033  0.7180  0.8118  0.3897
  102OSM   C16S10341   3.770   6.216   8.873 -0.8380  0.2194 -0.8462
  102OSM   H16S10342   3.730   6.116   8.847  0.6460 -0.2061 -1.5211
  102OSM   H16T10343   3.837   6.246   8.791  0.1927  0.7515  0.1707
  102OSM   C17S10344   3.664   6.316   8.866  0.1041 -0.7472 -0.0587
  102OSM   H17S10345   3.709   6.416   8.882 -0.5741 -0.5177  0.4656
  102OSM   H17T10346   3.596   6.289   8.950  2.2123 -1.0245  1.5957
  102OSM   C18S10347   3.578   6.307   8.744 -0.0864 -0.0827  0.5447
  102OSM   H18S10348   3.636   6.343   8.657 -2.1588  3.5257  0.5421
  102OSM   H18T10349   3.483   6.366   8.751  0.5406  0.8190  1.5809
  102OSM   H18U10350   3.543   6.203   8.731  0.4501 -0.3237  1.0256
  102OSM    C1F10351   4.044   6.570  10.174 -0.3554  0.4664  0.2400
  102OSM     OF10352   4.164   6.585  10.196 -0.2618 -0.6023 -0.1194
  102OSM    C2F10353   3.959   6.662  10.107  0.4449  0.0699  0.3897
  102OSM    H2F10354   3.876   6.683  10.177  0.4866 -1.1103  0.8134
  102OSM    H2G10355   3.918   6.622  10.012  0.1030  1.8529 -0.2174
  102OSM    C3F10356   4.032   6.802  10.100 -0.8918  0.0434  0.4507
  102OSM    H3F10357   4.126   6.796  10.042 -0.9901 -4.2785  0.5195
  102OSM    H3G10358   4.055   6.842  10.201  0.6980 -1.3798  0.6705
  102OSM    C4F10359   3.950   6.910  10.031  0.1830 -0.1325  0.1077
  102OSM    H4F10360   3.995   7.011  10.049  0.5532 -0.0445 -1.2048
  102OSM    H4G10361   3.844   6.901  10.061 -0.1682  2.7835 -0.0510
  102OSM    C5F10362   3.941   6.883   9.877  0.7083 -0.2586  0.6277
  102OSM    H5F10363   3.950   6.777   9.844 -2.0517 -0.3790  0.1834
  102OSM    H5G10364   4.024   6.945   9.834 -0.4334  0.5214 -0.4895
  102OSM    C6F10365   3.823   6.948   9.806 -0.4221  0.0086 -0.0293
  102OSM    H6F10366   3.845   6.954   9.697 -1.7435 -0.9976 -0.3671
  102OSM    H6G10367   3.816   7.050   9.849  0.0527  0.0499 -0.0394
  102OSM    C7F10368   3.689   6.880   9.826 -0.4295  0.3353  0.4473
  102OSM    H7F10369   3.676   6.853   9.933  1.1066 -0.9274  0.3369
  102OSM    H7G10370   3.669   6.778   9.786  0.4269  0.3587 -0.0540
  102OSM    C8F10371   3.574   6.975   9.779 -0.0235 -0.0713 -0.1587
  102OSM    H8F10372   3.596   7.080   9.806 -0.6606 -0.7752  3.3677
  102OSM    H8G10373   3.489   6.928   9.833 -0.9043 -1.0208 -2.2822
  102OSM    C9F10374   3.547   6.968   9.627  0.0491 -0.5058 -0.1405
  102OSM    H9F10375   3.557   7.068   9.582  0.2903 -1.3087 -1.9079
  102OSM   C10F10376   3.506   6.859   9.557  0.0455 -0.1796  0.2854
  102OSM   H10F10377   3.486   6.873   9.449 -0.7060 -0.4490  0.3871
  102OSM   C11F10378   3.478   6.727   9.616  0.1360  0.3414 -0.2503
  102OSM   H11F10379   3.450   6.749   9.721  0.2948 -2.0473  0.3101
  102OSM   H11G10380   3.571   6.666   9.619  0.3115  0.5205 -1.5840
  102OSM   C12F10381   3.380   6.623   9.560  0.0988  0.1237 -0.2231
  102OSM   H12F10382   3.406   6.534   9.621 -0.5797 -0.7566 -1.2032
  102OSM   H12G10383   3.392   6.602   9.452 -1.3079  2.0385 -0.7732
  102OSM   C13F10384   3.240   6.652   9.591  0.1207 -0.3092 -0.0314
  102OSM   H13F10385   3.219   6.731   9.515 -1.0910  0.9232  1.5382
  102OSM   H13G10386   3.228   6.688   9.695 -0.9557  2.4412 -1.0638
  102OSM   C14F10387   3.144   6.527   9.576 -0.4481  0.3311 -0.4247
  102OSM   H14F10388   3.209   6.443   9.610  0.0926  0.4603 -1.1189
  102OSM   H14G10389   3.124   6.505   9.470 -0.5496 -1.1766 -0.1032
  102OSM   C15F10390   3.012   6.532   9.653  0.7574 -0.2466  0.2835
  102OSM   H15F10391   2.947   6.616   9.620 -0.7663 -0.2155  3.2497
  102OSM   H15G10392   3.031   6.551   9.760  1.0158  0.8692  0.0445
  102OSM   C16F10393   2.930   6.403   9.652  0.0942 -0.2098  0.6111
  102OSM   H16F10394   2.848   6.403   9.726 -0.0925  1.0124  0.4167
  102OSM   H16G10395   2.996   6.319   9.682  0.9691  0.2117 -0.1042
  102OSM   C17F10396   2.869   6.362   9.510  0.0876 -0.1047  0.4412
  102OSM   H17F10397   2.956   6.360   9.440  0.1024 -0.7478  0.4768
  102OSM   H17G10398   2.800   6.445   9.483  1.1061  0.1112 -1.6333
  102OSM   C18F10399   2.795   6.224   9.513 -1.1744  0.1529  0.5048
  102OSM   H18F10400   2.853   6.142   9.560 -0.1623  0.2311 -0.5881
  102OSM   H18G10401   2.775   6.187   9.410  0.6831 -0.2552  0.2626
  102OSM   H18H10402   2.694   6.231   9.558 -0.6640  0.5637  1.5933
  103OSM      N10403   6.204   1.977  11.012  0.2793 -0.1610 -0.5842
  103OSM    C1510404   6.166   1.949  10.865  0.0278 -0.4946 -0.4802
  103OSM   H15A10405   6.219   2.019  10.801 -2.4718  1.4251 -0.5391
  103OSM   H15B10406   6.059   1.957  10.849 -0.3970 -2.4983  1.2859
  103OSM   H15C10407   6.204   1.851  10.840  1.0119 -0.4536  0.8260
  103OSM    C1410408   6.146   1.866  11.092  0.0083 -0.1819  0.1904
  103OSM   H14A10409   6.144   1.884  11.199  0.1841 -0.0383  0.1713
  103OSM   H14B10410   6.192   1.769  11.078  1.8394  0.3490  2.2431
  103OSM   H14C10411   6.045   1.854  11.055  0.3083 -0.2198 -0.6254
  103OSM    C1310412   6.352   1.970  11.026 -0.1043  0.3737 -0.2962
  103OSM   H13A10413   6.398   1.884  10.981 -0.5106 -0.2052  0.3742
  103OSM   H13B10414   6.376   1.981  11.131 -2.6121  1.4192  0.2107
  103OSM   H13C10415   6.394   2.050  10.967 -0.3216  0.6584 -0.0728
  103OSM    C1210416   6.145   2.109  11.054  0.0298 -0.4026 -0.1776
  103OSM   H12A10417   6.211   2.190  11.027 -3.0432  2.1820 -0.2505
  103OSM   H12B10418   6.135   2.114  11.161  0.6911  0.7036 -0.1679
  103OSM    C1110419   6.003   2.142  11.009  0.5970  0.0317  0.5084
  103OSM   H11A10420   6.012   2.173  10.902 -0.8779 -2.6402 -0.4377
  103OSM   H11B10421   5.963   2.227  11.069 -1.1761  1.4174 -2.5161
  103OSM      P10422   5.787   2.029  10.940  0.0718  0.2826 -0.0896
  103OSM    O1310423   5.715   1.902  10.967  0.3510 -0.1944  0.1151
  103OSM    O1410424   5.707   2.153  10.961  0.1182 -0.6439 -0.7902
  103OSM    O1110425   5.824   2.012  10.790  0.9901  0.1562 -0.5749
  103OSM    O1210426   5.917   2.027  11.025 -0.1251 -0.7192 -0.1694
  103OSM    C1S10427   5.726   1.949  10.699  1.0413 -0.5017  0.1105
  103OSM    H1S10428   5.622   1.975  10.726  0.9027 -0.5294 -0.3908
  103OSM    H1T10429   5.731   1.838  10.695 -0.4225 -0.6628  2.2850
  103OSM     NF10430   5.636   1.911  10.473  0.4002 -0.4936 -0.2444
  103OSM    HNF10431   5.666   1.840  10.409  0.7541  0.6400 -1.3640
  103OSM    C2S10432   5.734   1.985  10.544  1.2833  0.1334 -0.4172
  103OSM    H2S10433   5.710   2.093  10.530  1.2352  0.2240  0.3335
  103OSM    C3S10434   5.877   1.956  10.497 -0.7908 -0.8115 -1.0565
  103OSM    H3S10435   5.902   1.848  10.506  0.9801 -0.4992 -1.9996
  103OSM     O310436   5.973   2.023  10.581  0.3630 -0.0168  0.0428
  103OSM    HO310437   5.923   2.031  10.663 -0.7158  0.6638 -0.6527
  103OSM    C4S10438   5.906   2.006  10.350 -0.5826  0.0703 -0.1245
  103OSM    H4S10439   5.871   2.108  10.332 -0.8469  0.1819  1.0096
  103OSM    C5S10440   5.967   1.932  10.255  0.0841 -0.5750  0.7911
  103OSM    H5S10441   6.001   1.832  10.286  0.4898 -0.7298 -0.1488
  103OSM    C6S10442   5.988   1.981  10.115  0.3708 -0.0099  0.7411
  103OSM    H6S10443   6.098   1.992  10.107  0.0796  1.4248 -1.7860
  103OSM    H6T10444   5.944   2.082  10.101  2.8331  1.2229  1.5960
  103OSM    C7S10445   5.951   1.893   9.994 -0.4919 -0.2713  0.8997
  103OSM    H7S10446   5.843   1.876  10.014 -0.3493 -0.9500  1.1067
  103OSM    H7T10447   6.011   1.799   9.999  2.7958  1.6827 -0.0546
  103OSM    C8S10448   5.974   1.969   9.865 -0.5131 -0.3865 -0.1125
  103OSM    H8S10449   6.084   1.977   9.847 -0.0463 -1.2771  2.0929
  103OSM    H8T10450   5.924   2.066   9.884 -0.9557 -0.4646 -0.8926
  103OSM    C9S10451   5.906   1.901   9.749  0.0899  0.1509  0.5447
  103OSM    H9S10452   5.799   1.882   9.772  0.8353 -1.7515  2.5835
  103OSM    H9T10453   5.955   1.803   9.734 -0.7943 -0.1939 -0.0956
  103OSM   C10S10454   5.907   1.983   9.616 -0.0457  0.0667 -0.0515
  103OSM   H10S10455   6.015   1.991   9.590 -0.0838  3.9779  0.7233
  103OSM   H10T10456   5.861   2.084   9.621 -1.8724 -0.7895  1.0745
  103OSM   C11S10457   5.838   1.893   9.513  0.3055 -0.2137  0.1393
  103OSM   H11S10458   5.733   1.899   9.550  0.3680  0.5039  0.2223
  103OSM   H11T10459   5.861   1.785   9.527  1.2176 -0.0860 -0.3689
  103OSM   C12S10460   5.858   1.937   9.369 -0.4753  0.0459  0.5975
  103OSM   H12S10461   5.968   1.925   9.358 -0.5757  0.3824 -0.8493
  103OSM   H12T10462   5.820   2.040   9.354 -2.9375 -1.1473 -1.7252
  103OSM   C13S10463   5.789   1.846   9.273 -0.0120  0.6515 -0.4553
  103OSM   H13S10464   5.678   1.851   9.277  0.1187  2.2664  2.3522
  103OSM   H13T10465   5.824   1.748   9.313  0.6831  1.0418 -0.0996
  103OSM   C14S10466   5.824   1.864   9.127  0.6217 -0.4758 -0.0317
  103OSM   H14S10467   5.924   1.911   9.121  0.7841 -0.8646 -0.4839
  103OSM   H14T10468   5.744   1.925   9.081 -1.8820 -2.4106  1.6199
  103OSM   C15S10469   5.830   1.732   9.048 -0.2781 -0.2164  0.5932
  103OSM   H15S10470   5.729   1.686   9.047  0.2192 -1.3259 -0.0343
  103OSM   H15T10471   5.900   1.662   9.098  0.8177 -1.7796 -2.9164
  103OSM   C16S10472   5.849   1.756   8.897 -0.2893 -0.1803  0.4653
  103OSM   H16S10473   5.780   1.838   8.866  1.4506  0.9902 -0.3776
  103OSM   H16T10474   5.817   1.660   8.850  0.9068 -0.2625 -0.1826
  103OSM   C17S10475   5.995   1.771   8.849 -0.3668 -0.7867 -0.4287
  103OSM   H17S10476   6.048   1.683   8.892 -0.6023 -1.2488 -1.0618
  103OSM   H17T10477   6.046   1.861   8.888 -1.1569 -0.9490  1.0208
  103OSM   C18S10478   6.011   1.781   8.694 -0.2818 -0.3452 -0.3387
  103OSM   H18S10479   5.950   1.859   8.644 -1.3358 -0.0901  1.2999
  103OSM   H18T10480   5.992   1.687   8.639  1.7596 -1.2666  0.4872
  103OSM   H18U10481   6.113   1.808   8.658 -0.9544  1.3873 -0.9997
  103OSM    C1F10482   5.507   1.933  10.499  0.7326  0.1335 -0.1647
  103OSM     OF10483   5.470   2.040  10.546 -0.2859  0.2527  0.5292
  103OSM    C2F10484   5.414   1.819  10.483 -0.2305 -0.2488 -0.3739
  103OSM    H2F10485   5.381   1.788  10.584 -0.5575 -1.3650 -0.8225
  103OSM    H2G10486   5.463   1.731  10.436  0.1239  0.5060 -1.4234
  103OSM    C3F10487   5.300   1.854  10.398  0.5518 -0.4282  0.1570
  103OSM    H3F10488   5.233   1.925  10.451 -0.0007 -0.0939 -0.9890
  103OSM    H3G10489   5.242   1.760  10.385 -0.6389  0.1668  1.0482
  103OSM    C4F10490   5.339   1.917  10.259 -0.1561 -0.2954  0.2155
  103OSM    H4F10491   5.393   2.012  10.278  0.7343 -0.4573 -1.4066
  103OSM    H4G10492   5.246   1.943  10.204  1.0031  0.7184 -1.2915
  103OSM    C5F10493   5.424   1.822  10.172  0.0904 -0.6246  0.3248
  103OSM    H5F10494   5.405   1.717  10.205  0.9701 -1.8586 -2.8904
  103OSM    H5G10495   5.532   1.843  10.190 -0.0106 -0.4520  0.7200
  103OSM    C6F10496   5.384   1.825  10.024 -0.5826 -0.4779 -0.1384
  103OSM    H6F10497   5.392   1.932   9.993  4.2634 -1.0751 -1.4121
  103OSM    H6G10498   5.279   1.790  10.012 -0.1400 -1.5992 -0.8730
  103OSM    C7F10499   5.461   1.728   9.939 -0.5325 -0.2258  0.0763
  103OSM    H7F10500   5.472   1.628   9.987 -1.9363 -0.4413 -0.0554
  103OSM    H7G10501   5.560   1.778   9.926  0.8356 -2.4944  1.4075
  103OSM    C8F10502   5.401   1.710   9.801 -0.1416  0.2325 -0.4252
  103OSM    H8F10503   5.359   1.813   9.793 -0.5556  0.0645 -0.4429
  103OSM    H8G10504   5.311   1.645   9.812 -0.3769  0.7222  0.6703
  103OSM    C9F10505   5.495   1.660   9.695  0.3851 -0.0788 -0.1435
  103OSM    H9F10506   5.570   1.586   9.728  1.2533  0.4853 -0.8316
  103OSM   C10F10507   5.493   1.708   9.567  0.2423 -0.5237  1.0429
  103OSM   H10F10508   5.569   1.677   9.494  1.0904  0.7890  1.3327
  103OSM   C11F10509   5.393   1.814   9.513  0.7681 -0.0328 -0.0180
  103OSM   H11F10510   5.446   1.909   9.492  0.2475 -0.2012 -2.1722
  103OSM   H11G10511   5.314   1.847   9.584  2.5743  0.5152  1.7896
  103OSM   C12F10512   5.335   1.771   9.381 -0.0293 -0.0929  0.8655
  103OSM   H12F10513   5.241   1.827   9.362  0.2383 -0.1677 -0.7324
  103OSM   H12G10514   5.289   1.670   9.390  1.1674 -0.5649  1.7749
  103OSM   C13F10515   5.430   1.767   9.260 -0.1427 -0.2040 -0.5173
  103OSM   H13F10516   5.491   1.860   9.256  2.2604 -1.6579  1.0607
  103OSM   H13G10517   5.494   1.678   9.275  0.1854  0.2461  0.8470
  103OSM   C14F10518   5.358   1.746   9.126  0.1444  0.2517  0.6507
  103OSM   H14F10519   5.304   1.841   9.105 -0.2383 -0.1738 -0.3251
  103OSM   H14G10520   5.290   1.659   9.137  0.9509 -0.7591 -2.0742
  103OSM   C15F10521   5.460   1.710   9.013 -0.3655 -0.1124 -0.5311
  103OSM   H15F10522   5.519   1.619   9.035  0.7337  0.5460 -0.6803
  103OSM   H15G10523   5.532   1.795   9.009  0.6825 -0.9724 -0.0304
  103OSM   C16F10524   5.399   1.692   8.870  0.5181  0.0790 -0.0617
  103OSM   H16F10525   5.491   1.673   8.812 -0.0788  2.1508 -1.7448
  103OSM   H16G10526   5.348   1.787   8.843  0.3947  0.4351  1.3662
  103OSM   C17F10527   5.297   1.576   8.856 -0.1915 -0.0733  0.6050
  103OSM   H17F10528   5.209   1.593   8.921  0.1757  2.5572  0.4675
  103OSM   H17G10529   5.356   1.487   8.886  1.1645  0.3783 -0.6509
  103OSM   C18F10530   5.242   1.547   8.718 -0.5403 -0.0955 -0.4349
  103OSM   H18F10531   5.147   1.489   8.721 -0.6947  0.2169  0.9223
  103OSM   H18G10532   5.315   1.504   8.646 -0.8302  0.6505 -1.1722
  103OSM   H18H10533   5.217   1.643   8.669  0.9534  0.6011  0.1247
  104OSM      N10534   2.468   1.370  10.955 -0.0723 -0.0849  0.4172
  104OSM    C1510535   2.370   1.347  10.843 -0.1919  0.9664 -0.5983
  104OSM   H15A10536   2.411   1.270  10.779  0.2649  1.1110 -0.4723
  104OSM   H15B10537   2.356   1.427  10.772 -1.5999  0.1876 -1.2464
  104OSM   H15C10538   2.273   1.314  10.877  0.5119  1.2988  1.7969
  104OSM    C1410539   2.379   1.442  11.057  0.7812 -0.0828  0.4686
  104OSM   H14A10540   2.427   1.464  11.151  2.0825 -0.3589 -0.1152
  104OSM   H14B10541   2.296   1.380  11.085  1.2372 -2.3784 -2.9918
  104OSM   H14C10542   2.339   1.532  11.013  1.0327 -0.2503 -0.1147
  104OSM    C1310543   2.515   1.237  11.010  0.6796 -0.2841 -0.4548
  104OSM   H13A10544   2.591   1.250  11.086 -0.2484 -0.8364  0.5994
  104OSM   H13B10545   2.558   1.181  10.929  5.1583  0.7439  1.0529
  104OSM   H13C10546   2.434   1.180  11.054  1.4700  0.0826  1.5545
  104OSM    C1210547   2.581   1.463  10.905 -0.4434 -0.2124  0.2521
  104OSM   H12A10548   2.642   1.424  10.825 -2.0496 -1.1667 -0.5354
  104OSM   H12B10549   2.652   1.486  10.983 -1.0386 -1.0501  1.0617
  104OSM    C1110550   2.545   1.608  10.860  0.1346  0.2112 -0.1368
  104OSM   H11A10551   2.636   1.668  10.840 -0.9644  1.0746 -2.7711
  104OSM   H11B10552   2.489   1.659  10.941  0.3982 -0.5286  0.5131
  104OSM      P10553   2.345   1.707  10.718  0.5938 -0.1210 -0.2003
  104OSM    O1310554   2.221   1.644  10.778  1.0591 -0.4353 -0.1766
  104OSM    O1410555   2.381   1.842  10.769 -0.1186 -0.5629 -0.3053
  104OSM    O1110556   2.347   1.716  10.554 -0.2513  0.2881  0.3321
  104OSM    O1210557   2.468   1.602  10.737  0.2815  0.3056 -0.2913
  104OSM    C1S10558   2.232   1.771  10.486  0.0815  0.8276  0.0544
  104OSM    H1S10559   2.218   1.874  10.523 -0.4369  1.4340 -1.7666
  104OSM    H1T10560   2.144   1.704  10.501  0.9190 -0.0551  1.0990
  104OSM     NF10561   2.188   1.864  10.264  0.4388  0.4363  0.3276
  104OSM    HNF10562   2.110   1.832  10.210  0.2492 -0.9891  1.4386
  104OSM    C2S10563   2.270   1.775  10.336 -0.1135  0.6163  1.1106
  104OSM    H2S10564   2.374   1.813  10.329  0.2137 -0.6157 -1.4576
  104OSM    C3S10565   2.265   1.629  10.282  0.3012 -0.2424 -0.0086
  104OSM    H3S10566   2.168   1.579  10.303  0.7925 -0.9347  0.6752
  104OSM     O310567   2.356   1.539  10.342  1.0159 -0.2574 -0.7318
  104OSM    HO310568   2.373   1.586  10.423  4.0793  0.0481 -1.4955
  104OSM    C4S10569   2.288   1.632  10.136  0.3081  0.7959  0.3544
  104OSM    H4S10570   2.196   1.618  10.078  1.3786 -0.3389 -1.1206
  104OSM    C5S10571   2.408   1.635  10.071 -0.2096 -0.0585 -0.1324
  104OSM    H5S10572   2.495   1.635  10.139 -0.4159 -2.0184  0.1639
  104OSM    C6S10573   2.435   1.618   9.924  0.8140 -0.1384 -1.0790
  104OSM    H6S10574   2.480   1.521   9.894  0.0496 -0.6342 -0.6566
  104OSM    H6T10575   2.509   1.694   9.892  2.4922 -0.7020  1.3541
  104OSM    C7S10576   2.312   1.635   9.830  0.1354 -0.2801 -0.0884
  104OSM    H7S10577   2.278   1.738   9.853  4.0132  0.6390  1.7574
  104OSM    H7T10578   2.229   1.567   9.859 -0.1284  0.9841  2.1824
  104OSM    C8S10579   2.352   1.618   9.680 -0.8101 -0.1957 -0.6347
  104OSM    H8S10580   2.462   1.634   9.676 -0.6660 -0.8158  0.6802
  104OSM    H8T10581   2.298   1.690   9.614 -0.2241  0.8760  0.0333
  104OSM    C9S10582   2.337   1.473   9.634  0.1014  0.3878  1.1162
  104OSM    H9S10583   2.231   1.443   9.624  0.5201 -1.2429  1.4289
  104OSM    H9T10584   2.388   1.397   9.699  0.0525 -0.2904  0.3690
  104OSM   C10S10585   2.400   1.461   9.496 -0.5460  0.4200  0.2312
  104OSM   H10S10586   2.510   1.465   9.510 -0.5435 -1.1709  0.8487
  104OSM   H10T10587   2.371   1.551   9.438 -0.1572  0.1703 -0.3450
  104OSM   C11S10588   2.371   1.325   9.426 -0.4104 -0.0622  0.6457
  104OSM   H11S10589   2.262   1.302   9.428 -0.5014  0.0846 -1.6006
  104OSM   H11T10590   2.414   1.241   9.485 -0.1855  0.1555  0.7917
  104OSM   C12S10591   2.436   1.305   9.288  0.3063 -0.7724  0.2773
  104OSM   H12S10592   2.384   1.216   9.246  2.2466 -1.1920 -1.2547
  104OSM   H12T10593   2.546   1.304   9.302  0.5199  2.4011 -0.9745
  104OSM   C13S10594   2.405   1.425   9.195 -0.0979 -0.4582 -0.0477
  104OSM   H13S10595   2.467   1.512   9.226 -2.2197  1.2035 -0.3324
  104OSM   H13T10596   2.303   1.469   9.209 -0.5493 -0.6827 -2.5351
  104OSM   C14S10597   2.420   1.382   9.052  0.8286  0.3922  0.0846
  104OSM   H14S10598   2.359   1.296   9.019 -0.2605  1.6440 -1.2611
  104OSM   H14T10599   2.525   1.348   9.040  1.3457  2.0448 -0.3031
  104OSM   C15S10600   2.396   1.501   8.950 -0.3778  0.1131  0.2995
  104OSM   H15S10601   2.443   1.599   8.971 -2.7691  1.5423 -0.8268
  104OSM   H15T10602   2.290   1.534   8.958 -0.4290  0.1645 -0.5676
  104OSM   C16S10603   2.428   1.449   8.808  0.0253  0.0239  0.6524
  104OSM   H16S10604   2.365   1.363   8.778 -0.7542  1.0234 -0.6436
  104OSM   H16T10605   2.525   1.395   8.817 -1.6395 -3.0307  1.0274
  104OSM   C17S10606   2.433   1.554   8.696  0.1476 -0.1335  0.7949
  104OSM   H17S10607   2.510   1.631   8.719 -0.1740  0.8784 -1.4245
  104OSM   H17T10608   2.334   1.601   8.677  1.5882  2.5080 -0.6308
  104OSM   C18S10609   2.477   1.496   8.569  0.1438  0.0208  0.5467
  104OSM   H18S10610   2.485   1.580   8.496  1.2740  0.5291  1.2490
  104OSM   H18T10611   2.400   1.427   8.529  1.4557  0.2975 -2.5974
  104OSM   H18U10612   2.573   1.444   8.588 -0.7730 -1.5300  1.0111
  104OSM    C1F10613   2.201   2.000  10.276  0.6090 -0.3463 -0.0708
  104OSM     OF10614   2.303   2.040  10.336  0.9180 -0.1584 -0.1248
  104OSM    C2F10615   2.095   2.089  10.214 -0.3310  0.1541  0.1315
  104OSM    H2F10616   2.126   2.193  10.193 -0.0716  0.6267  2.7267
  104OSM    H2G10617   2.011   2.099  10.285 -0.3124  0.0152  0.1740
  104OSM    C3F10618   2.038   2.051  10.072  0.8257  0.6700  0.9466
  104OSM    H3F10619   1.955   2.114  10.035 -0.2920 -1.7461 -0.6950
  104OSM    H3G10620   2.007   1.946  10.084  0.4524  0.4194 -1.9249
  104OSM    C4F10621   2.143   2.065   9.959  0.2530 -0.1740 -0.2764
  104OSM    H4F10622   2.219   1.986   9.975 -1.5511 -1.4901  2.2667
  104OSM    H4G10623   2.192   2.159   9.991  0.2836  0.0476 -0.9597
  104OSM    C5F10624   2.079   2.056   9.820 -0.5096  0.3191 -0.1094
  104OSM    H5F10625   2.017   2.147   9.802 -0.8039  0.1295 -0.0467
  104OSM    H5G10626   2.004   1.975   9.816 -0.8571  0.6606 -0.6122
  104OSM    C6F10627   2.189   2.051   9.707  0.7002  0.3863  0.6950
  104OSM    H6F10628   2.248   1.957   9.712 -1.2417 -0.9370 -0.6336
  104OSM    H6G10629   2.256   2.140   9.706 -0.5849  1.5217 -4.3872
  104OSM    C7F10630   2.116   2.068   9.570  0.1978  0.5978  0.1745
  104OSM    H7F10631   2.057   2.162   9.562  0.2472  0.5068 -1.4803
  104OSM    H7G10632   2.049   1.981   9.559  1.1739 -0.1967  0.4436
  104OSM    C8F10633   2.204   2.047   9.445 -0.3512 -0.7804  0.0891
  104OSM    H8F10634   2.283   2.123   9.460 -0.2335 -1.4271  3.0789
  104OSM    H8G10635   2.143   2.079   9.357 -0.6459  0.1939  0.6391
  104OSM    C9F10636   2.275   1.913   9.426 -0.6054  0.1867  0.2800
  104OSM    H9F10637   2.343   1.897   9.512 -1.6912 -1.9818  0.7579
  104OSM   C10F10638   2.281   1.846   9.308 -0.3802 -0.0533 -0.2429
  104OSM   H10F10639   2.334   1.750   9.299  0.1769  0.0806  1.5264
  104OSM   C11F10640   2.201   1.885   9.186  0.5143 -0.0962 -0.0339
  104OSM   H11F10641   2.260   1.942   9.111  1.9119 -0.9564  0.3740
  104OSM   H11G10642   2.118   1.952   9.215 -1.5052 -0.9679 -3.4854
  104OSM   C12F10643   2.154   1.757   9.118  0.0271 -0.5323  0.1838
  104OSM   H12F10644   2.078   1.711   9.184  0.7924 -0.5987  1.0447
  104OSM   H12G10645   2.232   1.684   9.090  0.1421  0.6701 -2.8494
  104OSM   C13F10646   2.082   1.782   8.982 -0.0446 -0.6788  0.7861
  104OSM   H13F10647   1.987   1.839   8.984 -1.0272 -2.2022 -0.9705
  104OSM   H13G10648   2.039   1.685   8.950 -1.7943  0.5075 -0.5437
  104OSM   C14F10649   2.178   1.850   8.878  0.8242  0.9726 -0.1373
  104OSM   H14F10650   2.283   1.818   8.895  0.5479  0.4943  0.7455
  104OSM   H14G10651   2.179   1.957   8.909  1.0981  1.3953 -1.5961
  104OSM   C15F10652   2.125   1.826   8.737 -0.0722 -0.1708 -1.4317
  104OSM   H15F10653   2.026   1.871   8.718  0.3355  0.8966 -1.0700
  104OSM   H15G10654   2.088   1.722   8.723 -0.4258  0.0918 -2.4601
  104OSM   C16F10655   2.236   1.867   8.640 -0.2359 -0.6490  0.2321
  104OSM   H16F10656   2.332   1.816   8.664  0.8654 -0.0235 -2.6457
  104OSM   H16G10657   2.258   1.975   8.652  1.3919 -0.6643 -2.1163
  104OSM   C17F10658   2.205   1.842   8.491  0.2314 -0.5535 -0.2227
  104OSM   H17F10659   2.120   1.890   8.440 -0.4969 -0.3414  1.1514
  104OSM   H17G10660   2.188   1.734   8.472  0.4452 -0.3432 -1.6568
  104OSM   C18F10661   2.320   1.865   8.397 -0.8162 -0.7479 -0.1631
  104OSM   H18F10662   2.350   1.970   8.377 -1.1146 -0.2982  1.6937
  104OSM   H18G10663   2.296   1.817   8.299  0.5012 -0.9195 -0.4019
  104OSM   H18H10664   2.408   1.813   8.440 -1.2277 -0.2110  1.3674
  105OSM      N10665   1.881   1.496  10.730 -0.4099  0.3546 -0.2329
  105OSM    C1510666   1.966   1.429  10.837 -0.4652 -0.4495 -0.8775
  105OSM   H15A10667   2.068   1.462  10.829 -0.2264 -1.3626 -1.7299
  105OSM   H15B10668   1.960   1.322  10.820 -0.7889 -0.6879  0.6759
  105OSM   H15C10669   1.931   1.463  10.933  2.0499 -2.8438  0.9968
  105OSM    C1410670   1.741   1.478  10.762  0.4815 -0.5530 -0.1485
  105OSM   H14A10671   1.680   1.549  10.709 -1.3302 -1.3986  0.7535
  105OSM   H14B10672   1.728   1.509  10.865 -1.8625 -0.1522 -0.5345
  105OSM   H14C10673   1.698   1.380  10.747  2.2752 -1.2995 -0.4530
  105OSM    C1310674   1.921   1.643  10.727  0.2002 -0.9269  1.0113
  105OSM   H13A10675   1.875   1.701  10.648  2.2763  0.6698  0.9267
  105OSM   H13B10676   2.028   1.645  10.713 -0.0162  1.4590 -0.7278
  105OSM   H13C10677   1.911   1.686  10.826 -2.0704 -1.1419  0.8847
  105OSM    C1210678   1.921   1.435  10.595  0.2014  0.6781 -0.0025
  105OSM   H12A10679   1.861   1.502  10.535 -1.4385 -0.5050  0.2840
  105OSM   H12B10680   1.874   1.338  10.594  1.3348  0.1448 -0.9781
  105OSM    C1110681   2.079   1.421  10.563 -0.0717  0.3831 -0.1936
  105OSM   H11A10682   2.131   1.513  10.598 -1.4634  1.0021  0.2731
  105OSM   H11B10683   2.084   1.401  10.454 -0.5488 -2.1457  0.2178
  105OSM      P10684   2.096   1.174  10.631  0.2397 -0.3011 -0.0527
  105OSM    O1310685   2.165   1.105  10.742 -0.0792 -0.5067 -0.2747
  105OSM    O1410686   1.949   1.159  10.624  0.1082  0.3178 -0.3254
  105OSM    O1110687   2.170   1.138  10.501 -0.2876  0.0278  0.0790
  105OSM    O1210688   2.144   1.322  10.638  0.2068 -0.0175 -0.1809
  105OSM    C1S10689   2.300   1.183  10.466  0.0496  0.7770  0.5381
  105OSM    H1S10690   2.376   1.127  10.525  0.7553  2.3137  1.1304
  105OSM    H1T10691   2.323   1.289  10.490 -0.9173  0.8673  1.0742
  105OSM     NF10692   2.471   1.215  10.306 -0.4706  0.0169 -0.7495
  105OSM    HNF10693   2.482   1.314  10.294  1.7195 -0.4180 -2.7218
  105OSM    C2S10694   2.338   1.167  10.319 -0.4399  0.2641 -0.0987
  105OSM    H2S10695   2.339   1.060  10.289  1.8309  0.2667 -0.0904
  105OSM    C3S10696   2.229   1.239  10.223 -0.2778 -0.6739  0.1439
  105OSM    H3S10697   2.232   1.348  10.244  0.8567 -1.1250  2.4906
  105OSM     O310698   2.098   1.195  10.244 -0.3099 -0.2394 -0.3487
  105OSM    HO310699   2.106   1.161  10.333  0.0728  0.3845 -0.1439
  105OSM    C4S10700   2.277   1.230  10.081 -0.7103  0.3176  0.0344
  105OSM    H4S10701   2.356   1.302  10.053  0.3645 -1.2635 -1.0480
  105OSM    C5S10702   2.233   1.152   9.980 -0.1498  0.1177 -0.1254
  105OSM    H5S10703   2.144   1.089   9.996 -0.4156 -0.0315 -2.1171
  105OSM    C6S10704   2.288   1.147   9.839 -0.6311  0.7207 -1.2087
  105OSM    H6S10705   2.391   1.188   9.831 -0.2129 -0.4739 -2.0855
  105OSM    H6T10706   2.228   1.207   9.767 -3.2735 -0.4881 -0.1059
  105OSM    C7S10707   2.305   0.998   9.793 -0.4437  1.3091  0.3134
  105OSM    H7S10708   2.206   0.948   9.790  0.4531 -0.4097 -2.2255
  105OSM    H7T10709   2.377   0.951   9.863  0.3158 -1.1024 -2.0121
  105OSM    C8S10710   2.381   0.999   9.657 -0.6773 -0.0895  0.4761
  105OSM    H8S10711   2.471   1.058   9.681  0.5074 -0.5885 -2.5371
  105OSM    H8T10712   2.314   1.038   9.577  0.4491  0.8072 -0.0284
  105OSM    C9S10713   2.434   0.857   9.614 -0.0781  0.1506  0.1312
  105OSM    H9S10714   2.355   0.781   9.597  0.2579 -0.2226  0.2005
  105OSM    H9T10715   2.507   0.822   9.691  1.0256  2.0876 -0.0003
  105OSM   C10S10716   2.506   0.865   9.476  0.0816 -0.4448  0.4422
  105OSM   H10S10717   2.556   0.768   9.453 -0.4998 -1.0679  1.7488
  105OSM   H10T10718   2.581   0.947   9.476 -0.7419  0.3168  1.3616
  105OSM   C11S10719   2.408   0.894   9.355 -0.4282 -0.7129  0.6091
  105OSM   H11S10720   2.344   0.984   9.371 -1.5939 -1.6444  1.2569
  105OSM   H11T10721   2.341   0.808   9.332 -1.6718  0.3831  0.0420
  105OSM   C12S10722   2.487   0.911   9.223 -0.1538 -0.0103  0.1842
  105OSM   H12S10723   2.585   0.958   9.243  0.9395 -0.4182 -3.8334
  105OSM   H12T10724   2.432   0.981   9.156 -0.0845  1.5762  1.7545
  105OSM   C13S10725   2.504   0.785   9.140  0.0907 -0.7939 -0.0123
  105OSM   H13S10726   2.398   0.758   9.118  0.1050  0.2143 -1.4078
  105OSM   H13T10727   2.556   0.700   9.189 -0.6652 -0.3902  1.5325
  105OSM   C14S10728   2.587   0.808   9.011 -0.5289  0.8748  0.3667
  105OSM   H14S10729   2.691   0.843   9.026 -0.2383  0.0230  0.3634
  105OSM   H14T10730   2.531   0.886   8.955 -0.7127  1.2222  1.0175
  105OSM   C15S10731   2.585   0.697   8.908  0.1387  0.6580  0.0181
  105OSM   H15S10732   2.482   0.690   8.867  0.0106  1.1180  0.2614
  105OSM   H15T10733   2.610   0.598   8.952 -2.0862 -0.5094 -1.2532
  105OSM   C16S10734   2.669   0.733   8.779 -0.4113 -0.1841  0.1770
  105OSM   H16S10735   2.649   0.836   8.744 -2.5491 -1.4161 -2.3429
  105OSM   H16T10736   2.652   0.659   8.698  0.3771 -0.0570 -0.1132
  105OSM   C17S10737   2.819   0.730   8.802  0.6408 -0.6729  1.1214
  105OSM   H17S10738   2.864   0.804   8.873 -0.0079  1.1921 -0.3842
  105OSM   H17T10739   2.855   0.767   8.704  0.5930 -1.2573  0.8825
  105OSM   C18S10740   2.885   0.598   8.837  0.5729  0.7075  0.3210
  105OSM   H18S10741   2.850   0.568   8.938 -1.6643 -0.1482 -0.6719
  105OSM   H18T10742   2.995   0.598   8.847  0.6203  2.1908 -0.0913
  105OSM   H18U10743   2.851   0.514   8.771 -0.9322  1.4142  0.1763
  105OSM    C1F10744   2.582   1.145  10.331  0.1473  0.4202  1.0850
  105OSM     OF10745   2.563   1.024  10.361  0.0120  0.5515 -0.1002
  105OSM    C2F10746   2.719   1.214  10.317  0.3842  0.5737  0.1967
  105OSM    H2F10747   2.765   1.227  10.418 -1.2904  0.8323  0.9328
  105OSM    H2G10748   2.704   1.312  10.267 -0.2537 -1.2643 -3.4122
  105OSM    C3F10749   2.822   1.128  10.243 -0.2480 -0.3316  0.7113
  105OSM    H3F10750   2.844   1.037  10.303  1.5732  1.0951  2.2762
  105OSM    H3G10751   2.918   1.175  10.214 -0.8466  0.8601  0.6111
  105OSM    C4F10752   2.774   1.082  10.102  0.4938 -0.0376 -0.2872
  105OSM    H4F10753   2.677   1.028  10.102 -0.1893  1.1730  0.1781
  105OSM    H4G10754   2.850   1.008  10.066 -1.1510 -1.4317 -0.9711
  105OSM    C5F10755   2.764   1.195   9.997  0.4844  0.3157 -0.4168
  105OSM    H5F10756   2.853   1.261   9.992  1.0564 -0.4333 -0.2077
  105OSM    H5G10757   2.685   1.270  10.021  1.6894  1.6911 -0.6694
  105OSM    C6F10758   2.743   1.136   9.859  0.4879  0.7054  0.2337
  105OSM    H6F10759   2.644   1.086   9.851  0.4569  1.1371 -2.2979
  105OSM    H6G10760   2.827   1.064   9.845 -0.3487 -0.3961  0.7450
  105OSM    C7F10761   2.771   1.248   9.754  0.7128  0.3827 -0.5205
  105OSM    H7F10762   2.876   1.284   9.750  1.4486 -1.5041  1.1260
  105OSM    H7G10763   2.696   1.326   9.778 -0.3477 -0.4764 -0.9797
  105OSM    C8F10764   2.750   1.186   9.619 -0.0666  0.2779  0.6478
  105OSM    H8F10765   2.652   1.134   9.619 -3.3434  5.9445  1.8690
  105OSM    H8G10766   2.820   1.102   9.602 -0.7883  0.0489 -1.3298
  105OSM    C9F10767   2.765   1.288   9.513  0.1596  0.6969 -0.4174
  105OSM    H9F10768   2.718   1.379   9.552  0.5302  0.2631  1.0779
  105OSM   C10F10769   2.807   1.282   9.381  0.6507  0.7155 -0.1239
  105OSM   H10F10770   2.797   1.377   9.327  0.0316  0.0497 -1.1913
  105OSM   C11F10771   2.867   1.163   9.306  0.1573  0.3554 -0.0511
  105OSM   H11F10772   2.846   1.068   9.358 -2.9178 -0.4607 -2.6567
  105OSM   H11G10773   2.977   1.179   9.300  0.3646  0.3631  3.2257
  105OSM   C12F10774   2.805   1.143   9.173  0.7587  0.3221  0.4430
  105OSM   H12F10775   2.695   1.130   9.178  0.8422 -0.0811  1.3410
  105OSM   H12G10776   2.851   1.049   9.135 -1.2787 -0.7769  0.6446
  105OSM   C13F10777   2.865   1.244   9.069  0.1926  0.1565 -0.5320
  105OSM   H13F10778   2.973   1.244   9.043  0.1349 -0.1652 -0.7743
  105OSM   H13G10779   2.849   1.349   9.102  0.3427  0.0818 -0.2187
  105OSM   C14F10780   2.805   1.223   8.930  0.4090 -0.0031 -0.2026
  105OSM   H14F10781   2.697   1.251   8.931  0.3126 -0.2690 -1.8270
  105OSM   H14G10782   2.805   1.113   8.913 -1.4556  0.1682 -1.4907
  105OSM   C15F10783   2.879   1.299   8.823  0.0358  0.6566  1.1235
  105OSM   H15F10784   2.823   1.282   8.728  1.7260  0.4522  0.1482
  105OSM   H15G10785   2.973   1.241   8.808  0.0977  1.0024  0.1625
  105OSM   C16F10786   2.886   1.451   8.852  0.1352 -0.2615  0.2247
  105OSM   H16F10787   2.961   1.464   8.933  2.4939 -0.2495 -1.8702
  105OSM   H16G10788   2.794   1.492   8.899 -0.9622 -1.7244 -0.6025
  105OSM   C17F10789   2.919   1.526   8.724 -0.3640 -0.4099  0.3742
  105OSM   H17F10790   2.853   1.496   8.639 -0.5003  0.0286  0.3216
  105OSM   H17G10791   3.019   1.497   8.687 -0.5679  0.8407 -1.1912
  105OSM   C18F10792   2.924   1.676   8.756  0.6102 -0.1400 -0.3426
  105OSM   H18F10793   2.961   1.739   8.673  1.0432  1.8651  1.3483
  105OSM   H18G10794   2.990   1.688   8.844  0.8196  0.4032 -0.5749
  105OSM   H18H10795   2.821   1.710   8.781  0.4769 -0.1654 -0.8572
  106OSM      N10796   3.774   0.286  10.660 -0.3966 -0.3245 -0.4115
  106OSM    C1510797   3.844   0.381  10.756  0.5308 -0.0342 -0.1173
  106OSM   H15A10798   3.794   0.477  10.747  1.5995  0.3983 -1.7194
  106OSM   H15B10799   3.951   0.382  10.748  0.6647  0.2609  1.4871
  106OSM   H15C10800   3.816   0.357  10.858  0.3736  2.0076  0.3404
  106OSM    C1410801   3.621   0.283  10.690 -0.2123  0.2888 -1.1381
  106OSM   H14A10802   3.600   0.265  10.794 -1.5839 -1.2318 -1.6593
  106OSM   H14B10803   3.585   0.194  10.641 -0.6186  1.2773 -2.6450
  106OSM   H14C10804   3.574   0.375  10.660 -3.9771 -1.4793 -0.9658
  106OSM    C1310805   3.808   0.328  10.529 -0.1661  0.1237  0.0903
  106OSM   H13A10806   3.911   0.312  10.501  0.2294  1.7391  0.5298
  106OSM   H13B10807   3.777   0.431  10.517 -2.5058 -0.4676  0.8924
  106OSM   H13C10808   3.750   0.270  10.459  0.2947 -0.5109  0.2254
  106OSM    C1210809   3.827   0.143  10.678 -0.5332 -0.5234 -0.4061
  106OSM   H12A10810   3.840   0.125  10.784 -1.7925 -0.8074 -0.2955
  106OSM   H12B10811   3.928   0.150  10.641  0.3729 -0.1051  2.0774
  106OSM    C1110812   3.758   0.029  10.597 -0.6901 -0.1995  0.5471
  106OSM   H11A10813   3.813  -0.068  10.603 -2.0772 -0.9523  1.3079
  106OSM   H11B10814   3.762   0.054  10.489  3.0728  1.0757  0.9141
  106OSM      P10815   3.594  -0.098  10.742 -0.2378 -0.0226 -0.1896
  106OSM    O1310816   3.701  -0.093  10.846  0.2219  0.8171 -0.0539
  106OSM    O1410817   3.453  -0.082  10.789  0.3052  0.2037  0.2707
  106OSM    O1110818   3.600  -0.237  10.662  0.0403 -0.4852 -0.0914
  106OSM    O1210819   3.626   0.007  10.629 -0.4149  0.0859 -0.3015
  106OSM    C1S10820   3.571  -0.249  10.523 -0.6523  0.2115 -0.2330
  106OSM    H1S10821   3.636  -0.191  10.454  0.0388  1.7700  1.6829
  106OSM    H1T10822   3.474  -0.202  10.499 -0.9595  1.2287  2.8357
  106OSM     NF10823   3.559  -0.418  10.331  0.6831  0.2776 -0.2787
  106OSM    HNF10824   3.476  -0.468  10.306  1.0204  0.9841 -2.9834
  106OSM    C2S10825   3.584  -0.404  10.473 -0.7825 -0.4165 -0.1771
  106OSM    H2S10826   3.694  -0.419  10.477 -0.5307  1.4983  1.2718
  106OSM    C3S10827   3.515  -0.507  10.568  0.1156 -0.4284 -0.3174
  106OSM    H3S10828   3.404  -0.514  10.560 -0.0571 -1.7633  2.4683
  106OSM     O310829   3.550  -0.499  10.705 -0.0015  0.7109 -0.2312
  106OSM    HO310830   3.560  -0.403  10.704 -2.0004  0.9297 -3.0321
  106OSM    C4S10831   3.561  -0.643  10.522  0.1109 -0.6100  0.9681
  106OSM    H4S10832   3.669  -0.661  10.512  0.4346  1.2135  0.9805
  106OSM    C5S10833   3.476  -0.743  10.482  0.2917 -0.4344 -0.1338
  106OSM    H5S10834   3.367  -0.738  10.498  0.5047 -0.8546  1.6342
  106OSM    C6S10835   3.528  -0.872  10.432  0.2647 -0.2455  0.3027
  106OSM    H6S10836   3.486  -0.956  10.491  0.4485  0.4654  1.4610
  106OSM    H6T10837   3.639  -0.879  10.432  0.3563  0.9495  1.7985
  106OSM    C7S10838   3.474  -0.905  10.291  0.5842  0.2039  0.6549
  106OSM    H7S10839   3.491  -0.821  10.220 -0.0453  0.4837  0.8371
  106OSM    H7T10840   3.366  -0.930  10.302  0.5680  0.8094  1.9434
  106OSM    C8S10841   3.550  -1.024  10.232  0.0111 -0.4807  0.5335
  106OSM    H8S10842   3.547  -1.105  10.309  0.4032 -1.0972 -0.0930
  106OSM    H8T10843   3.655  -0.990  10.222  0.1239 -1.0649 -0.3223
  106OSM    C9S10844   3.489  -1.090  10.105  0.7779 -0.4434 -0.0071
  106OSM    H9S10845   3.380  -1.098  10.122  0.3303  1.9790 -1.4483
  106OSM    H9T10846   3.535  -1.191  10.107 -0.2250 -0.8945  0.2683
  106OSM   C10S10847   3.524  -1.021   9.973  0.2928 -0.2225  0.3229
  106OSM   H10S10848   3.635  -1.018   9.967  0.2807  1.0895  0.5102
  106OSM   H10T10849   3.468  -0.925   9.983  0.1509 -0.3569  0.8744
  106OSM   C11S10850   3.468  -1.099   9.851 -0.3633  0.3754 -0.2336
  106OSM   H11S10851   3.358  -1.108   9.865 -0.0698  0.2342  2.1726
  106OSM   H11T10852   3.516  -1.199   9.862 -3.0585 -0.8913  0.5032
  106OSM   C12S10853   3.513  -1.030   9.723  0.2073 -0.2363 -0.4746
  106OSM   H12S10854   3.623  -1.039   9.714  0.2004  1.2962 -2.1601
  106OSM   H12T10855   3.496  -0.922   9.744 -0.7381 -0.7908  1.8290
  106OSM   C13S10856   3.460  -1.099   9.598  0.5524 -0.0673  0.2603
  106OSM   H13S10857   3.349  -1.091   9.600  0.3537 -2.6928  4.2879
  106OSM   H13T10858   3.490  -1.206   9.603 -0.0141 -0.2958 -0.9292
  106OSM   C14S10859   3.519  -1.035   9.465 -0.1668  0.8889 -0.0972
  106OSM   H14S10860   3.630  -1.045   9.468 -0.2686  0.2657  3.7450
  106OSM   H14T10861   3.491  -0.928   9.472 -0.0268  0.9199 -0.0182
  106OSM   C15S10862   3.463  -1.108   9.341  0.2493  0.1539  0.1061
  106OSM   H15S10863   3.354  -1.092   9.326  0.5927  1.1034 -1.4575
  106OSM   H15T10864   3.477  -1.214   9.371  0.3322  0.1309 -0.0181
  106OSM   C16S10865   3.535  -1.084   9.213 -0.2690 -0.4314  0.8822
  106OSM   H16S10866   3.524  -1.169   9.142  0.5032  0.1817  0.0237
  106OSM   H16T10867   3.644  -1.069   9.229 -0.1858  1.2796 -1.1304
  106OSM   C17S10868   3.492  -0.947   9.143 -0.5486  1.1046 -0.1062
  106OSM   H17S10869   3.519  -0.867   9.215 -0.8273  1.8118 -0.7739
  106OSM   H17T10870   3.381  -0.950   9.139 -0.6289  0.4128  1.9885
  106OSM   C18S10871   3.552  -0.926   8.999  0.5857 -0.7310  0.6560
  106OSM   H18S10872   3.519  -0.829   8.956 -1.1611 -1.4864  0.2347
  106OSM   H18T10873   3.508  -1.003   8.932  0.6862 -2.8668  2.9591
  106OSM   H18U10874   3.663  -0.926   9.002  0.5504 -0.1169  3.6996
  106OSM    C1F10875   3.625  -0.355  10.240  0.2359 -0.4652 -0.1362
  106OSM     OF10876   3.713  -0.278  10.266  0.0714  0.0765  0.3086
  106OSM    C2F10877   3.579  -0.388  10.102 -0.0548 -0.0265  0.9721
  106OSM    H2F10878   3.474  -0.351  10.095  0.6297  1.7490 -0.3850
  106OSM    H2G10879   3.578  -0.498  10.085  0.3785  0.4753 -2.9421
  106OSM    C3F10880   3.687  -0.327  10.005  1.1556 -0.4992 -0.0228
  106OSM    H3F10881   3.790  -0.349  10.040  1.4269  0.4265 -0.2374
  106OSM    H3G10882   3.683  -0.216  10.005  1.1541 -0.4705 -2.3934
  106OSM    C4F10883   3.672  -0.378   9.858 -0.1063 -0.6933 -0.0674
  106OSM    H4F10884   3.565  -0.359   9.836 -0.3011  1.3184  2.4184
  106OSM    H4G10885   3.688  -0.487   9.849  1.0229 -0.4492 -1.2000
  106OSM    C5F10886   3.769  -0.313   9.760  0.6454 -0.3532  0.6590
  106OSM    H5F10887   3.875  -0.338   9.782  0.4787 -0.7164  1.0424
  106OSM    H5G10888   3.755  -0.203   9.766  0.9830 -0.3435  1.3200
  106OSM    C6F10889   3.742  -0.337   9.608  1.0395 -0.2076 -0.0249
  106OSM    H6F10890   3.634  -0.328   9.582  0.9894  1.4203  0.6530
  106OSM    H6G10891   3.772  -0.442   9.589 -0.0854 -0.4551 -0.4374
  106OSM    C7F10892   3.819  -0.230   9.523 -0.6049 -0.7896 -0.2261
  106OSM    H7F10893   3.915  -0.200   9.570 -2.1660 -1.4721  3.5675
  106OSM    H7G10894   3.754  -0.140   9.523 -2.8249 -2.3483  0.2149
  106OSM    C8F10895   3.860  -0.266   9.380  1.0425 -0.3102 -0.3342
  106OSM    H8F10896   3.924  -0.356   9.363  1.6418 -0.3438  1.9591
  106OSM    H8G10897   3.911  -0.176   9.340 -0.3265  0.6738  0.0895
  106OSM    C9F10898   3.730  -0.295   9.310  0.4589  0.1749 -0.2226
  106OSM    H9F10899   3.678  -0.387   9.342 -0.8259  1.9159  2.9667
  106OSM   C10F10900   3.658  -0.219   9.229 -0.3928  1.0602 -0.1110
  106OSM   H10F10901   3.570  -0.265   9.182 -0.0277  0.7940 -0.5361
  106OSM   C11F10902   3.685  -0.085   9.171  0.0660  0.0436 -0.5419
  106OSM   H11F10903   3.786  -0.045   9.193 -0.5320  1.4327 -0.2277
  106OSM   H11G10904   3.615  -0.006   9.207  1.5892  1.7666 -1.3306
  106OSM   C12F10905   3.679  -0.070   9.022 -0.1912 -0.1392  0.5251
  106OSM   H12F10906   3.750  -0.133   8.965 -1.9895 -2.3773  0.6978
  106OSM   H12G10907   3.700   0.037   9.001 -0.0787  0.0980  1.7910
  106OSM   C13F10908   3.534  -0.107   8.964 -0.0299 -0.0138  0.0943
  106OSM   H13F10909   3.456  -0.047   9.015 -2.0390 -1.2919 -1.3937
  106OSM   H13G10910   3.524  -0.217   8.983  1.1165 -0.1386 -0.0039
  106OSM   C14F10911   3.537  -0.093   8.813 -0.3806  0.0016 -0.6827
  106OSM   H14F10912   3.618  -0.150   8.764 -0.3426  0.2222 -0.8799
  106OSM   H14G10913   3.548   0.014   8.784 -2.2417  0.7314  1.1099
  106OSM   C15F10914   3.404  -0.127   8.745  0.2636  0.7413 -0.6365
  106OSM   H15F10915   3.323  -0.084   8.807 -1.8521  0.2162 -2.9468
  106OSM   H15G10916   3.385  -0.236   8.751 -0.7637  0.9669  0.4171
  106OSM   C16F10917   3.387  -0.067   8.600 -0.2492 -0.2409  0.4416
  106OSM   H16F10918   3.391   0.044   8.604 -1.0592 -0.0993 -1.7303
  106OSM   H16G10919   3.288  -0.100   8.562  0.3391 -2.0701  0.4584
  106OSM   C17F10920   3.497  -0.107   8.501  0.4219  0.3851  0.0834
  106OSM   H17F10921   3.500  -0.218   8.512 -3.3724  0.1391 -0.8917
  106OSM   H17G10922   3.598  -0.075   8.537 -0.0453  1.4974  0.4247
  106OSM   C18F10923   3.466  -0.063   8.358 -0.0445 -0.2757  0.4650
  106OSM   H18F10924   3.507  -0.141   8.290  0.4037  0.7716 -0.4797
  106OSM   H18G10925   3.510   0.033   8.326 -1.5155  0.4123  0.4848
  106OSM   H18H10926   3.356  -0.059   8.346 -0.3835 -0.0122  3.2518
  107OSM      N10927   4.575   3.958  11.237 -0.1294  0.1438  0.6518
  107OSM    C1510928   4.513   3.940  11.371  0.4715 -0.4276  0.3248
  107OSM   H15A10929   4.472   3.841  11.361  0.2197 -0.2697 -0.2369
  107OSM   H15B10930   4.441   4.017  11.396 -0.4536 -1.4729  0.9081
  107OSM   H15C10931   4.581   3.934  11.455 -0.9732  3.6152  1.8838
  107OSM    C1410932   4.626   3.824  11.186 -0.1133  0.3563 -0.2005
  107OSM   H14A10933   4.703   3.789  11.253 -0.1616  1.2267  0.3167
  107OSM   H14B10934   4.665   3.833  11.085  3.1189 -0.7641  0.8749
  107OSM   H14C10935   4.546   3.755  11.169  0.1915 -0.5215  1.8005
  107OSM    C1310936   4.489   4.002  11.128  0.0146  0.0326  0.4710
  107OSM   H13A10937   4.405   3.934  11.124 -0.5932  0.7499  0.8787
  107OSM   H13B10938   4.531   4.014  11.029  0.3830 -1.8175  0.3833
  107OSM   H13C10939   4.445   4.097  11.157 -2.4938 -0.8807 -0.1750
  107OSM    C1210940   4.697   4.051  11.253 -0.3321 -0.1180  0.4739
  107OSM   H12A10941   4.758   4.001  11.327 -0.3592 -3.3514 -1.5461
  107OSM   H12B10942   4.660   4.147  11.284 -0.5727  0.1732 -0.6778
  107OSM    C1110943   4.789   4.069  11.128 -0.2234 -0.1418 -0.0390
  107OSM   H11A10944   4.824   3.966  11.104  0.7924  0.5455 -1.5986
  107OSM   H11B10945   4.876   4.134  11.153 -1.2538  1.4196 -0.4175
  107OSM      P10946   4.671   4.275  10.994 -0.2897  0.1963  0.1310
  107OSM    O1310947   4.539   4.301  11.058 -0.4595  0.2753  0.3922
  107OSM    O1410948   4.781   4.368  11.026  0.1208  0.3843  0.3308
  107OSM    O1110949   4.658   4.274  10.835 -0.1879 -0.0063  0.0811
  107OSM    O1210950   4.715   4.125  11.016 -0.1769 -0.2450 -0.4905
  107OSM    C1S10951   4.751   4.200  10.757 -0.3027 -0.5173  0.4244
  107OSM    H1S10952   4.718   4.094  10.749  3.5629 -1.5852 -3.0387
  107OSM    H1T10953   4.855   4.200  10.795 -0.7897 -0.3441  1.7854
  107OSM     NF10954   4.862   4.151  10.539  0.2529  0.4436  0.3745
  107OSM    HNF10955   4.951   4.184  10.508  0.7025 -0.9042  0.1966
  107OSM    C2S10956   4.770   4.248  10.605 -0.3909 -1.0155 -0.0669
  107OSM    H2S10957   4.672   4.236  10.553  0.4494 -1.0044 -1.6574
  107OSM    C3S10958   4.813   4.395  10.593  0.0582 -0.0667  0.0783
  107OSM    H3S10959   4.922   4.401  10.611  0.0013  1.7777 -0.1521
  107OSM     O310960   4.750   4.476  10.692 -0.1440 -0.5426 -0.2069
  107OSM    HO310961   4.721   4.415  10.760  2.2590 -0.7051  0.7274
  107OSM    C4S10962   4.792   4.449  10.450  0.2311  0.3493  0.5728
  107OSM    H4S10963   4.877   4.429  10.384 -1.4939 -0.5804 -1.4374
  107OSM    C5S10964   4.690   4.529  10.405 -0.6183 -0.2907  0.1872
  107OSM    H5S10965   4.607   4.571  10.463  0.0775  3.3674 -1.3049
  107OSM    C6S10966   4.679   4.593  10.272  0.0860 -0.9948 -0.1844
  107OSM    H6S10967   4.705   4.701  10.276  0.4922 -1.0392 -1.5108
  107OSM    H6T10968   4.573   4.597  10.239 -0.8570 -1.2227  2.6215
  107OSM    C7S10969   4.755   4.520  10.159 -0.4741  0.0370  1.3573
  107OSM    H7S10970   4.738   4.411  10.164  2.3190 -0.6497 -2.0511
  107OSM    H7T10971   4.865   4.527  10.168 -0.5407  5.5317  0.0114
  107OSM    C8S10972   4.702   4.562  10.022  0.0436 -0.0406  0.5798
  107OSM    H8S10973   4.729   4.668  10.003  2.7062 -0.8689 -0.4604
  107OSM    H8T10974   4.592   4.547  10.026  0.1156 -0.8961 -0.6189
  107OSM    C9S10975   4.757   4.479   9.908 -0.5253  0.5568 -1.1376
  107OSM    H9S10976   4.719   4.376   9.925 -1.6974  1.1010 -0.3549
  107OSM    H9T10977   4.865   4.484   9.931 -0.5783 -0.9294 -0.4860
  107OSM   C10S10978   4.729   4.526   9.769  0.1030  0.1148  1.1771
  107OSM   H10S10979   4.795   4.463   9.705 -1.3234 -1.2541  1.0157
  107OSM   H10T10980   4.754   4.632   9.751  1.2129 -0.6816 -2.3911
  107OSM   C11S10981   4.589   4.495   9.715 -0.3380 -0.1850 -1.6551
  107OSM   H11S10982   4.519   4.554   9.778  0.5206 -0.4512 -0.4275
  107OSM   H11T10983   4.562   4.389   9.732 -0.5210  0.1593  0.3210
  107OSM   C12S10984   4.565   4.536   9.570  0.0830  0.7485 -0.0163
  107OSM   H12S10985   4.590   4.643   9.558  2.5785  0.1366 -0.5277
  107OSM   H12T10986   4.456   4.527   9.548  0.4301 -0.3092 -1.3052
  107OSM   C13S10987   4.643   4.457   9.466 -0.0021 -0.6518 -0.7203
  107OSM   H13S10988   4.612   4.350   9.463  2.3841 -1.5013  2.0400
  107OSM   H13T10989   4.750   4.455   9.499 -0.2610 -1.7399  0.1059
  107OSM   C14S10990   4.637   4.511   9.326  0.1725 -0.6490 -0.2557
  107OSM   H14S10991   4.694   4.606   9.320  0.3989 -0.8363 -1.2526
  107OSM   H14T10992   4.532   4.536   9.299  0.4537  1.1417  0.2799
  107OSM   C15S10993   4.694   4.414   9.211  0.1673  0.0873 -0.6053
  107OSM   H15S10994   4.646   4.318   9.241  1.1655  0.0623  0.9493
  107OSM   H15T10995   4.803   4.393   9.214 -0.0104 -0.7175  2.2099
  107OSM   C16S10996   4.651   4.445   9.069 -0.4061  0.4863  0.1993
  107OSM   H16S10997   4.635   4.552   9.046 -1.7205  0.2334 -0.1169
  107OSM   H16T10998   4.554   4.396   9.045 -0.6563  0.8249  0.5120
  107OSM   C17S10999   4.753   4.386   8.963 -0.7104  0.1566 -0.0557
  107OSM   H17S11000   4.763   4.278   8.986  0.1693  0.0234 -1.0602
  107OSM   H17T11001   4.853   4.429   8.984  0.2033  0.0102 -3.8423
  107OSM   C18S11002   4.709   4.406   8.822 -0.1817  0.5665  0.0450
  107OSM   H18S11003   4.680   4.510   8.797 -0.9506 -0.5894 -4.2499
  107OSM   H18T11004   4.616   4.346   8.813  0.3871 -0.1099 -1.6863
  107OSM   H18U11005   4.779   4.376   8.741 -0.6813  1.4392 -0.7139
  107OSM    C1F11006   4.842   4.020  10.527  0.1668 -0.9099 -0.4480
  107OSM     OF11007   4.728   3.978  10.528  0.4714  0.1065  0.4978
  107OSM    C2F11008   4.958   3.930  10.515 -0.5393  0.2402 -0.3579
  107OSM    H2F11009   4.918   3.829  10.535 -2.5281  1.0381 -0.1932
  107OSM    H2G11010   5.046   3.950  10.580 -1.1438  0.8078  0.2984
  107OSM    C3F11011   5.004   3.914  10.366 -0.3035 -0.0923  0.0931
  107OSM    H3F11012   5.055   4.000  10.317 -0.2323 -0.4920 -0.5418
  107OSM    H3G11013   4.909   3.893  10.312 -0.6514 -0.9852  1.0320
  107OSM    C4F11014   5.096   3.792  10.345 -0.5595  0.9092  0.6668
  107OSM    H4F11015   5.036   3.700  10.363  1.3490 -0.3480  0.7957
  107OSM    H4G11016   5.166   3.791  10.432  0.2550 -0.4888  0.0247
  107OSM    C5F11017   5.189   3.793  10.222 -0.2081 -0.4086  0.0257
  107OSM    H5F11018   5.252   3.702  10.223  0.0870 -0.2020  0.6524
  107OSM    H5G11019   5.265   3.873  10.227 -0.6461  0.0758 -0.9262
  107OSM    C6F11020   5.122   3.822  10.089  0.2392  0.1891  0.2931
  107OSM    H6F11021   5.063   3.917  10.086 -3.5156 -2.0694 -1.2292
  107OSM    H6G11022   5.045   3.749  10.056  0.6171 -0.3042  0.5070
  107OSM    C7F11023   5.226   3.839   9.977 -0.3949 -0.3395  0.4718
  107OSM    H7F11024   5.275   3.744   9.945  0.5921  0.9146 -1.8678
  107OSM    H7G11025   5.312   3.896  10.017 -0.2500  0.0075 -0.3197
  107OSM    C8F11026   5.167   3.917   9.858  0.3527  0.1171 -0.1866
  107OSM    H8F11027   5.139   4.021   9.882 -0.6640 -0.5919  1.8677
  107OSM    H8G11028   5.071   3.868   9.831  0.7200  1.3560 -4.0153
  107OSM    C9F11029   5.278   3.917   9.752  0.6134 -0.2732 -0.2897
  107OSM    H9F11030   5.380   3.915   9.791  0.3763 -1.0758  0.3104
  107OSM   C10F11031   5.259   3.899   9.619 -0.2689  0.1682 -0.1813
  107OSM   H10F11032   5.346   3.888   9.552  0.5823  1.4647  0.6935
  107OSM   C11F11033   5.138   3.891   9.542 -0.2755 -0.2380 -0.0619
  107OSM   H11F11034   5.111   3.996   9.519  2.5752  0.4989 -0.2061
  107OSM   H11G11035   5.046   3.854   9.592 -0.4104  1.3267  0.8858
  107OSM   C12F11036   5.140   3.820   9.409  0.4903  0.1217 -0.1050
  107OSM   H12F11037   5.241   3.835   9.366 -0.1805 -0.1542 -1.8376
  107OSM   H12G11038   5.066   3.875   9.347 -1.4006  1.3423  3.1367
  107OSM   C13F11039   5.124   3.664   9.411 -0.0637 -0.1386 -0.3813
  107OSM   H13F11040   5.029   3.636   9.461 -0.3199  1.0005 -0.2026
  107OSM   H13G11041   5.206   3.615   9.468  1.1938  0.1991 -1.8594
  107OSM   C14F11042   5.113   3.597   9.270 -0.9242 -0.6516 -0.3796
  107OSM   H14F11043   5.114   3.487   9.286 -2.0479 -0.7844 -1.1621
  107OSM   H14G11044   5.197   3.625   9.202 -1.6066 -0.2064 -1.0480
  107OSM   C15F11045   4.981   3.627   9.194  0.8201  0.4582  0.2638
  107OSM   H15F11046   4.991   3.726   9.145  0.6937 -1.4117 -3.8450
  107OSM   H15G11047   4.895   3.609   9.262 -0.2257  0.6469 -0.9963
  107OSM   C16F11048   4.972   3.518   9.079  0.0849  0.7329 -0.0462
  107OSM   H16F11049   4.925   3.421   9.108  0.0548  0.2764 -1.5836
  107OSM   H16G11050   5.077   3.508   9.046  0.1734  1.4724  0.0064
  107OSM   C17F11051   4.909   3.579   8.952  0.5862 -0.1035 -0.3505
  107OSM   H17F11052   4.964   3.672   8.928 -0.1828  0.5505  0.3639
  107OSM   H17G11053   4.807   3.619   8.972  1.3637  2.0021 -0.5032
  107OSM   C18F11054   4.910   3.480   8.836 -0.5336  0.7169 -0.3341
  107OSM   H18F11055   4.827   3.487   8.762  1.2153  3.0090 -2.1630
  107OSM   H18G11056   4.919   3.371   8.857  0.7175  0.5902 -1.4253
  107OSM   H18H11057   4.995   3.513   8.772 -0.8499  1.0844 -0.5655
  108OSM      N11058   1.390   0.873  10.759 -0.7958  0.4062 -0.0478
  108OSM    C1511059   1.379   0.744  10.836  0.2362  0.0227  1.0210
  108OSM   H15A11060   1.473   0.716  10.880  0.7517  0.0636 -0.0304
  108OSM   H15B11061   1.335   0.661  10.783  0.2330 -0.9560  2.5341
  108OSM   H15C11062   1.308   0.764  10.914 -2.5420  0.8045 -1.6086
  108OSM    C1411063   1.437   0.972  10.862  0.6474 -0.2013  0.4734
  108OSM   H14A11064   1.454   1.068  10.816 -2.6249  2.1773  3.9258
  108OSM   H14B11065   1.532   0.939  10.901  0.6024 -2.4146 -1.1969
  108OSM   H14C11066   1.356   0.983  10.932 -0.4876  3.5128 -1.3041
  108OSM    C1311067   1.503   0.857  10.666  0.7879 -0.1773  0.2955
  108OSM   H13A11068   1.576   0.790  10.709 -0.1845 -1.6107 -0.2385
  108OSM   H13B11069   1.548   0.949  10.633 -2.6398  0.9764 -1.3869
  108OSM   H13C11070   1.467   0.816  10.572 -1.1695  1.5367  0.2540
  108OSM    C1211071   1.265   0.919  10.695 -0.1968 -0.4458 -0.1192
  108OSM   H12A11072   1.235   0.856  10.612 -0.2900 -1.5845  0.7711
  108OSM   H12B11073   1.282   1.020  10.662  0.1883  0.8578  3.8136
  108OSM    C1111074   1.139   0.942  10.786 -0.1542  0.0441 -0.7030
  108OSM   H11A11075   1.119   0.849  10.844  1.1212 -0.3714 -0.9039
  108OSM   H11B11076   1.041   0.961  10.738  0.7816  2.9321 -1.5702
  108OSM      P11077   1.160   1.200  10.832 -0.0027 -0.2079 -0.4275
  108OSM    O1311078   1.073   1.281  10.921  0.1286 -0.1496 -0.0925
  108OSM    O1411079   1.293   1.248  10.800 -0.1211 -0.2790  0.2751
  108OSM    O1111080   1.084   1.193  10.703 -0.0151 -0.5850 -0.4971
  108OSM    O1211081   1.164   1.049  10.876 -0.3207 -0.1534  0.1296
  108OSM    C1S11082   1.037   1.307  10.634  0.0487 -0.4624  0.3746
  108OSM    H1S11083   1.097   1.399  10.653  0.7213 -0.7833 -0.1438
  108OSM    H1T11084   0.934   1.335  10.662 -0.4196 -0.9837 -0.8007
  108OSM     NF11085   1.025   1.402  10.400 -0.0181  0.4168 -0.4191
  108OSM    HNF11086   0.964   1.405  10.322  1.9141  0.9811 -1.9679
  108OSM    C2S11087   1.036   1.277  10.478 -0.0460 -0.3490 -0.7010
  108OSM    H2S11088   1.131   1.230  10.446 -0.9080 -1.0864 -2.2197
  108OSM    C3S11089   0.917   1.172  10.442 -0.0437 -0.2531 -0.1452
  108OSM    H3S11090   0.820   1.222  10.461  0.0471  0.0320 -0.4339
  108OSM     O311091   0.922   1.064  10.533  0.1223  0.2479  0.5186
  108OSM    HO311092   0.970   1.099  10.608 -0.6541  3.5736 -0.4576
  108OSM    C4S11093   0.936   1.129  10.295 -0.6488  0.2466 -0.3380
  108OSM    H4S11094   0.865   1.167  10.220 -0.2325  0.2013 -0.7571
  108OSM    C5S11095   1.029   1.036  10.247  0.4837 -0.1962 -0.5983
  108OSM    H5S11096   1.091   0.988  10.324 -0.8137 -0.7062  0.1551
  108OSM    C6S11097   1.047   0.983  10.110 -0.0194  0.3004  0.1275
  108OSM    H6S11098   0.995   0.885  10.116  2.1230 -0.9221 -0.5664
  108OSM    H6T11099   1.155   0.976  10.082  0.7719 -3.0557  3.5001
  108OSM    C7S11100   0.977   1.058  10.001  0.0828  0.2226 -0.1844
  108OSM    H7S11101   1.022   1.160   9.999  0.4229  0.1144  1.3298
  108OSM    H7T11102   0.867   1.072  10.007 -0.0370 -1.2593  1.2190
  108OSM    C8S11103   1.019   0.998   9.867  0.5143  0.2753  0.4938
  108OSM    H8S11104   0.983   0.895   9.847  0.2417  0.0125  2.3353
  108OSM    H8T11105   1.130   1.000   9.861  0.4070  2.0463 -2.0337
  108OSM    C9S11106   0.957   1.091   9.759  0.1802  0.2820 -0.5461
  108OSM    H9S11107   1.005   1.190   9.763  1.5281 -0.4102  0.6642
  108OSM    H9T11108   0.848   1.106   9.775  0.7313  1.1471  2.6023
  108OSM   C10S11109   0.961   1.030   9.618  0.6898  0.1566 -0.2113
  108OSM   H10S11110   0.894   0.941   9.612  3.3195 -1.8000 -2.0383
  108OSM   H10T11111   1.062   0.992   9.591  0.8237 -0.2929  0.9053
  108OSM   C11S11112   0.906   1.131   9.519 -0.3203  0.3086  0.0751
  108OSM   H11S11113   0.947   1.232   9.541  0.4607  0.2571 -1.0457
  108OSM   H11T11114   0.796   1.143   9.526 -0.5842 -1.1480 -1.2612
  108OSM   C12S11115   0.931   1.103   9.367  0.4816 -0.3767 -0.1943
  108OSM   H12S11116   0.874   1.013   9.336 -2.7890  2.4439 -2.7434
  108OSM   H12T11117   1.039   1.086   9.352  0.9449 -0.1131  2.5449
  108OSM   C13S11118   0.887   1.212   9.275 -0.6594  0.3103  0.1726
  108OSM   H13S11119   0.942   1.308   9.278  0.1952 -0.2063  1.5671
  108OSM   H13T11120   0.784   1.245   9.300 -0.2921  0.2312  1.8220
  108OSM   C14S11121   0.882   1.167   9.127 -0.2920 -0.1110  0.2040
  108OSM   H14S11122   0.811   1.082   9.113 -0.4183  0.2752 -1.6842
  108OSM   H14T11123   0.985   1.145   9.091 -0.6619  1.3879 -1.8829
  108OSM   C15S11124   0.816   1.277   9.044  0.2534 -0.7729 -0.4617
  108OSM   H15S11125   0.863   1.375   9.068 -3.8570  1.2566 -0.2124
  108OSM   H15T11126   0.711   1.288   9.079 -0.2749 -3.6061 -1.0284
  108OSM   C16S11127   0.826   1.238   8.891 -0.1810 -0.9938 -1.1595
  108OSM   H16S11128   0.811   1.128   8.879 -0.6825 -1.1290  0.4846
  108OSM   H16T11129   0.930   1.250   8.853  0.3645  0.4026  0.6893
  108OSM   C17S11130   0.744   1.334   8.806  0.4500 -0.3805 -0.2619
  108OSM   H17S11131   0.779   1.314   8.702  2.2309 -1.4104  0.5120
  108OSM   H17T11132   0.785   1.436   8.821 -0.5997  0.2089 -1.2658
  108OSM   C18S11133   0.593   1.339   8.806  0.3370 -0.1299 -0.3793
  108OSM   H18S11134   0.558   1.324   8.910  0.3728 -1.2548 -0.5200
  108OSM   H18T11135   0.545   1.257   8.748  1.2430 -1.1936  0.3475
  108OSM   H18U11136   0.543   1.433   8.775  0.1580  0.4019  1.4922
  108OSM    C1F11137   1.111   1.505  10.411 -0.4274 -0.3374 -0.3586
  108OSM     OF11138   1.223   1.489  10.463  0.4810 -0.1576 -0.1906
  108OSM    C2F11139   1.076   1.631  10.346 -0.2307  0.1979  0.2137
  108OSM    H2F11140   0.991   1.677  10.401 -1.0557 -0.8060 -0.1970
  108OSM    H2G11141   1.040   1.615  10.242 -1.3935  2.1083  0.3005
  108OSM    C3F11142   1.195   1.719  10.339 -0.0546 -0.3564  0.5795
  108OSM    H3F11143   1.277   1.663  10.289  0.2763  0.1723  0.5294
  108OSM    H3G11144   1.219   1.757  10.441  1.7046 -2.3119  0.9271
  108OSM    C4F11145   1.174   1.845  10.245  0.1258  0.3337 -1.4973
  108OSM    H4F11146   1.270   1.900  10.245 -0.0793  0.8974  2.8514
  108OSM    H4G11147   1.094   1.912  10.285 -0.4503 -1.1260 -0.1553
  108OSM    C5F11148   1.164   1.813  10.096 -0.1119  0.3387  0.3786
  108OSM    H5F11149   1.145   1.918  10.064 -0.9120  0.8578  2.4164
  108OSM    H5G11150   1.074   1.751  10.077 -0.2954  0.6861  0.1218
  108OSM    C6F11151   1.285   1.744  10.037  0.4136 -0.7875  0.1703
  108OSM    H6F11152   1.301   1.649  10.091  1.4946 -0.4367  0.4724
  108OSM    H6G11153   1.375   1.807  10.054  0.0110 -1.1774  4.2235
  108OSM    C7F11154   1.251   1.718   9.885 -0.1546  0.3345 -0.1170
  108OSM    H7F11155   1.141   1.699   9.879 -0.4596  1.1857  2.2440
  108OSM    H7G11156   1.309   1.629   9.853 -1.4773 -0.6983  0.2960
  108OSM    C8F11157   1.292   1.823   9.782  1.0800 -0.6966  0.1064
  108OSM    H8F11158   1.401   1.827   9.803  0.0225  0.3029  6.3284
  108OSM    H8G11159   1.243   1.920   9.804  1.5547 -0.0729 -1.4987
  108OSM    C9F11160   1.264   1.777   9.641 -0.0998 -0.3265 -0.4192
  108OSM    H9F11161   1.278   1.669   9.626 -2.0971 -0.5871 -0.4820
  108OSM   C10F11162   1.225   1.849   9.534  0.2353  0.6511 -0.2651
  108OSM   H10F11163   1.224   1.801   9.435 -0.6406 -0.6207  0.3506
  108OSM   C11F11164   1.203   1.997   9.526  0.1316  0.6548 -0.2854
  108OSM   H11F11165   1.227   2.047   9.622 -2.3236  1.0834  0.1410
  108OSM   H11G11166   1.095   2.021   9.519 -0.0732 -0.1468  0.1813
  108OSM   C12F11167   1.289   2.072   9.433 -0.5444  0.3813 -0.0176
  108OSM   H12F11168   1.392   2.053   9.469  0.0978  1.7765 -1.0553
  108OSM   H12G11169   1.281   2.181   9.456  1.5838  0.3723  0.8470
  108OSM   C13F11170   1.268   2.045   9.285  0.1005 -0.6238 -0.0300
  108OSM   H13F11171   1.285   1.936   9.269 -1.3119 -1.0508  1.2185
  108OSM   H13G11172   1.345   2.103   9.230  0.7262  0.7722  2.2581
  108OSM   C14F11173   1.122   2.081   9.244 -0.3578 -0.0154 -0.5655
  108OSM   H14F11174   1.105   2.191   9.250  2.3362  0.3764  0.3628
  108OSM   H14G11175   1.046   2.036   9.312  0.5616 -1.0645 -0.2299
  108OSM   C15F11176   1.094   2.048   9.100 -0.3862  0.2926  0.1468
  108OSM   H15F11177   0.996   2.092   9.071 -1.9311 -2.8583  0.3885
  108OSM   H15G11178   1.087   1.938   9.091  1.8301 -0.0645  2.1673
  108OSM   C16F11179   1.199   2.100   9.008  0.1247 -0.4755  0.0447
  108OSM   H16F11180   1.291   2.039   9.019 -0.9323 -1.8234  1.8207
  108OSM   H16G11181   1.231   2.205   9.020 -0.1838 -0.3094 -0.5730
  108OSM   C17F11182   1.157   2.065   8.861  0.0077 -0.2237 -1.1144
  108OSM   H17F11183   1.218   2.129   8.794  1.6255 -1.4852 -0.8600
  108OSM   H17G11184   1.059   2.117   8.848  0.4792  1.2172  0.8750
  108OSM   C18F11185   1.151   1.918   8.821  0.5151  0.6099  0.0989
  108OSM   H18F11186   1.107   1.847   8.894 -0.1230 -0.2278 -1.0787
  108OSM   H18G11187   1.253   1.875   8.811 -0.1517 -0.7086 -1.3475
  108OSM   H18H11188   1.105   1.911   8.720  1.0776 -0.7898 -0.0738
  109OSM      N11189   2.881   2.516  10.590  0.2792 -0.0157  0.3956
  109OSM    C1511190   2.995   2.500  10.676 -0.6644 -0.0543  0.0623
  109OSM   H15A11191   2.999   2.403  10.724 -2.5818  0.0147  0.3813
  109OSM   H15B11192   2.995   2.581  10.748 -0.0728  1.2961 -1.4164
  109OSM   H15C11193   3.091   2.501  10.626 -0.2285  1.5678  0.8991
  109OSM    C1411194   2.900   2.650  10.526  0.2512 -0.1205 -0.3001
  109OSM   H14A11195   2.999   2.652  10.484 -0.0160 -0.8160 -0.9881
  109OSM   H14B11196   2.886   2.726  10.601  1.3726 -1.1086  0.9524
  109OSM   H14C11197   2.829   2.663  10.446  0.3156  1.2204 -0.1399
  109OSM    C1311198   2.881   2.418  10.479  0.2400 -0.2767 -0.4233
  109OSM   H13A11199   2.978   2.405  10.432  1.2069 -3.1044  2.1931
  109OSM   H13B11200   2.818   2.463  10.404 -1.7632  1.3287  2.1325
  109OSM   H13C11201   2.839   2.322  10.504  1.7823 -0.5019  1.4477
  109OSM    C1211202   2.748   2.506  10.659  0.6657 -0.0843 -0.6630
  109OSM   H12A11203   2.722   2.405  10.688 -0.6379  0.2781 -0.5533
  109OSM   H12B11204   2.670   2.534  10.590 -0.9749 -0.0467  1.1601
  109OSM    C1111205   2.723   2.599  10.784  0.0394  0.0569 -0.0568
  109OSM   H11A11206   2.815   2.600  10.847  0.8678  0.5940 -1.2628
  109OSM   H11B11207   2.644   2.571  10.857  0.1385  3.5688  1.5237
  109OSM      P11208   2.563   2.768  10.689 -0.2529 -0.3625  0.4654
  109OSM    O1311209   2.456   2.720  10.775 -0.3672 -0.0053  0.1451
  109OSM    O1411210   2.566   2.909  10.652 -0.3435 -0.2127  0.2239
  109OSM    O1111211   2.567   2.692  10.553  0.1560  0.2220 -0.2956
  109OSM    O1211212   2.705   2.734  10.747  0.2227 -0.4373  0.8984
  109OSM    C1S11213   2.573   2.761  10.429 -0.2657  0.0506 -0.3124
  109OSM    H1S11214   2.676   2.799  10.409 -0.2728  0.3122  0.1318
  109OSM    H1T11215   2.508   2.851  10.418 -2.0815 -0.9459  1.8958
  109OSM     NF11216   2.589   2.705  10.185 -0.0499  0.1232 -0.1084
  109OSM    HNF11217   2.531   2.753  10.120  2.1051  1.9675 -0.7402
  109OSM    C2S11218   2.532   2.668  10.311 -0.5103 -0.1590 -0.0268
  109OSM    H2S11219   2.577   2.571  10.340 -0.2025 -0.3999 -1.2774
  109OSM    C3S11220   2.376   2.652  10.309  0.4298  0.1961 -0.3029
  109OSM    H3S11221   2.336   2.751  10.278 -0.5819 -0.2418 -0.3841
  109OSM     O311222   2.321   2.611  10.435 -0.3282  0.3361 -0.3162
  109OSM    HO311223   2.397   2.603  10.493 -0.6195 -1.2727 -0.1254
  109OSM    C4S11224   2.329   2.544  10.213 -0.1946  0.0113 -0.2614
  109OSM    H4S11225   2.394   2.455  10.212  0.1240  0.2240 -3.0685
  109OSM    C5S11226   2.236   2.550  10.122  0.8806 -0.8306 -0.0645
  109OSM    H5S11227   2.172   2.640  10.123 -0.1710 -1.5743  2.0597
  109OSM    C6S11228   2.198   2.446  10.026 -0.0936  0.3010 -0.3320
  109OSM    H6S11229   2.094   2.423  10.060  0.1102  2.5712  2.0695
  109OSM    H6T11230   2.260   2.355  10.035  0.7618  0.8838 -0.2360
  109OSM    C7S11231   2.208   2.506   9.886 -0.0284  0.1841 -0.0797
  109OSM    H7S11232   2.164   2.608   9.878 -1.1148  0.0019  2.9570
  109OSM    H7T11233   2.156   2.441   9.813 -1.1198  1.8378 -0.8078
  109OSM    C8S11234   2.354   2.530   9.835  1.0709  0.7319 -0.3430
  109OSM    H8S11235   2.412   2.436   9.821 -2.2014 -1.2563 -1.0889
  109OSM    H8T11236   2.406   2.586   9.915 -0.1865 -1.2660  1.9119
  109OSM    C9S11237   2.363   2.603   9.695 -0.5011  0.1064 -0.1349
  109OSM    H9S11238   2.473   2.615   9.678 -0.4403 -0.4092 -0.1268
  109OSM    H9T11239   2.306   2.696   9.711  0.7787  1.1275 -1.3515
  109OSM   C10S11240   2.300   2.529   9.575 -0.6218  0.9255  0.6220
  109OSM   H10S11241   2.189   2.543   9.572 -0.9456 -1.1438  1.7750
  109OSM   H10T11242   2.305   2.419   9.582  0.6729  0.8765 -0.8635
  109OSM   C11S11243   2.369   2.570   9.443 -1.0336 -1.1578  0.3028
  109OSM   H11S11244   2.466   2.516   9.438 -0.9246 -1.0066  0.7844
  109OSM   H11T11245   2.391   2.678   9.454  1.9402 -1.7748  0.6328
  109OSM   C12S11246   2.291   2.537   9.318 -0.1845  0.5727 -0.0228
  109OSM   H12S11247   2.189   2.582   9.319 -0.5745 -0.3279  0.7978
  109OSM   H12T11248   2.278   2.428   9.304 -1.3595  0.4128  2.1067
  109OSM   C13S11249   2.365   2.604   9.199  0.2174 -0.1229  0.0091
  109OSM   H13S11250   2.465   2.557   9.187  0.1300 -0.2173 -0.3674
  109OSM   H13T11251   2.367   2.713   9.218 -0.3959 -0.4883  2.3904
  109OSM   C14S11252   2.295   2.566   9.074 -0.4111 -0.3238 -0.1343
  109OSM   H14S11253   2.185   2.572   9.079 -0.3730 -0.5200  0.9676
  109OSM   H14T11254   2.305   2.458   9.049 -0.3247 -0.7078  1.5541
  109OSM   C15S11255   2.344   2.628   8.940  0.0289 -0.2716  0.3604
  109OSM   H15S11256   2.306   2.571   8.853  3.2094 -1.6521 -0.2093
  109OSM   H15T11257   2.455   2.620   8.937 -0.1236 -2.3092 -1.7790
  109OSM   C16S11258   2.312   2.777   8.900 -0.5132  0.7656  0.4192
  109OSM   H16S11259   2.340   2.840   8.987  0.7556 -0.8888  1.2103
  109OSM   H16T11260   2.201   2.782   8.891 -0.6098 -1.4447  0.2901
  109OSM   C17S11261   2.393   2.818   8.767 -0.5753  0.7813 -1.0751
  109OSM   H17S11262   2.370   2.746   8.686  0.9466 -0.4316 -0.4687
  109OSM   H17T11263   2.500   2.810   8.797 -0.6602 -1.7736 -1.3438
  109OSM   C18S11264   2.352   2.959   8.723  0.5603 -0.3035  0.3856
  109OSM   H18S11265   2.359   3.022   8.814  2.2852 -0.5476  0.4367
  109OSM   H18T11266   2.246   2.968   8.691  0.4287  2.0725  1.3524
  109OSM   H18U11267   2.424   2.991   8.644 -1.1058 -0.5017 -1.2345
  109OSM    C1F11268   2.717   2.683  10.162  0.2583 -0.1073  0.2183
  109OSM     OF11269   2.792   2.641  10.248 -0.4655 -0.0466 -0.0952
  109OSM    C2F11270   2.768   2.708  10.026  1.0748  0.1507 -0.1712
  109OSM    H2F11271   2.870   2.751  10.025  1.0697  0.3840  3.6947
  109OSM    H2G11272   2.710   2.793   9.984  0.9849  1.0807  1.7641
  109OSM    C3F11273   2.759   2.581   9.937  0.0041  0.2003 -0.0366
  109OSM    H3F11274   2.650   2.560   9.931 -0.2550  1.9394 -2.0442
  109OSM    H3G11275   2.787   2.492   9.997 -0.0404  1.0617  1.2804
  109OSM    C4F11276   2.817   2.575   9.802 -0.4876 -0.6134  0.6081
  109OSM    H4F11277   2.795   2.479   9.751  1.6557  0.2347 -2.0640
  109OSM    H4G11278   2.927   2.588   9.808 -0.1123 -0.7736 -4.0339
  109OSM    C5F11279   2.756   2.686   9.719 -0.1969  0.2505  0.2640
  109OSM    H5F11280   2.816   2.779   9.729  0.6877 -0.2780 -0.0835
  109OSM    H5G11281   2.652   2.709   9.752 -0.7618 -2.5996  0.5935
  109OSM    C6F11282   2.744   2.654   9.569  0.8217 -0.2700 -0.5980
  109OSM    H6F11283   2.670   2.573   9.554 -3.3289  2.8932  1.7863
  109OSM    H6G11284   2.842   2.621   9.529  1.1044  2.0705 -1.9144
  109OSM    C7F11285   2.696   2.781   9.491 -0.4496  0.5731  0.1239
  109OSM    H7F11286   2.754   2.871   9.521 -2.0035  0.7536  2.7612
  109OSM    H7G11287   2.594   2.799   9.531 -0.9159 -1.3867 -0.1293
  109OSM    C8F11288   2.700   2.768   9.336 -0.0630  0.3298 -0.3013
  109OSM    H8F11289   2.663   2.667   9.308  0.8607 -0.4988  1.4104
  109OSM    H8G11290   2.804   2.774   9.298 -0.1406  0.7328 -0.4548
  109OSM    C9F11291   2.613   2.878   9.283 -0.7855 -0.9062  0.2949
  109OSM    H9F11292   2.518   2.910   9.329 -0.6944  3.2196 -2.1533
  109OSM   C10F11293   2.645   2.955   9.180 -0.0741 -0.2423 -0.2170
  109OSM   H10F11294   2.579   3.040   9.155  0.1130  0.5683  1.9925
  109OSM   C11F11295   2.765   2.950   9.092 -0.2024 -0.3353  0.0833
  109OSM   H11F11296   2.859   2.953   9.151  1.1698  0.0345 -2.0848
  109OSM   H11G11297   2.762   3.040   9.028 -0.1666  1.1445  2.1184
  109OSM   C12F11298   2.783   2.819   9.002 -0.4774 -0.1579 -0.4396
  109OSM   H12F11299   2.723   2.831   8.910  0.0790 -0.6681 -0.8679
  109OSM   H12G11300   2.748   2.736   9.067 -1.5727  0.7031  0.1048
  109OSM   C13F11301   2.936   2.796   8.977 -0.6754  0.2853 -0.1727
  109OSM   H13F11302   2.998   2.810   9.068  1.0421  1.1812 -1.4608
  109OSM   H13G11303   2.970   2.869   8.901  0.0403  0.9424  0.7628
  109OSM   C14F11304   2.962   2.653   8.920 -0.2563  0.3027  0.6099
  109OSM   H14F11305   2.942   2.578   8.999 -1.9627 -0.2709 -0.3314
  109OSM   H14G11306   3.070   2.633   8.904 -0.4456  0.3768 -0.7930
  109OSM   C15F11307   2.882   2.614   8.798  0.9552 -0.0326 -0.1144
  109OSM   H15F11308   2.778   2.631   8.832  1.6995  0.2571  2.0659
  109OSM   H15G11309   2.899   2.505   8.782  3.5602  0.7297 -3.1427
  109OSM   C16F11310   2.929   2.682   8.661  0.1582  0.5324 -0.1245
  109OSM   H16F11311   3.035   2.671   8.633  0.5924  2.7423  0.5492
  109OSM   H16G11312   2.912   2.789   8.685 -1.0214  0.0943  1.0341
  109OSM   C17F11313   2.844   2.650   8.534 -0.1134  0.4414  0.0702
  109OSM   H17F11314   2.846   2.543   8.503 -1.0342  1.1649 -2.5883
  109OSM   H17G11315   2.887   2.705   8.447 -0.8225  0.6346 -0.1565
  109OSM   C18F11316   2.700   2.692   8.556 -0.0134 -0.0885 -0.2261
  109OSM   H18F11317   2.686   2.802   8.549 -4.3270 -0.6745 -2.1492
  109OSM   H18G11318   2.647   2.644   8.640  0.9633 -2.6766 -1.0597
  109OSM   H18H11319   2.641   2.660   8.468 -0.1874  1.0830 -0.5473
  110OSM      N11320   3.288   2.131  11.167 -1.0050  0.1139  0.2749
  110OSM    C1511321   3.204   2.257  11.159  0.2387 -0.0217  0.1127
  110OSM   H15A11322   3.110   2.230  11.206  0.4238 -0.8915 -0.0101
  110OSM   H15B11323   3.175   2.285  11.058 -0.4021 -0.4797  0.1618
  110OSM   H15C11324   3.255   2.331  11.218  1.0935 -1.8000  1.6612
  110OSM    C1411325   3.399   2.149  11.066  0.4702  0.0811  0.6221
  110OSM   H14A11326   3.363   2.178  10.968  1.5469  1.2615  0.5535
  110OSM   H14B11327   3.466   2.065  11.057  2.3776  1.4147  2.0021
  110OSM   H14C11328   3.456   2.238  11.089 -1.4288  1.5524 -0.2550
  110OSM    C1311329   3.344   2.128  11.306 -0.3708 -0.3962  0.9682
  110OSM   H13A11330   3.418   2.050  11.319  1.1890  1.1879  1.7075
  110OSM   H13B11331   3.272   2.113  11.385 -1.5860 -0.1859 -0.0840
  110OSM   H13C11332   3.392   2.221  11.333 -1.4095  0.7397 -0.9374
  110OSM    C1211333   3.207   2.008  11.137 -0.5374  0.3861  0.2433
  110OSM   H12A11334   3.122   1.998  11.203  0.0123  0.4206  0.9558
  110OSM   H12B11335   3.266   1.919  11.147 -0.0828  0.5471 -0.8935
  110OSM    C1111336   3.128   2.002  11.008 -0.9419  0.0841  0.2593
  110OSM   H11A11337   3.091   1.898  10.990 -0.5388 -0.5113  2.7218
  110OSM   H11B11338   3.207   2.033  10.936 -0.8458  0.5803  0.5802
  110OSM      P11339   2.927   2.144  10.921 -0.1135 -0.1685 -0.1917
  110OSM    O1311340   2.828   2.220  10.995 -0.0534  0.2203  0.3731
  110OSM    O1411341   3.009   2.210  10.823 -0.3968 -0.6743  0.1567
  110OSM    O1111342   2.879   2.014  10.861  0.0597  0.1949 -0.2042
  110OSM    O1211343   3.021   2.088  11.029 -0.3186 -0.5562 -0.0505
  110OSM    C1S11344   2.811   2.007  10.734 -0.3134 -1.2225 -1.0782
  110OSM    H1S11345   2.801   2.107  10.687  0.0050 -0.7342 -0.1273
  110OSM    H1T11346   2.707   1.975  10.755  0.1377 -1.1432  1.4865
  110OSM     NF11347   2.814   1.909  10.511 -0.3922 -0.4306  0.3467
  110OSM    HNF11348   2.732   1.852  10.508  0.5220 -1.6753 -1.5472
  110OSM    C2S11349   2.877   1.908  10.638 -0.3915  1.0075  0.4536
  110OSM    H2S11350   2.983   1.938  10.630  0.4729 -1.4804  1.8877
  110OSM    C3S11351   2.890   1.764  10.685  0.3097 -0.4062  0.6355
  110OSM    H3S11352   2.785   1.730  10.687  1.0569 -2.8886 -0.7987
  110OSM     O311353   2.929   1.741  10.813  0.0890 -0.1699 -0.0746
  110OSM    HO311354   2.938   1.832  10.841  0.1397  0.1979 -1.2369
  110OSM    C4S11355   2.980   1.689  10.591  0.1864  0.6118 -0.5043
  110OSM    H4S11356   3.072   1.743  10.563  0.3828  2.0070  2.7343
  110OSM    C5S11357   2.953   1.569  10.526  0.2657 -0.2222 -0.6616
  110OSM    H5S11358   2.861   1.511  10.535 -0.7488  1.4210 -0.2842
  110OSM    C6S11359   3.062   1.512  10.437  0.1009  0.2840  0.3073
  110OSM    H6S11360   3.129   1.436  10.482  1.5482  1.8873  0.9175
  110OSM    H6T11361   3.125   1.598  10.404  0.4904 -0.6121 -1.3043
  110OSM    C7S11362   2.999   1.474  10.303 -0.4209 -0.3666 -0.1710
  110OSM    H7S11363   2.946   1.378  10.321 -1.4395  0.0242 -1.0048
  110OSM    H7T11364   3.083   1.442  10.237 -1.1141 -3.2982  0.2914
  110OSM    C8S11365   2.907   1.583  10.227  0.2071  0.2322  0.3408
  110OSM    H8S11366   2.963   1.679  10.225 -1.0172  0.9644  0.3432
  110OSM    H8T11367   2.819   1.602  10.293 -0.1831 -0.0376 -0.1014
  110OSM    C9S11368   2.875   1.560  10.080  0.1870 -0.9222  0.2268
  110OSM    H9S11369   2.783   1.498  10.072 -0.6880  0.6191 -1.8754
  110OSM    H9T11370   2.960   1.504  10.037  1.2398 -0.1473  1.2763
  110OSM   C10S11371   2.859   1.687   9.991 -0.0204 -0.1769  0.7285
  110OSM   H10S11372   2.948   1.753  10.001 -0.4916 -0.0513  4.6427
  110OSM   H10T11373   2.776   1.746  10.034  1.1522  2.0744 -0.0025
  110OSM   C11S11374   2.822   1.641   9.846  0.3699 -0.0073 -0.2576
  110OSM   H11S11375   2.744   1.566   9.868 -0.1431  1.0727  1.7430
  110OSM   H11T11376   2.910   1.582   9.812  1.5543  1.0215  0.9306
  110OSM   C12S11377   2.801   1.753   9.740  0.4421 -0.2707  0.1950
  110OSM   H12S11378   2.898   1.806   9.729  1.4522 -2.0676  0.1398
  110OSM   H12T11379   2.722   1.827   9.761 -0.3210 -0.8348 -0.6449
  110OSM   C13S11380   2.773   1.699   9.598  0.0094 -0.4865  0.1036
  110OSM   H13S11381   2.693   1.622   9.599  0.1635 -0.6356  1.2518
  110OSM   H13T11382   2.868   1.649   9.570  0.7461  0.7406  0.3596
  110OSM   C14S11383   2.710   1.808   9.504 -0.4121  0.1079 -0.4058
  110OSM   H14S11384   2.746   1.910   9.531 -2.0953 -0.2806  3.6239
  110OSM   H14T11385   2.602   1.802   9.527 -0.0331 -0.5786  1.3172
  110OSM   C15S11386   2.712   1.772   9.357 -0.1564  0.5709  0.0905
  110OSM   H15S11387   2.644   1.837   9.298  2.4235  2.4250 -0.9093
  110OSM   H15T11388   2.667   1.671   9.348  2.7424 -0.5372 -2.9055
  110OSM   C16S11389   2.852   1.777   9.298  0.6004 -0.5545  0.3245
  110OSM   H16S11390   2.914   1.691   9.333  2.4188  0.4396 -0.3767
  110OSM   H16T11391   2.904   1.870   9.330 -1.2195  0.9002 -0.9279
  110OSM   C17S11392   2.855   1.768   9.143  0.2997  0.2389  0.1471
  110OSM   H17S11393   2.802   1.673   9.120  2.5318 -0.5602 -1.9554
  110OSM   H17T11394   2.960   1.747   9.114  0.2470 -0.4465  0.4379
  110OSM   C18S11395   2.807   1.876   9.063  0.4915  0.0443 -0.2990
  110OSM   H18S11396   2.828   1.860   8.955  1.9779  2.1943 -0.3552
  110OSM   H18T11397   2.852   1.975   9.086 -1.3644  0.8816 -0.2218
  110OSM   H18U11398   2.701   1.908   9.064  1.3995  3.2026  0.6936
  110OSM    C1F11399   2.826   2.018  10.427  0.0135 -0.7677  0.0869
  110OSM     OF11400   2.908   2.111  10.440  0.2709 -0.1378 -0.5303
  110OSM    C2F11401   2.722   2.013  10.315  0.5202  0.2908  0.0022
  110OSM    H2F11402   2.626   2.008  10.370 -1.6119 -1.5256 -3.6780
  110OSM    H2G11403   2.738   1.924  10.249  1.4740  0.4621 -0.0074
  110OSM    C3F11404   2.715   2.144  10.233  0.1793  0.5690  0.1657
  110OSM    H3F11405   2.814   2.169  10.190 -0.1043 -3.1758 -2.9216
  110OSM    H3G11406   2.693   2.224  10.307 -0.8269  0.7652 -0.3441
  110OSM    C4F11407   2.604   2.144  10.124  0.6455 -0.1935 -0.0205
  110OSM    H4F11408   2.614   2.245  10.079  3.3197 -0.6045 -0.4102
  110OSM    H4G11409   2.497   2.143  10.156 -0.0261 -1.1631 -2.2102
  110OSM    C5F11410   2.624   2.028  10.034  0.2428  0.6637  0.4123
  110OSM    H5F11411   2.574   1.937  10.075  0.9096  0.1376  0.0729
  110OSM    H5G11412   2.733   2.012  10.023  0.6322  1.7638  2.4739
  110OSM    C6F11413   2.549   2.055   9.893  0.0145 -0.3165  0.2522
  110OSM    H6F11414   2.448   2.094   9.917  1.1450  2.0832  1.2949
  110OSM    H6G11415   2.533   1.960   9.837 -0.0322  0.8542 -1.7360
  110OSM    C7F11416   2.623   2.162   9.813 -0.3655  0.0603 -0.3716
  110OSM    H7F11417   2.728   2.127   9.802 -0.4135  0.3350 -1.9329
  110OSM    H7G11418   2.627   2.255   9.873  3.0507 -0.4004  0.1995
  110OSM    C8F11419   2.560   2.185   9.678 -0.0024 -0.1186 -0.0222
  110OSM    H8F11420   2.456   2.216   9.701 -0.2606 -1.7522  1.0720
  110OSM    H8G11421   2.550   2.085   9.631 -1.7301 -0.4526  1.0271
  110OSM    C9F11422   2.633   2.287   9.594 -1.2799 -0.3044 -0.1613
  110OSM    H9F11423   2.621   2.391   9.630 -1.7590 -1.0623  1.9264
  110OSM   C10F11424   2.675   2.271   9.469  1.2285  0.4074  0.3251
  110OSM   H10F11425   2.735   2.349   9.420  2.1944 -0.3050  0.3515
  110OSM   C11F11426   2.659   2.149   9.379 -0.1842  0.4841 -0.1540
  110OSM   H11F11427   2.605   2.068   9.433  1.4476 -0.7415 -0.3248
  110OSM   H11G11428   2.754   2.098   9.352 -0.1571 -0.1333  1.0602
  110OSM   C12F11429   2.574   2.178   9.252  0.0074  0.3075 -0.4384
  110OSM   H12F11430   2.481   2.234   9.276 -0.9645 -0.8832 -1.3522
  110OSM   H12G11431   2.561   2.074   9.214  2.0797 -0.4344  0.7910
  110OSM   C13F11432   2.643   2.264   9.144  0.4156  0.1015 -0.0031
  110OSM   H13F11433   2.753   2.246   9.150  0.2961 -0.3272  1.0277
  110OSM   H13G11434   2.631   2.367   9.182 -0.2493 -0.4399  1.2893
  110OSM   C14F11435   2.571   2.242   9.011  0.0407  0.4887 -1.1909
  110OSM   H14F11436   2.460   2.236   9.010  0.0466  0.2454 -0.5595
  110OSM   H14G11437   2.614   2.142   8.988  1.7616  0.6646  1.0871
  110OSM   C15F11438   2.623   2.331   8.899 -0.1861  0.1675  0.0839
  110OSM   H15F11439   2.733   2.322   8.889 -0.1405 -1.0343  1.6111
  110OSM   H15G11440   2.591   2.430   8.939 -1.2144 -0.4322  0.7486
  110OSM   C16F11441   2.553   2.308   8.765  0.7850  0.0368  0.7350
  110OSM   H16F11442   2.620   2.358   8.691  0.7124 -1.6636 -0.4941
  110OSM   H16G11443   2.456   2.361   8.760 -0.2207 -1.8095  0.4000
  110OSM   C17F11444   2.529   2.154   8.731 -0.1531 -0.7249  0.3323
  110OSM   H17F11445   2.485   2.155   8.629 -0.4381  0.9007  0.4494
  110OSM   H17G11446   2.464   2.101   8.804  0.4015 -0.8102  0.7709
  110OSM   C18F11447   2.658   2.068   8.723 -0.1980  0.3785  0.0853
  110OSM   H18F11448   2.645   1.962   8.693 -3.8810  0.7342  0.1911
  110OSM   H18G11449   2.716   2.066   8.817 -0.7661 -3.8591  0.4277
  110OSM   H18H11450   2.715   2.101   8.633  0.7317  0.6976  0.7883
  111OSM      N11451   4.030   4.414  10.909 -0.8860  0.2930 -0.4671
  111OSM    C1511452   3.908   4.386  10.829 -0.0765  0.5533 -0.0663
  111OSM   H15A11453   3.912   4.405  10.723 -2.3576 -1.6616 -0.5944
  111OSM   H15B11454   3.826   4.442  10.871 -1.5936 -1.2152 -0.6104
  111OSM   H15C11455   3.889   4.280  10.838 -0.7761  0.5212 -1.7697
  111OSM    C1411456   3.989   4.390  11.050  0.6825  0.0427 -0.3667
  111OSM   H14A11457   3.939   4.482  11.078  0.8031  0.2829 -0.9111
  111OSM   H14B11458   4.063   4.389  11.128 -0.9920  2.6077  1.3472
  111OSM   H14C11459   3.916   4.312  11.058  0.3174  0.6478  2.7733
  111OSM    C1311460   4.135   4.316  10.863  0.7531 -0.2336  0.6325
  111OSM   H13A11461   4.231   4.330  10.912  0.2831  1.2715  1.1360
  111OSM   H13B11462   4.152   4.322  10.757 -0.1569 -0.8935  0.4450
  111OSM   H13C11463   4.096   4.218  10.884 -1.0410  0.5355  0.9269
  111OSM    C1211464   4.079   4.553  10.884 -0.3882 -0.4602 -0.2789
  111OSM   H12A11465   4.173   4.571  10.935 -0.7201 -0.6410  0.3985
  111OSM   H12B11466   4.010   4.617  10.939  2.3151  1.1065  1.4324
  111OSM    C1111467   4.072   4.608  10.741 -1.0016  0.2116 -1.0548
  111OSM   H11A11468   4.102   4.518  10.683 -0.8919 -2.3934  2.8372
  111OSM   H11B11469   4.139   4.696  10.730 -0.3796  0.0543  1.1636
  111OSM      P11470   3.871   4.775  10.714  0.2048 -0.0281  0.0538
  111OSM    O1311471   3.726   4.764  10.684 -0.5213  0.3662 -0.0929
  111OSM    O1411472   3.903   4.828  10.849  0.6918  0.3375 -0.0791
  111OSM    O1111473   3.936   4.865  10.601  0.3705 -0.3364 -0.3364
  111OSM    O1211474   3.941   4.641  10.699 -0.0670 -0.1445  0.5641
  111OSM    C1S11475   3.962   4.804  10.471 -0.6503  0.0294 -0.7680
  111OSM    H1S11476   3.984   4.695  10.478 -0.6404  0.1320  1.3225
  111OSM    H1T11477   4.049   4.860  10.432 -1.7759  1.9981 -0.5019
  111OSM     NF11478   3.864   4.719  10.250  0.9071 -0.5791 -0.0994
  111OSM    HNF11479   3.913   4.761  10.174 -0.9128  2.7133  0.4542
  111OSM    C2S11480   3.846   4.819  10.362 -0.4559  0.2305 -0.0587
  111OSM    H2S11481   3.747   4.796  10.406 -1.3407  0.4964 -1.8589
  111OSM    C3S11482   3.836   4.964  10.310 -0.4237 -0.4876 -0.9036
  111OSM    H3S11483   3.922   4.981  10.242  0.7421 -0.8819  0.4422
  111OSM     O311484   3.832   5.064  10.403 -0.3935 -0.6671  0.0551
  111OSM    HO311485   3.851   5.025  10.489 -0.0313 -2.7162 -0.9396
  111OSM    C4S11486   3.711   4.975  10.218  0.2022 -0.0266 -0.4568
  111OSM    H4S11487   3.624   4.938  10.273  0.3442  0.5498  0.1545
  111OSM    C5S11488   3.699   5.034  10.096  1.2185  0.0199  0.3225
  111OSM    H5S11489   3.791   5.065  10.044  0.6672 -1.4014 -1.5659
  111OSM    C6S11490   3.577   5.054  10.004  0.4101 -1.1926 -0.0720
  111OSM    H6S11491   3.565   5.163   9.986  0.9917 -0.6160  2.7980
  111OSM    H6T11492   3.485   5.024  10.058  0.1366 -0.8314 -0.3400
  111OSM    C7S11493   3.584   4.982   9.865 -0.4361 -0.3060 -0.3307
  111OSM    H7S11494   3.561   4.875   9.882 -0.7265 -0.3301 -0.8504
  111OSM    H7T11495   3.686   4.993   9.823 -1.3375  3.0757 -1.8873
  111OSM    C8S11496   3.474   5.035   9.767 -0.3480  0.1532 -0.6866
  111OSM    H8S11497   3.511   5.137   9.742 -0.9611 -0.0372 -2.3836
  111OSM    H8T11498   3.384   5.041   9.832 -0.5479  0.0060 -0.9513
  111OSM    C9S11499   3.439   4.949   9.650 -0.4152  0.3318  0.0789
  111OSM    H9S11500   3.337   4.961   9.607  0.2257 -2.4154 -2.3736
  111OSM    H9T11501   3.433   4.842   9.678  0.0972  0.3843  0.3818
  111OSM   C10S11502   3.524   4.967   9.525  0.0335  0.4609 -0.7966
  111OSM   H10S11503   3.618   4.916   9.555 -2.3218 -2.2678  2.3568
  111OSM   H10T11504   3.541   5.075   9.507  0.6825  0.3428 -0.9163
  111OSM   C11S11505   3.470   4.901   9.406 -0.3763  0.3181 -0.5592
  111OSM   H11S11506   3.369   4.941   9.382  0.2911  2.0184 -0.5977
  111OSM   H11T11507   3.461   4.793   9.430 -2.1732  0.4682 -0.4972
  111OSM   C12S11508   3.569   4.917   9.291 -0.4369  0.4544 -0.1354
  111OSM   H12S11509   3.666   4.869   9.318 -0.5203 -1.1688 -2.6243
  111OSM   H12T11510   3.588   5.026   9.285 -1.0943  0.4633 -2.2431
  111OSM   C13S11511   3.516   4.845   9.165 -0.1255  0.2021  0.5978
  111OSM   H13S11512   3.423   4.899   9.138 -0.6046 -0.9496 -0.0816
  111OSM   H13T11513   3.504   4.738   9.189  2.3612 -1.1102 -3.4247
  111OSM   C14S11514   3.607   4.869   9.039  0.0652 -0.2324 -0.0568
  111OSM   H14S11515   3.716   4.854   9.053  0.0104 -0.1231  0.4885
  111OSM   H14T11516   3.586   4.976   9.016 -0.0312 -0.1599  0.3614
  111OSM   C15S11517   3.570   4.787   8.917  0.0490 -0.7900 -0.2361
  111OSM   H15S11518   3.465   4.800   8.882  0.7306  1.7989 -1.4139
  111OSM   H15T11519   3.599   4.683   8.942 -1.4025 -1.4032 -1.0449
  111OSM   C16S11520   3.676   4.834   8.817  0.1492  0.5870 -0.2787
  111OSM   H16S11521   3.778   4.813   8.857  0.2522  0.5546 -0.5579
  111OSM   H16T11522   3.673   4.943   8.800  0.1125  0.6037 -0.1567
  111OSM   C17S11523   3.663   4.772   8.680  0.5896 -0.4388  0.3708
  111OSM   H17S11524   3.570   4.798   8.625  0.8562 -3.3830 -1.6013
  111OSM   H17T11525   3.659   4.661   8.689  0.7422 -0.2758  2.7262
  111OSM   C18S11526   3.774   4.808   8.579 -0.2840 -0.0760  0.5260
  111OSM   H18S11527   3.858   4.740   8.604 -1.0822 -0.9324  0.9042
  111OSM   H18T11528   3.795   4.917   8.574  0.4754 -0.1369  2.0430
  111OSM   H18U11529   3.737   4.778   8.479 -0.1757 -1.0133  0.7577
  111OSM    C1F11530   3.845   4.594  10.284  0.3193  0.7628 -0.4492
  111OSM     OF11531   3.802   4.567  10.395 -0.0212 -0.0198 -0.3662
  111OSM    C2F11532   3.875   4.501  10.180 -0.1145 -0.5815  0.2325
  111OSM    H2F11533   3.915   4.406  10.221  0.3097 -1.0538 -1.2598
  111OSM    H2G11534   3.950   4.538  10.107 -0.7491  0.2735 -0.0006
  111OSM    C3F11535   3.740   4.466  10.117  0.0850 -0.4191 -0.0209
  111OSM    H3F11536   3.713   4.550  10.048 -0.3123  2.6068  3.6499
  111OSM    H3G11537   3.656   4.453  10.188 -0.8221  0.0561 -0.9917
  111OSM    C4F11538   3.746   4.339  10.030 -0.1846  0.1673  0.3940
  111OSM    H4F11539   3.748   4.252  10.100  1.6547 -3.2440 -3.6709
  111OSM    H4G11540   3.837   4.335   9.966 -0.2714 -1.8851  0.3660
  111OSM    C5F11541   3.626   4.312   9.947  0.6667  0.3240  0.4781
  111OSM    H5F11542   3.543   4.295  10.018  1.4715  0.8316  1.5549
  111OSM    H5G11543   3.645   4.219   9.889  0.2373 -0.1777  1.1306
  111OSM    C6F11544   3.601   4.423   9.850  0.1021  0.2236 -0.6294
  111OSM    H6F11545   3.567   4.516   9.900  1.9877 -0.5945  2.3126
  111OSM    H6G11546   3.518   4.388   9.785  0.7314 -1.0654 -0.7683
  111OSM    C7F11547   3.720   4.466   9.758 -0.5711 -0.2035  0.1531
  111OSM    H7F11548   3.746   4.376   9.697  0.0333 -0.6254  1.0171
  111OSM    H7G11549   3.808   4.493   9.821  1.5286 -1.8579 -1.9689
  111OSM    C8F11550   3.679   4.588   9.678  0.3556 -0.2262  0.3407
  111OSM    H8F11551   3.656   4.673   9.746 -4.5093  0.4558 -1.8930
  111OSM    H8G11552   3.586   4.558   9.625  0.8415 -0.0509 -0.6218
  111OSM    C9F11553   3.771   4.636   9.563  1.2040  0.0264  1.1963
  111OSM    H9F11554   3.807   4.740   9.565 -0.0197  0.4477  1.6998
  111OSM   C10F11555   3.804   4.569   9.454  0.4688 -0.4398  0.0100
  111OSM   H10F11556   3.871   4.605   9.374  1.9944  0.7874  1.7936
  111OSM   C11F11557   3.762   4.428   9.418  0.0082  0.7355  0.2046
  111OSM   H11F11558   3.695   4.383   9.494  1.4317 -0.5315  0.7237
  111OSM   H11G11559   3.847   4.357   9.410 -0.5909 -0.0064  0.3842
  111OSM   C12F11560   3.678   4.426   9.290  0.6427 -0.0727  0.5244
  111OSM   H12F11561   3.603   4.507   9.291  0.5288 -0.1279 -1.4305
  111OSM   H12G11562   3.627   4.327   9.283 -0.9841  0.7909  0.0627
  111OSM   C13F11563   3.765   4.432   9.163 -0.1807  0.0767 -0.1069
  111OSM   H13F11564   3.860   4.378   9.180 -0.8405 -0.4828  1.9327
  111OSM   H13G11565   3.791   4.538   9.143  0.4556  0.3057  1.8940
  111OSM   C14F11566   3.691   4.374   9.048  0.1441  0.5709  0.2856
  111OSM   H14F11567   3.597   4.433   9.049 -0.4906 -0.4450  1.8365
  111OSM   H14G11568   3.650   4.274   9.073  2.4941 -0.3196  0.7957
  111OSM   C15F11569   3.762   4.392   8.916 -0.0096  0.0484  0.9481
  111OSM   H15F11570   3.847   4.322   8.899 -0.4639 -0.1104 -0.7071
  111OSM   H15G11571   3.797   4.497   8.904  0.6466 -0.2833 -0.1635
  111OSM   C16F11572   3.671   4.373   8.797  0.3455  0.4286  0.0006
  111OSM   H16F11573   3.607   4.464   8.797 -0.3405 -0.0405 -2.4688
  111OSM   H16G11574   3.600   4.291   8.820  0.4271  0.6217  1.0109
  111OSM   C17F11575   3.750   4.372   8.664 -0.4340 -0.0263 -0.2838
  111OSM   H17F11576   3.833   4.297   8.673  1.1730  1.3373 -3.0590
  111OSM   H17G11577   3.805   4.467   8.649  1.8752 -1.3318 -0.3725
  111OSM   C18F11578   3.662   4.354   8.543  0.0488  0.0505  0.0131
  111OSM   H18F11579   3.590   4.438   8.533 -0.1641  0.0348  1.4334
  111OSM   H18G11580   3.597   4.264   8.558  0.7907 -0.3079  1.1084
  111OSM   H18H11581   3.724   4.334   8.453 -0.4539  1.3661 -0.6333
  112OSM      N11582   4.084   1.881  10.839 -0.1460  0.2190 -0.0218
  112OSM    C1511583   4.099   1.822  10.707  1.0144  0.2724  0.4894
  112OSM   H15A11584   4.016   1.839  10.641  0.9322 -1.6044  0.0824
  112OSM   H15B11585   4.137   1.721  10.698  0.5571  0.0154  1.3796
  112OSM   H15C11586   4.180   1.868  10.652  0.0885 -0.5938 -1.6222
  112OSM    C1411587   4.020   2.017  10.821  0.4035  0.1983  0.9025
  112OSM   H14A11588   3.919   2.003  10.787  0.5441  1.8264 -0.2499
  112OSM   H14B11589   4.075   2.083  10.755  0.5225 -1.1566 -0.3796
  112OSM   H14C11590   4.022   2.078  10.910 -0.4484  2.2011 -0.4138
  112OSM    C1311591   3.991   1.798  10.917 -0.8097  0.6094 -0.5046
  112OSM   H13A11592   3.899   1.766  10.870 -0.3595 -2.6626  0.7418
  112OSM   H13B11593   3.964   1.851  11.007 -1.6817  0.7395 -0.8372
  112OSM   H13C11594   4.039   1.707  10.948  0.4148  1.6390  0.6737
  112OSM    C1211595   4.220   1.906  10.910  0.2696 -0.3729 -0.7184
  112OSM   H12A11596   4.273   1.969  10.841  0.3909 -0.2816 -0.5406
  112OSM   H12B11597   4.281   1.817  10.904 -1.0775 -1.3038 -1.0760
  112OSM    C1111598   4.219   1.961  11.058 -0.4980 -0.0472  0.0951
  112OSM   H11A11599   4.318   1.946  11.106 -0.4332  0.7786  0.2343
  112OSM   H11B11600   4.138   1.910  11.114  0.4338 -2.1639 -0.4442
  112OSM      P11601   4.306   2.204  11.028 -0.2707  0.1337  0.2049
  112OSM    O1311602   4.249   2.342  11.044  0.3308  0.2494 -0.1953
  112OSM    O1411603   4.421   2.162  11.104 -0.2072  0.4138  0.1261
  112OSM    O1111604   4.331   2.173  10.877  0.3372 -0.5104  0.0006
  112OSM    O1211605   4.188   2.103  11.056  0.0087  0.5330 -0.1493
  112OSM    C1S11606   4.441   2.249  10.816  0.0874  0.6121 -0.4198
  112OSM    H1S11607   4.539   2.227  10.864 -0.4408 -2.6197 -0.6937
  112OSM    H1T11608   4.419   2.358  10.823 -1.7874  0.1518  1.3965
  112OSM     NF11609   4.570   2.263  10.594 -0.3419 -0.0047 -0.2195
  112OSM    HNF11610   4.552   2.326  10.519 -0.1803  2.0106  1.3799
  112OSM    C2S11611   4.458   2.208  10.667 -0.1423  0.3380 -0.2192
  112OSM    H2S11612   4.486   2.101  10.668 -0.2122  0.3111  2.6715
  112OSM    C3S11613   4.331   2.238  10.587 -0.2172  0.2286 -0.0383
  112OSM    H3S11614   4.313   2.347  10.581  1.0701  0.5586  1.6395
  112OSM     O311615   4.219   2.178  10.641 -0.4065  0.3367 -0.5939
  112OSM    HO311616   4.255   2.171  10.730  2.3963 -0.1458 -1.7220
  112OSM    C4S11617   4.346   2.166  10.459 -0.4915 -0.0201 -0.0368
  112OSM    H4S11618   4.348   2.057  10.472 -4.5426 -0.0793  0.6279
  112OSM    C5S11619   4.342   2.217  10.330  0.0897  0.0980  0.8483
  112OSM    H5S11620   4.314   2.321  10.309  1.0283  0.0403 -0.8406
  112OSM    C6S11621   4.351   2.139  10.200 -0.2779 -0.0383  0.3430
  112OSM    H6S11622   4.342   2.214  10.118  0.6545  0.4644  0.6965
  112OSM    H6T11623   4.270   2.063  10.195  0.9264 -1.2266 -2.0561
  112OSM    C7S11624   4.489   2.070  10.193 -0.8584  0.5236 -0.2136
  112OSM    H7S11625   4.512   2.000  10.276 -0.3381 -0.8518 -1.4752
  112OSM    H7T11626   4.572   2.142  10.203  1.1422 -1.8822  1.2572
  112OSM    C8S11627   4.516   1.990  10.066 -0.3415  1.1265 -0.1204
  112OSM    H8S11628   4.448   1.902  10.057  1.0560  0.1088 -0.8095
  112OSM    H8T11629   4.618   1.947  10.066 -1.3496 -1.3221 -0.4994
  112OSM    C9S11630   4.528   2.078   9.937 -0.5311  0.1941 -0.6498
  112OSM    H9S11631   4.606   2.154   9.961  1.9157 -2.6285  0.7208
  112OSM    H9T11632   4.426   2.118   9.919 -1.8160 -1.8082  1.7987
  112OSM   C10S11633   4.565   2.005   9.809 -0.9017  0.2647  0.6705
  112OSM   H10S11634   4.508   1.911   9.791  1.2699 -0.5854 -2.0250
  112OSM   H10T11635   4.671   1.973   9.816 -0.7588  0.1827 -1.7198
  112OSM   C11S11636   4.556   2.111   9.695  0.4688  0.6294  0.1746
  112OSM   H11S11637   4.604   2.204   9.733  0.3907  0.3334  1.0147
  112OSM   H11T11638   4.448   2.137   9.692  0.3293 -0.0502 -1.0070
  112OSM   C12S11639   4.602   2.055   9.560 -0.0370 -0.0420  0.3877
  112OSM   H12S11640   4.702   2.011   9.576 -0.3573 -0.5380  1.0230
  112OSM   H12T11641   4.607   2.132   9.480  0.2037 -0.9686 -0.4916
  112OSM   C13S11642   4.513   1.945   9.499 -0.5569 -1.3770 -0.6836
  112OSM   H13S11643   4.413   1.991   9.483  0.1047  0.4235  0.3373
  112OSM   H13T11644   4.487   1.875   9.581  1.1486 -1.0148  0.1695
  112OSM   C14S11645   4.559   1.866   9.378 -0.0191 -0.2986 -0.1310
  112OSM   H14S11646   4.466   1.820   9.338  0.0548 -0.5482 -0.0133
  112OSM   H14T11647   4.636   1.789   9.397 -0.5158 -0.3953  1.6444
  112OSM   C15S11648   4.595   1.957   9.257  0.5638  0.8509  0.1447
  112OSM   H15S11649   4.698   1.993   9.277  1.0237  0.2951 -1.1383
  112OSM   H15T11650   4.519   2.038   9.253  0.2756  0.5158 -1.5353
  112OSM   C16S11651   4.603   1.880   9.129  0.1028  0.2426 -0.0150
  112OSM   H16S11652   4.508   1.823   9.124  0.0676  0.1702  1.2660
  112OSM   H16T11653   4.686   1.807   9.144  0.9335  1.5878  2.1768
  112OSM   C17S11654   4.624   1.965   9.001  0.9972 -0.0220 -0.2269
  112OSM   H17S11655   4.637   1.897   8.914  1.4796 -1.6366  1.0816
  112OSM   H17T11656   4.714   2.028   9.017 -0.5878  1.3535  3.7432
  112OSM   C18S11657   4.503   2.059   8.973 -0.1771 -0.0778 -0.3304
  112OSM   H18S11658   4.500   2.085   8.865  0.3597  0.3747 -0.2374
  112OSM   H18T11659   4.512   2.142   9.045  0.5658  0.4460 -1.0124
  112OSM   H18U11660   4.412   2.003   9.002  0.8283 -2.0043 -0.8018
  112OSM    C1F11661   4.698   2.226  10.618 -0.1760 -0.6161 -0.4688
  112OSM     OF11662   4.740   2.189  10.722  0.4907  0.2498 -0.2489
  112OSM    C2F11663   4.789   2.258  10.505 -0.1740 -0.0788  0.1694
  112OSM    H2F11664   4.839   2.356  10.520 -0.3847 -0.2718  2.2140
  112OSM    H2G11665   4.735   2.252  10.408 -1.6518 -0.3595  1.0052
  112OSM    C3F11666   4.895   2.149  10.498  0.1152  0.2314 -0.4153
  112OSM    H3F11667   4.846   2.054  10.468  2.2218 -1.5335  1.5148
  112OSM    H3G11668   4.953   2.123  10.589  1.1611  2.1507 -0.4973
  112OSM    C4F11669   4.997   2.178  10.383 -0.6167  0.0036  0.1258
  112OSM    H4F11670   5.075   2.099  10.378 -2.3630 -1.8260  0.9418
  112OSM    H4G11671   5.046   2.276  10.401 -2.1567  1.0629 -1.3016
  112OSM    C5F11672   4.939   2.184  10.243  0.2412  0.1219 -0.5398
  112OSM    H5F11673   4.866   2.266  10.223 -2.7414 -2.2105  0.5246
  112OSM    H5G11674   4.880   2.091  10.235 -1.6942  1.3797 -1.3035
  112OSM    C6F11675   5.031   2.192  10.126 -0.2161  0.3566  0.2148
  112OSM    H6F11676   5.098   2.104  10.128  1.6212  1.6849 -1.0465
  112OSM    H6G11677   5.090   2.282  10.152 -2.4164  1.5809  1.1727
  112OSM    C7F11678   4.960   2.212   9.991  0.5120  0.2870  0.1513
  112OSM    H7F11679   4.880   2.289  10.002 -0.2490 -0.2214 -1.6327
  112OSM    H7G11680   4.917   2.115   9.958 -1.1818  0.6530  1.1934
  112OSM    C8F11681   5.055   2.259   9.882  0.3921 -0.3135 -0.4934
  112OSM    H8F11682   5.103   2.357   9.905 -3.6356  1.0614  2.3874
  112OSM    H8G11683   4.985   2.294   9.803 -1.5560  0.0409  1.3491
  112OSM    C9F11684   5.155   2.148   9.845  0.5596  0.8067 -0.1551
  112OSM    H9F11685   5.244   2.131   9.908 -0.1735 -0.2619  0.5867
  112OSM   C10F11686   5.146   2.050   9.756 -0.3105 -0.5035 -0.6083
  112OSM   H10F11687   5.233   1.990   9.726 -0.4078  0.0882 -2.1408
  112OSM   C11F11688   5.020   2.036   9.672  0.4340  0.5805 -0.4290
  112OSM   H11F11689   4.937   2.108   9.678 -0.9795 -0.9612 -1.0976
  112OSM   H11G11690   4.975   1.938   9.698 -1.8871  1.6076 -0.4587
  112OSM   C12F11691   5.053   2.026   9.517 -0.3634  0.1599 -0.3530
  112OSM   H12F11692   5.078   1.922   9.487  3.0267 -0.6605  4.7972
  112OSM   H12G11693   5.136   2.097   9.496 -0.5537  0.8009  0.9939
  112OSM   C13F11694   4.932   2.070   9.426 -0.6816  0.8663 -1.3366
  112OSM   H13F11695   4.889   2.168   9.457  0.2938  0.8061  0.2187
  112OSM   H13G11696   4.853   1.992   9.432 -0.5419  0.9040  1.6246
  112OSM   C14F11697   4.965   2.089   9.276  0.7665 -0.2463  0.1988
  112OSM   H14F11698   5.037   2.172   9.258  1.5176 -1.0471 -0.4894
  112OSM   H14G11699   4.866   2.119   9.234 -0.8515 -1.3209  3.0453
  112OSM   C15F11700   5.004   1.960   9.206  0.0019  0.2900 -0.2092
  112OSM   H15F11701   4.919   1.889   9.205 -0.7308  1.1452  1.0090
  112OSM   H15G11702   5.091   1.907   9.251 -2.1628 -0.8884  2.7332
  112OSM   C16F11703   5.042   1.975   9.056 -0.9672 -0.1446 -0.6370
  112OSM   H16F11704   5.149   2.003   9.049 -1.2341  1.1707  0.2240
  112OSM   H16G11705   4.989   2.069   9.029 -0.3524  0.7295  1.1212
  112OSM   C17F11706   5.025   1.860   8.960  0.5850  0.2157 -0.1774
  112OSM   H17F11707   4.917   1.836   8.965 -0.0198  2.6605 -1.0432
  112OSM   H17G11708   5.068   1.760   8.985 -0.0795 -0.0358 -0.0184
  112OSM   C18F11709   5.073   1.891   8.818  0.3945 -0.7413  0.4045
  112OSM   H18F11710   5.183   1.908   8.808 -0.0723  1.8188 -0.4949
  112OSM   H18G11711   5.022   1.980   8.778  0.6889 -0.3926  0.7947
  112OSM   H18H11712   5.046   1.800   8.760 -0.1743 -1.0000  1.0760
  113OSM      N11713   1.743   6.117  11.207 -0.0360 -0.5461  0.7596
  113OSM    C1511714   1.663   6.002  11.266  0.0916 -0.4344 -0.1677
  113OSM   H15A11715   1.685   5.912  11.210 -3.0216 -2.1278  1.2145
  113OSM   H15B11716   1.558   6.023  11.253  0.2893  0.8752  0.2744
  113OSM   H15C11717   1.682   5.983  11.371  0.2105  0.4746 -0.0193
  113OSM    C1411718   1.716   6.235  11.288  0.8198 -0.1217  0.2456
  113OSM   H14A11719   1.739   6.218  11.392  1.9949  0.4928  0.1011
  113OSM   H14B11720   1.613   6.266  11.286  0.9981  0.5757  1.6021
  113OSM   H14C11721   1.785   6.314  11.262  0.1969  0.2112 -0.4235
  113OSM    C1311722   1.883   6.083  11.217  0.1879 -0.4683 -0.4722
  113OSM   H13A11723   1.911   5.990  11.170  0.7710  0.0424 -1.1546
  113OSM   H13B11724   1.926   6.094  11.315  2.2372  1.1141 -1.5103
  113OSM   H13C11725   1.932   6.165  11.166  1.3565  0.6562  2.4146
  113OSM    C1211726   1.703   6.137  11.060  0.2128  0.2347 -0.4331
  113OSM   H12A11727   1.744   6.049  11.011 -0.4380 -1.5648  2.1607
  113OSM   H12B11728   1.761   6.220  11.023 -1.8789  1.4861 -0.9524
  113OSM    C1111729   1.560   6.155  11.020  0.6730  0.2837  0.0270
  113OSM   H11A11730   1.504   6.074  11.071 -0.8610  1.0511 -0.3827
  113OSM   H11B11731   1.548   6.142  10.910  0.5885 -0.0229  0.0739
  113OSM      P11732   1.346   6.296  11.067  0.6581 -0.3438 -0.9229
  113OSM    O1311733   1.289   6.161  11.077 -0.7534 -0.0408  0.3932
  113OSM    O1411734   1.310   6.385  11.179 -0.3381 -0.3314 -0.1119
  113OSM    O1111735   1.292   6.357  10.931 -0.0899  0.3326 -0.0023
  113OSM    O1211736   1.501   6.285  11.056 -0.0784  0.4464 -1.0167
  113OSM    C1S11737   1.357   6.350  10.805  0.0593 -0.3881  0.3588
  113OSM    H1S11738   1.359   6.250  10.759 -0.3191 -0.0477 -0.4128
  113OSM    H1T11739   1.460   6.389  10.816 -0.0972  0.2977 -0.4873
  113OSM     NF11740   1.373   6.425  10.580  0.6418 -0.1573  0.1214
  113OSM    HNF11741   1.415   6.514  10.561 -0.1161  0.0281 -0.6553
  113OSM    C2S11742   1.294   6.431  10.695  0.0643  0.3437  0.3215
  113OSM    H2S11743   1.199   6.381  10.666  0.5307  0.2385 -1.0844
  113OSM    C3S11744   1.265   6.582  10.739  0.0886  0.1112 -0.8700
  113OSM    H3S11745   1.365   6.629  10.745 -0.1050  1.2458 -4.8425
  113OSM     O311746   1.201   6.593  10.867 -0.1337  0.4310  0.3666
  113OSM    HO311747   1.192   6.500  10.888  1.1787  0.6840  2.1890
  113OSM    C4S11748   1.190   6.660  10.628  0.1223  0.1701 -0.2492
  113OSM    H4S11749   1.254   6.702  10.550 -1.5717 -0.4377 -1.9876
  113OSM    C5S11750   1.056   6.671  10.610 -0.2993 -0.1633 -0.2032
  113OSM    H5S11751   0.989   6.600  10.660 -0.2764 -0.3469 -0.4339
  113OSM    C6S11752   1.001   6.751  10.494  0.0728 -0.2751  0.1973
  113OSM    H6S11753   0.964   6.852  10.521 -0.2762 -0.1642 -0.6754
  113OSM    H6T11754   0.906   6.701  10.465 -1.5541  3.9426 -2.1552
  113OSM    C7S11755   1.091   6.770  10.368 -0.5306  0.3471 -0.4339
  113OSM    H7S11756   1.150   6.677  10.350  0.2596  1.0226 -1.3557
  113OSM    H7T11757   1.173   6.842  10.386 -1.4930  1.2472  0.4276
  113OSM    C8S11758   1.002   6.806  10.249 -0.0017 -0.0357  0.2525
  113OSM    H8S11759   0.967   6.910  10.268 -0.3237 -0.3157  1.2299
  113OSM    H8T11760   0.912   6.742  10.235  0.1703 -0.4157  0.8596
  113OSM    C9S11761   1.077   6.802  10.117  0.3417  0.0856  1.0645
  113OSM    H9S11762   1.120   6.700  10.106 -0.9152 -0.3736  0.3169
  113OSM    H9T11763   1.161   6.873  10.133 -0.0055  1.3452 -2.2146
  113OSM   C10S11764   1.000   6.848   9.993  1.0537  0.5092 -0.8306
  113OSM   H10S11765   0.956   6.949  10.009  0.0465  0.1075 -1.0013
  113OSM   H10T11766   0.921   6.769   9.984  0.1861  1.2750 -0.0611
  113OSM   C11S11767   1.071   6.843   9.851  0.2115 -0.3009  0.8819
  113OSM   H11S11768   1.000   6.828   9.767  0.2624 -1.1675  0.9876
  113OSM   H11T11769   1.131   6.749   9.860 -0.2657 -0.6048  0.9067
  113OSM   C12S11770   1.160   6.964   9.825 -0.1264  0.4296  0.3380
  113OSM   H12S11771   1.244   6.942   9.895 -0.4064 -3.0240 -0.3351
  113OSM   H12T11772   1.113   7.054   9.870 -0.0478  1.2358 -1.1640
  113OSM   C13S11773   1.225   6.966   9.682  0.1728  0.1562  0.2039
  113OSM   H13S11774   1.290   6.878   9.666  0.2182  0.6364 -2.6473
  113OSM   H13T11775   1.285   7.059   9.672  0.8659 -0.2670  0.4476
  113OSM   C14S11776   1.128   6.963   9.559  0.4372  0.4959 -0.5775
  113OSM   H14S11777   1.049   7.040   9.564 -1.7652 -1.7640  0.3961
  113OSM   H14T11778   1.062   6.876   9.578  1.3796 -0.1980 -0.4444
  113OSM   C15S11779   1.205   6.957   9.426 -0.5226 -0.1497  0.0930
  113OSM   H15S11780   1.134   6.917   9.349 -0.9457  0.2253  0.2875
  113OSM   H15T11781   1.300   6.901   9.441 -0.1113  0.0821 -1.5207
  113OSM   C16S11782   1.240   7.095   9.380 -0.2313  0.1462  0.0517
  113OSM   H16S11783   1.286   7.162   9.456  1.9452  0.2313 -1.2961
  113OSM   H16T11784   1.150   7.155   9.356  1.2372  1.7525 -1.5816
  113OSM   C17S11785   1.310   7.096   9.239 -0.4393  0.1956  0.0696
  113OSM   H17S11786   1.299   7.198   9.196 -1.1255  0.3805  0.6861
  113OSM   H17T11787   1.252   7.027   9.174 -0.0077 -0.4346  0.3501
  113OSM   C18S11788   1.452   7.040   9.242 -0.3321  0.1121  0.6232
  113OSM   H18S11789   1.468   6.931   9.257 -1.0473 -0.2566 -1.1050
  113OSM   H18T11790   1.514   7.081   9.325  0.2129 -1.1120  0.8430
  113OSM   H18U11791   1.510   7.061   9.149  1.9344 -0.1102  1.9565
  113OSM    C1F11792   1.374   6.329  10.491 -0.0688  0.2286  0.4146
  113OSM     OF11793   1.325   6.221  10.518  0.2157  0.1451  0.0219
  113OSM    C2F11794   1.435   6.366  10.357  0.5741  1.0188 -0.7868
  113OSM    H2F11795   1.546   6.363  10.364  0.4482  1.1911  1.7599
  113OSM    H2G11796   1.413   6.473  10.335  1.0723  1.0297 -1.2529
  113OSM    C3F11797   1.370   6.275  10.245 -0.4106  0.1941 -0.3699
  113OSM    H3F11798   1.259   6.279  10.239 -0.3934 -0.7678 -1.8624
  113OSM    H3G11799   1.392   6.168  10.267  0.3993 -0.0580 -2.2543
  113OSM    C4F11800   1.424   6.323  10.109 -0.0229 -0.5843 -0.2274
  113OSM    H4F11801   1.532   6.350  10.115 -0.5845  2.0582 -1.4645
  113OSM    H4G11802   1.358   6.410  10.090 -1.5031 -1.9173 -1.3292
  113OSM    C5F11803   1.409   6.214  10.002 -0.6136 -0.1274 -0.2364
  113OSM    H5F11804   1.304   6.181  10.010 -1.1100  1.3454 -0.4386
  113OSM    H5G11805   1.469   6.122  10.019  0.7165  0.5516 -1.1554
  113OSM    C6F11806   1.442   6.264   9.863  0.4405  0.7966  0.2683
  113OSM    H6F11807   1.547   6.296   9.849 -0.3092  2.4116 -1.9802
  113OSM    H6G11808   1.379   6.355   9.864 -1.0911 -0.2314  2.9079
  113OSM    C7F11809   1.400   6.180   9.747  0.0330 -0.2482 -0.0235
  113OSM    H7F11810   1.295   6.156   9.775 -0.9382  2.4302 -1.1503
  113OSM    H7G11811   1.465   6.090   9.736 -0.0546 -0.2913 -0.1959
  113OSM    C8F11812   1.378   6.256   9.615  0.0433  0.1333  0.2327
  113OSM    H8F11813   1.330   6.355   9.632 -0.3133 -0.3728  2.2790
  113OSM    H8G11814   1.307   6.208   9.545  0.1039 -0.6194  0.6844
  113OSM    C9F11815   1.511   6.280   9.550  0.8635  0.6512 -0.8595
  113OSM    H9F11816   1.587   6.318   9.620 -0.7973  0.4955  1.0453
  113OSM   C10F11817   1.544   6.253   9.427  0.8736 -0.5008  0.4969
  113OSM   H10F11818   1.645   6.271   9.388  0.0278  1.1680 -0.9857
  113OSM   C11F11819   1.458   6.185   9.333  0.6146  0.5801  0.6944
  113OSM   H11F11820   1.353   6.218   9.342 -0.5367 -1.8370 -3.0684
  113OSM   H11G11821   1.458   6.075   9.354 -0.6052  0.5664  0.6197
  113OSM   C12F11822   1.468   6.223   9.177  0.0433 -0.3598  0.0537
  113OSM   H12F11823   1.472   6.333   9.171  2.5843 -0.2746  2.1407
  113OSM   H12G11824   1.378   6.178   9.130  0.3434 -0.0710 -0.8056
  113OSM   C13F11825   1.591   6.155   9.117 -0.1729  0.3796 -0.2785
  113OSM   H13F11826   1.601   6.044   9.125 -1.8232  0.4323  3.4606
  113OSM   H13G11827   1.683   6.206   9.154 -0.4289  1.5744 -1.2616
  113OSM   C14F11828   1.601   6.175   8.964 -0.4909 -0.7990  0.0624
  113OSM   H14F11829   1.581   6.284   8.956 -5.4790 -1.4420  1.7172
  113OSM   H14G11830   1.519   6.119   8.915 -1.0146 -0.3027  0.3618
  113OSM   C15F11831   1.746   6.132   8.918  0.3310  0.1889 -0.1314
  113OSM   H15F11832   1.752   6.022   8.930 -2.4755  0.1660  1.6394
  113OSM   H15G11833   1.820   6.174   8.990 -2.5975  1.5870  2.2248
  113OSM   C16F11834   1.765   6.176   8.775 -0.1787  0.5509 -0.0699
  113OSM   H16F11835   1.669   6.182   8.718 -0.4941 -1.9610  0.1650
  113OSM   H16G11836   1.830   6.103   8.722  1.3363  1.3322  0.6956
  113OSM   C17F11837   1.844   6.307   8.801  0.0626  0.1671  0.9692
  113OSM   H17F11838   1.796   6.354   8.889 -0.9552 -0.1333  0.5873
  113OSM   H17G11839   1.820   6.374   8.716  0.9475 -2.4476 -1.4127
  113OSM   C18F11840   1.993   6.289   8.816 -0.6994 -0.4264 -0.0827
  113OSM   H18F11841   2.052   6.271   8.723  3.6022  0.8451  2.2341
  113OSM   H18G11842   2.010   6.201   8.882 -1.1536  0.5082  1.2791
  113OSM   H18H11843   2.049   6.375   8.859 -0.9208 -0.2119 -0.2221
  114OSM      N11844   3.492   1.322  11.099  0.1094 -0.5656 -0.1377
  114OSM    C1511845   3.593   1.218  11.074  0.7559 -0.1555 -1.4361
  114OSM   H15A11846   3.601   1.157  11.163 -2.6596  0.5464 -0.5887
  114OSM   H15B11847   3.686   1.267  11.050 -0.0116  1.9236 -0.2935
  114OSM   H15C11848   3.566   1.148  10.997 -2.3069 -0.8803  0.2419
  114OSM    C1411849   3.365   1.257  11.124 -0.1238 -0.2245  0.6589
  114OSM   H14A11850   3.339   1.183  11.049 -1.9011 -0.6621  1.6642
  114OSM   H14B11851   3.285   1.329  11.118 -2.0886 -2.2637  1.4315
  114OSM   H14C11852   3.372   1.223  11.226 -0.1445 -1.5182  0.2522
  114OSM    C1311853   3.532   1.416  11.208 -0.2992  0.3325  0.1805
  114OSM   H13A11854   3.450   1.468  11.255  1.1089  1.4092  1.5244
  114OSM   H13B11855   3.600   1.491  11.171  0.0131 -0.4363 -0.8167
  114OSM   H13C11856   3.569   1.352  11.287 -2.3351  0.7289  1.4945
  114OSM    C1211857   3.463   1.414  10.977  0.1000 -0.0493 -0.2137
  114OSM   H12A11858   3.399   1.487  11.026  1.7146  1.1295  0.1698
  114OSM   H12B11859   3.423   1.357  10.894  0.3044  0.0341 -0.3696
  114OSM    C1111860   3.575   1.498  10.921  0.2556 -0.0190 -0.1755
  114OSM   H11A11861   3.549   1.517  10.815  1.8992 -2.7946 -1.1437
  114OSM   H11B11862   3.672   1.444  10.924  0.2898 -0.1734 -2.7762
  114OSM      P11863   3.458   1.726  11.006  0.4633  0.1683  0.1446
  114OSM    O1311864   3.335   1.657  11.055 -0.2051 -0.2801  0.1071
  114OSM    O1411865   3.502   1.844  11.089 -0.4716 -0.4333 -0.3241
  114OSM    O1111866   3.444   1.767  10.859 -0.5079  0.4157 -0.4614
  114OSM    O1211867   3.572   1.618  11.010 -0.0386  0.0115 -0.1620
  114OSM    C1S11868   3.543   1.841  10.787  0.0200 -0.0173 -0.2348
  114OSM    H1S11869   3.646   1.800  10.795  0.8323  2.0407  0.0497
  114OSM    H1T11870   3.534   1.948  10.813 -3.2720  0.1152 -1.6904
  114OSM     NF11871   3.587   1.942  10.569 -0.6729  0.1276 -0.1468
  114OSM    HNF11872   3.522   2.016  10.549 -2.1328 -1.1874 -0.3081
  114OSM    C2S11873   3.523   1.829  10.638 -0.8365  0.0483  0.1944
  114OSM    H2S11874   3.576   1.735  10.611  2.0274  1.2816  1.3117
  114OSM    C3S11875   3.374   1.814  10.597 -1.2322  0.2310 -0.0954
  114OSM    H3S11876   3.316   1.894  10.648  0.0652  1.5340 -0.6102
  114OSM     O311877   3.321   1.696  10.649  0.2857  0.0357 -0.1246
  114OSM    HO311878   3.367   1.695  10.733  2.1596 -0.7272 -1.1369
  114OSM    C4S11879   3.357   1.811  10.440  0.0135 -0.2715  0.8597
  114OSM    H4S11880   3.423   1.737  10.392  1.3777  1.3549  0.1593
  114OSM    C5S11881   3.257   1.881  10.373 -0.8438 -0.3840  0.2915
  114OSM    H5S11882   3.164   1.917  10.420 -1.9279  0.1850 -2.1947
  114OSM    C6S11883   3.228   1.888  10.220 -1.1815 -0.6054 -1.0805
  114OSM    H6S11884   3.178   1.986  10.200 -0.7261  0.2230  1.6608
  114OSM    H6T11885   3.160   1.811  10.177 -1.6091 -1.5537  1.1912
  114OSM    C7S11886   3.356   1.896  10.133  0.0169 -0.4230 -0.4380
  114OSM    H7S11887   3.315   1.912  10.031  0.4169 -1.5083 -0.7835
  114OSM    H7T11888   3.411   1.799  10.142  3.7804  1.6836  0.2905
  114OSM    C8S11889   3.440   2.014  10.161 -0.2159  0.0106 -0.4821
  114OSM    H8S11890   3.486   2.016  10.262  0.7333 -2.0741 -0.8497
  114OSM    H8T11891   3.373   2.099  10.136  0.6400  0.4966 -1.1338
  114OSM    C9S11892   3.557   2.034  10.060  0.1690  0.3170  0.2242
  114OSM    H9S11893   3.639   1.960  10.069 -0.9070 -0.8787  0.3080
  114OSM    H9T11894   3.601   2.136  10.065  2.5511 -0.7344  1.8071
  114OSM   C10S11895   3.511   2.021   9.908  0.5847  0.2048 -0.7024
  114OSM   H10S11896   3.428   2.094   9.899 -0.5241 -0.8477  0.7327
  114OSM   H10T11897   3.493   1.912   9.898  0.3551  0.2233 -0.4902
  114OSM   C11S11898   3.628   2.054   9.822  0.1219  0.3803  0.5126
  114OSM   H11S11899   3.724   2.009   9.855  0.0229  0.4397  0.8907
  114OSM   H11T11900   3.636   2.165   9.824  2.2809  0.2257  1.9923
  114OSM   C12S11901   3.599   2.025   9.670 -0.0545 -0.4523 -0.2669
  114OSM   H12S11902   3.519   2.097   9.641 -2.1736 -2.2688  0.8604
  114OSM   H12T11903   3.551   1.926   9.654  1.7695 -1.5410  0.7886
  114OSM   C13S11904   3.724   2.044   9.592 -0.0833  0.2037  0.2632
  114OSM   H13S11905   3.773   1.944   9.596  1.4983  0.8171 -2.6493
  114OSM   H13T11906   3.780   2.130   9.634 -1.8444  2.3583 -1.7337
  114OSM   C14S11907   3.680   2.051   9.444  0.1615  0.3315 -0.3507
  114OSM   H14S11908   3.634   2.151   9.448  2.6727  1.4797  2.0860
  114OSM   H14T11909   3.594   1.984   9.425  1.6839 -1.9462  0.4771
  114OSM   C15S11910   3.782   2.033   9.332 -0.1500 -0.5870 -0.2013
  114OSM   H15S11911   3.741   2.038   9.229 -0.7835 -1.1422  0.0222
  114OSM   H15T11912   3.835   1.936   9.344 -0.2395 -0.4782  1.1094
  114OSM   C16S11913   3.892   2.153   9.328 -0.2888 -0.1203  0.2159
  114OSM   H16S11914   3.961   2.157   9.415 -0.1511  1.3610  0.0344
  114OSM   H16T11915   3.838   2.249   9.338  1.2335  0.5888  1.9999
  114OSM   C17S11916   3.980   2.159   9.202 -0.3501  0.2353 -0.8487
  114OSM   H17S11917   4.005   2.261   9.167  2.1022 -0.0146  0.0848
  114OSM   H17T11918   3.932   2.117   9.111 -1.1547 -0.2705 -0.2052
  114OSM   C18S11919   4.117   2.076   9.223  0.3245 -0.0338  0.1024
  114OSM   H18S11920   4.164   2.067   9.123 -1.9023  0.6684 -1.0402
  114OSM   H18T11921   4.091   1.969   9.242  1.1716 -0.5228 -1.3722
  114OSM   H18U11922   4.174   2.125   9.304 -0.2731 -0.1148  0.5798
  114OSM    C1F11923   3.717   1.975  10.564 -0.5223 -0.4042  0.2467
  114OSM     OF11924   3.811   1.910  10.617 -0.0241 -0.4095 -0.8016
  114OSM    C2F11925   3.751   2.112  10.503 -0.0089  0.0197 -0.1508
  114OSM    H2F11926   3.798   2.168  10.586  0.3792 -0.7234  0.1378
  114OSM    H2G11927   3.649   2.149  10.481  0.3999  0.4748 -1.3183
  114OSM    C3F11928   3.846   2.097  10.389 -0.2338 -0.2848 -0.7091
  114OSM    H3F11929   3.817   2.017  10.318  1.9636 -1.5957 -0.2111
  114OSM    H3G11930   3.942   2.068  10.437 -2.2203 -1.2006  2.9085
  114OSM    C4F11931   3.880   2.227  10.317 -0.3600  0.3977  0.4436
  114OSM    H4F11932   3.930   2.296  10.387  1.2281 -0.6291  0.3317
  114OSM    H4G11933   3.787   2.279  10.283  1.4655  1.6780 -2.8516
  114OSM    C5F11934   3.973   2.195  10.199 -0.1001  0.6287 -0.0190
  114OSM    H5F11935   4.065   2.139  10.223  0.0605  0.6600 -0.5644
  114OSM    H5G11936   4.023   2.291  10.173  1.5399 -0.0079  0.7568
  114OSM    C6F11937   3.902   2.133  10.074 -0.1386  0.5784 -0.3819
  114OSM    H6F11938   3.823   2.199  10.032 -1.0015  1.5149  2.6036
  114OSM    H6G11939   3.845   2.040  10.095  0.4322  0.2017 -0.4841
  114OSM    C7F11940   4.004   2.094   9.958  0.5697 -0.2627 -0.2385
  114OSM    H7F11941   3.946   2.035   9.884  0.8219 -1.4527  0.4940
  114OSM    H7G11942   4.082   2.028  10.003  2.8215  0.4740 -2.8889
  114OSM    C8F11943   4.063   2.222   9.895 -0.5126 -0.4067  0.0587
  114OSM    H8F11944   4.125   2.268   9.975 -3.4771  1.5087  1.3235
  114OSM    H8G11945   3.978   2.289   9.871 -1.8212 -2.2086 -0.5340
  114OSM    C9F11946   4.142   2.197   9.767 -0.9907  0.1165  0.3703
  114OSM    H9F11947   4.152   2.091   9.740  0.6311  0.5863 -0.8947
  114OSM   C10F11948   4.181   2.283   9.674 -0.1371  0.4017  0.2861
  114OSM   H10F11949   4.232   2.242   9.585 -0.9834 -0.4963  0.2061
  114OSM   C11F11950   4.159   2.429   9.683 -0.3205  0.0953  0.4913
  114OSM   H11F11951   4.262   2.464   9.706  0.6518 -2.5407  0.4151
  114OSM   H11G11952   4.096   2.459   9.769  0.7237  3.8706  0.0189
  114OSM   C12F11953   4.114   2.497   9.554 -0.2875 -0.5552  0.1023
  114OSM   H12F11954   4.099   2.606   9.572  1.0469 -0.1017 -1.3920
  114OSM   H12G11955   4.020   2.451   9.516  0.1536 -0.6711 -0.8756
  114OSM   C13F11956   4.214   2.481   9.439  0.0622 -0.1379  0.0328
  114OSM   H13F11957   4.229   2.372   9.425 -0.5551 -0.3678  1.0794
  114OSM   H13G11958   4.311   2.514   9.482 -0.1074 -1.7709  1.7180
  114OSM   C14F11959   4.181   2.549   9.318  0.3274 -0.2496 -0.3295
  114OSM   H14F11960   4.207   2.657   9.322  2.5260 -0.6994 -1.3273
  114OSM   H14G11961   4.071   2.560   9.307  0.1313  0.2246  1.7736
  114OSM   C15F11962   4.252   2.479   9.204 -0.0288  0.5397  0.2317
  114OSM   H15F11963   4.222   2.537   9.114 -2.0349  2.0658  1.8299
  114OSM   H15G11964   4.229   2.373   9.181 -1.3359  1.5636 -3.5050
  114OSM   C16F11965   4.406   2.483   9.212 -1.2158 -0.4736  0.6524
  114OSM   H16F11966   4.443   2.392   9.264 -0.8386 -0.7939 -0.1770
  114OSM   H16G11967   4.446   2.564   9.276  0.8477 -2.6145  2.1756
  114OSM   C17F11968   4.463   2.505   9.074 -0.2188 -0.1709  0.8235
  114OSM   H17F11969   4.436   2.601   9.024  1.3184  0.6997  1.6127
  114OSM   H17G11970   4.407   2.426   9.020 -1.6942  0.3612  1.5415
  114OSM   C18F11971   4.616   2.492   9.061  0.0078 -0.2384 -0.2509
  114OSM   H18F11972   4.661   2.397   9.098 -0.1630  0.5513  2.0496
  114OSM   H18G11973   4.657   2.577   9.120  2.3899 -1.6734  0.2192
  114OSM   H18H11974   4.652   2.513   8.958  0.5695  2.8305  0.5330
  115OSM      N11975   0.621   1.328  10.819  0.5887 -0.2871  0.2693
  115OSM    C1511976   0.513   1.437  10.837 -0.9138  0.1341 -0.5058
  115OSM   H15A11977   0.451   1.417  10.924  0.0748 -0.6475  0.0313
  115OSM   H15B11978   0.442   1.445  10.757 -0.9108 -0.2525 -0.5451
  115OSM   H15C11979   0.560   1.534  10.846  3.4493 -1.9581  0.7637
  115OSM    C1411980   0.644   1.317  10.669  0.3409  0.2639  0.3038
  115OSM   H14A11981   0.718   1.240  10.650  0.3248  0.3494 -0.1215
  115OSM   H14B11982   0.687   1.403  10.620 -0.6843  0.4532 -0.2720
  115OSM   H14C11983   0.548   1.297  10.624 -1.6629  3.3610  2.9817
  115OSM    C1311984   0.740   1.377  10.905 -0.1100  1.0982  0.2111
  115OSM   H13A11985   0.814   1.300  10.924 -2.8180 -1.5434  0.3864
  115OSM   H13B11986   0.715   1.409  11.005  0.2068  0.4969  0.4887
  115OSM   H13C11987   0.784   1.465  10.861 -0.3657  1.3849  0.5317
  115OSM    C1211988   0.562   1.195  10.861  0.0364 -0.0304 -0.4314
  115OSM   H12A11989   0.637   1.119  10.845 -1.0189 -1.1866  0.0539
  115OSM   H12B11990   0.475   1.182  10.799  0.0824 -0.5028 -0.4012
  115OSM    C1111991   0.502   1.171  11.011  0.7152 -0.1922  0.2595
  115OSM   H11A11992   0.582   1.200  11.084  1.3243 -1.4029  0.0790
  115OSM   H11B11993   0.483   1.063  11.029  2.0714 -0.2750  1.3007
  115OSM      P11994   0.249   1.197  11.079 -0.2360 -0.4331  0.0727
  115OSM    O1311995   0.273   1.082  11.173 -0.3916  0.2333  0.3252
  115OSM    O1411996   0.156   1.303  11.124  0.0867  0.8300  0.4562
  115OSM    O1111997   0.191   1.139  10.946  0.7185  0.1764 -0.3820
  115OSM    O1211998   0.388   1.256  11.032  0.1833  0.3394  0.2084
  115OSM    C1S11999   0.142   1.233  10.847 -0.6580 -0.2507 -0.6228
  115OSM    H1S12000   0.209   1.322  10.844  0.9051 -1.2988  1.9173
  115OSM    H1T12001   0.042   1.268  10.879 -0.5983 -1.1084  0.5093
  115OSM     NF12002   0.113   1.293  10.615  0.1881  0.3403 -0.1421
  115OSM    HNF12003   0.020   1.311  10.585  1.0219  0.5830 -2.7269
  115OSM    C2S12004   0.124   1.177  10.703 -0.2004 -0.0939  0.3286
  115OSM    H2S12005   0.210   1.115  10.669 -1.8094 -1.0826 -2.0862
  115OSM    C3S12006   0.001   1.081  10.703 -0.1250  0.2794 -0.1103
  115OSM    H3S12007  -0.089   1.147  10.699 -0.6429 -0.4321 -0.4526
  115OSM     O312008  -0.015   1.008  10.826 -0.1198 -0.2668 -0.2038
  115OSM    HO312009   0.051   1.053  10.879 -1.4750 -0.8904  2.0821
  115OSM    C4S12010  -0.004   0.990  10.580 -0.1212 -0.8504 -0.1598
  115OSM    H4S12011  -0.041   1.041  10.490 -0.2770  0.1158  0.4449
  115OSM    C5S12012   0.043   0.868  10.565 -0.1386  0.1086  0.3895
  115OSM    H5S12013   0.096   0.816  10.647  1.5786  1.9220  0.4693
  115OSM    C6S12014   0.044   0.798  10.431  0.3377  0.1813 -0.4827
  115OSM    H6S12015  -0.011   0.705  10.455  1.4044 -0.0364  1.2044
  115OSM    H6T12016   0.146   0.764  10.404 -0.4357 -0.8059 -2.2383
  115OSM    C7S12017  -0.031   0.854  10.312 -0.1925 -0.4574 -0.2254
  115OSM    H7S12018   0.017   0.949  10.279 -0.1575 -0.3996 -0.0108
  115OSM    H7T12019  -0.137   0.863  10.345  0.3756 -1.8404  2.0636
  115OSM    C8S12020  -0.010   0.761  10.190  0.0431 -0.3840 -0.0581
  115OSM    H8S12021  -0.068   0.666  10.194  2.3011 -1.8414 -0.6054
  115OSM    H8T12022   0.098   0.741  10.174 -0.0702 -0.2825 -1.0131
  115OSM    C9S12023  -0.038   0.831  10.052  0.0505 -0.1414  0.6327
  115OSM    H9S12024   0.029   0.920  10.048  0.9895 -0.6583  3.5903
  115OSM    H9T12025  -0.141   0.871  10.063  0.3485  0.9719 -0.4990
  115OSM   C10S12026  -0.027   0.744   9.932  0.7415  0.4605 -0.3413
  115OSM   H10S12027  -0.072   0.644   9.949  2.6399 -0.5022 -0.9407
  115OSM   H10T12028   0.081   0.732   9.913  0.5083  0.1997 -1.5410
  115OSM   C11S12029  -0.086   0.810   9.813 -0.6246 -0.4560  0.7067
  115OSM   H11S12030  -0.058   0.918   9.811 -0.3350 -0.5379  0.3265
  115OSM   H11T12031  -0.194   0.806   9.840 -0.6687  1.2656  0.8598
  115OSM   C12S12032  -0.066   0.741   9.683 -0.3945 -0.1440 -0.0282
  115OSM   H12S12033  -0.126   0.648   9.693 -1.1855  0.6982  4.0203
  115OSM   H12T12034   0.042   0.720   9.676 -0.0259  0.8373  2.2027
  115OSM   C13S12035  -0.128   0.808   9.564 -0.2943 -0.1659 -0.2979
  115OSM   H13S12036  -0.087   0.911   9.563  1.2410 -0.7169  1.4573
  115OSM   H13T12037  -0.237   0.821   9.577 -0.1251 -0.9370  2.3640
  115OSM   C14S12038  -0.102   0.740   9.427  0.0533  0.0851  0.7290
  115OSM   H14S12039  -0.178   0.778   9.356 -0.8918 -1.2479  1.0177
  115OSM   H14T12040  -0.113   0.630   9.433  2.4112 -0.1616  1.2534
  115OSM   C15S12041   0.029   0.777   9.359 -0.2152 -0.2094  0.4161
  115OSM   H15S12042   0.113   0.718   9.401 -0.9112 -1.9186 -0.5189
  115OSM   H15T12043   0.035   0.887   9.377 -0.1016 -0.6064  2.9792
  115OSM   C16S12044   0.024   0.761   9.208  0.1930 -0.7658  0.4743
  115OSM   H16S12045  -0.007   0.657   9.184  3.1557 -1.6162  0.1684
  115OSM   H16T12046   0.132   0.775   9.186  0.0427  2.0667  1.3244
  115OSM   C17S12047  -0.045   0.876   9.132 -0.4210 -0.5877 -0.2456
  115OSM   H17S12048  -0.016   0.975   9.174 -1.0482 -0.5715  0.1337
  115OSM   H17T12049  -0.155   0.872   9.142 -0.3673  0.3758  0.9027
  115OSM   C18S12050  -0.006   0.877   8.982 -0.0364  0.4678 -0.4974
  115OSM   H18S12051  -0.037   0.779   8.940  0.5378  0.5679 -1.1610
  115OSM   H18T12052   0.103   0.895   8.972  0.0753  0.7803  1.0751
  115OSM   H18U12053  -0.060   0.963   8.936 -1.2258  0.3468  0.6339
  115OSM    C1F12054   0.216   1.363  10.571 -0.2087 -0.1630  0.3013
  115OSM     OF12055   0.328   1.323  10.588 -0.2208  0.0244 -0.2176
  115OSM    C2F12056   0.183   1.489  10.500  0.0691 -0.6984 -0.8341
  115OSM    H2F12057   0.153   1.559  10.582  1.8218 -0.6826 -0.1779
  115OSM    H2G12058   0.101   1.479  10.426  0.6079 -0.3446 -1.4837
  115OSM    C3F12059   0.302   1.568  10.432  0.4511 -0.8565 -0.1462
  115OSM    H3F12060   0.346   1.508  10.350 -0.1606 -0.9700 -0.3972
  115OSM    H3G12061   0.382   1.598  10.503 -0.1049  0.0602  0.0944
  115OSM    C4F12062   0.252   1.696  10.363 -0.0589  0.2130  0.1196
  115OSM    H4F12063   0.195   1.754  10.439  0.2417 -0.4396  0.8472
  115OSM    H4G12064   0.178   1.669  10.284  0.7480  0.6013 -0.7798
  115OSM    C5F12065   0.362   1.784  10.306  0.7396  0.4716  0.0796
  115OSM    H5F12066   0.435   1.720  10.252  1.6263 -0.5681  2.4486
  115OSM    H5G12067   0.431   1.827  10.381 -0.1854  0.8264  0.7276
  115OSM    C6F12068   0.326   1.895  10.201  0.2497 -0.0051  0.3856
  115OSM    H6F12069   0.294   1.844  10.108 -0.7159 -5.2765  3.4468
  115OSM    H6G12070   0.423   1.947  10.183  0.3226  0.1816  1.2922
  115OSM    C7F12071   0.209   1.989  10.241  0.2393  0.2445 -0.8015
  115OSM    H7F12072   0.245   2.045  10.329  2.2006 -0.6113 -1.0225
  115OSM    H7G12073   0.120   1.934  10.279  0.5707 -0.3227 -0.8437
  115OSM    C8F12074   0.178   2.084  10.125 -0.1812 -0.1140 -0.2209
  115OSM    H8F12075   0.098   2.156  10.153  0.5616  1.5354 -2.2229
  115OSM    H8G12076   0.143   2.023  10.039 -0.9550  0.7185 -0.4973
  115OSM    C9F12077   0.301   2.170  10.092 -0.0297  0.4703  0.5122
  115OSM    H9F12078   0.335   2.235  10.173  0.4058  0.8313  0.0444
  115OSM   C10F12079   0.372   2.166   9.979  0.2224  0.4102  0.3347
  115OSM   H10F12080   0.460   2.232   9.974 -2.2220  3.7656 -0.5866
  115OSM   C11F12081   0.347   2.080   9.858 -0.2224 -0.1949  0.3854
  115OSM   H11F12082   0.258   2.014   9.871 -0.4207 -0.0284 -0.0832
  115OSM   H11G12083   0.434   2.018   9.830  0.6688  1.2748 -0.1502
  115OSM   C12F12084   0.317   2.168   9.736 -0.9314 -0.0372 -0.2002
  115OSM   H12F12085   0.402   2.239   9.719 -0.0999 -1.0583 -0.3550
  115OSM   H12G12086   0.241   2.247   9.755 -1.6475 -0.7265 -0.2218
  115OSM   C13F12087   0.300   2.086   9.608 -0.5671  0.1240  0.1093
  115OSM   H13F12088   0.213   2.016   9.610  0.2019 -0.8592 -0.4417
  115OSM   H13G12089   0.388   2.019   9.603 -0.8135 -0.2048  0.1714
  115OSM   C14F12090   0.276   2.171   9.480  0.1249  0.9918 -0.6604
  115OSM   H14F12091   0.353   2.251   9.481  2.2680 -1.0282 -0.2146
  115OSM   H14G12092   0.171   2.207   9.488  0.3781  1.2508  1.7844
  115OSM   C15F12093   0.283   2.086   9.353  0.4641  0.4046  0.0912
  115OSM   H15F12094   0.195   2.019   9.349 -0.0435  1.0719  0.0039
  115OSM   H15G12095   0.384   2.040   9.349 -0.0007 -0.6497  0.3795
  115OSM   C16F12096   0.282   2.181   9.229 -0.0695 -0.7527 -0.0520
  115OSM   H16F12097   0.354   2.259   9.262  0.1889 -0.6775 -0.7947
  115OSM   H16G12098   0.186   2.237   9.228  1.3061  1.6760  0.9178
  115OSM   C17F12099   0.330   2.109   9.105  0.0424 -0.0362 -1.1293
  115OSM   H17F12100   0.440   2.095   9.116  0.1352  0.5237 -1.3365
  115OSM   H17G12101   0.324   2.176   9.017  0.0586  2.8317  0.9734
  115OSM   C18F12102   0.256   1.982   9.067  0.2809  0.9454 -0.6224
  115OSM   H18F12103   0.149   2.009   9.052 -0.3062 -1.8089 -1.6850
  115OSM   H18G12104   0.266   1.905   9.147 -0.1376  0.7045 -0.7996
  115OSM   H18H12105   0.285   1.941   8.968 -1.3391  2.8416 -1.9217
  116OSM      N12106   3.657   5.491  10.713  0.4649 -0.2446  0.1780
  116OSM    C1512107   3.753   5.591  10.658 -0.5715 -0.8779  0.3462
  116OSM   H15A12108   3.848   5.596  10.708  0.0918 -0.8646 -0.8837
  116OSM   H15B12109   3.707   5.689  10.654  1.3883  0.0142 -2.3416
  116OSM   H15C12110   3.775   5.560  10.557  1.5877  0.9542  0.2244
  116OSM    C1412111   3.548   5.469  10.620 -0.5201 -0.3531 -0.4507
  116OSM   H14A12112   3.573   5.407  10.535 -0.0854 -1.2807  0.3520
  116OSM   H14B12113   3.525   5.567  10.580 -1.4809 -0.4462 -0.1168
  116OSM   H14C12114   3.465   5.421  10.670 -3.3129  0.5924 -3.9581
  116OSM    C1312115   3.741   5.375  10.734 -0.8850  0.5073 -0.1556
  116OSM   H13A12116   3.836   5.403  10.778 -0.0910 -0.9958 -0.8574
  116OSM   H13B12117   3.774   5.332  10.641  0.7878  0.2175  0.5453
  116OSM   H13C12118   3.698   5.302  10.801 -1.1484  0.3789 -0.4663
  116OSM    C1212119   3.590   5.542  10.841  0.6047 -0.4417  0.4655
  116OSM   H12A12120   3.518   5.619  10.816  2.2793  1.4011  1.2637
  116OSM   H12B12121   3.667   5.592  10.897  1.5414  1.3835 -2.2935
  116OSM    C1112122   3.513   5.434  10.930  0.9060 -0.8552 -0.1433
  116OSM   H11A12123   3.476   5.486  11.021  1.3885  0.5564 -0.7421
  116OSM   H11B12124   3.593   5.368  10.972  2.5728  1.4157  0.4011
  116OSM      P12125   3.273   5.412  10.869 -0.1010 -0.1732 -0.4517
  116OSM    O1312126   3.204   5.321  10.968 -0.6429 -0.2149 -0.7804
  116OSM    O1412127   3.276   5.561  10.893  0.0480 -0.1733  0.2452
  116OSM    O1112128   3.216   5.379  10.725 -0.1076 -0.2529  0.1169
  116OSM    O1212129   3.418   5.358  10.862 -0.2880 -0.1607  0.5382
  116OSM    C1S12130   3.232   5.249  10.665  0.1333 -0.1609  0.5357
  116OSM    H1S12131   3.177   5.172  10.723 -0.3146  0.1105  0.4733
  116OSM    H1T12132   3.336   5.212  10.675  1.3213  2.7973 -0.2676
  116OSM     NF12133   3.231   5.105  10.464  0.3939 -0.1135 -0.5127
  116OSM    HNF12134   3.295   5.107  10.388  1.7196  0.8226  0.6029
  116OSM    C2S12135   3.194   5.234  10.514 -0.0615 -0.6332  0.2604
  116OSM    H2S12136   3.083   5.234  10.514 -0.0668 -1.3517  0.1148
  116OSM    C3S12137   3.248   5.352  10.430 -0.2656  0.2121  0.5024
  116OSM    H3S12138   3.357   5.361  10.448  0.0194 -0.8953 -0.6227
  116OSM     O312139   3.186   5.471  10.482  0.0895 -0.1456  0.0733
  116OSM    HO312140   3.177   5.449  10.575  1.5317 -0.2436  0.2100
  116OSM    C4S12141   3.221   5.344  10.284  0.5490  0.5060  0.3833
  116OSM    H4S12142   3.113   5.334  10.268  0.6991  0.3136 -0.5251
  116OSM    C5S12143   3.310   5.316  10.191 -0.2185  0.5183  0.2726
  116OSM    H5S12144   3.415   5.296  10.216 -0.4244 -3.2838 -1.5086
  116OSM    C6S12145   3.280   5.297  10.041 -0.3242 -0.0301 -0.0199
  116OSM    H6S12146   3.225   5.203  10.015 -1.6368  0.6450  0.2546
  116OSM    H6T12147   3.376   5.272   9.992  0.7011  0.7771  1.5500
  116OSM    C7S12148   3.207   5.414   9.976  0.2009  0.5392  0.0085
  116OSM    H7S12149   3.274   5.503   9.975  1.7147 -0.5199  2.5369
  116OSM    H7T12150   3.114   5.438  10.032 -1.5198 -0.0298 -2.5177
  116OSM    C8S12151   3.154   5.383   9.838 -0.1347 -0.1800 -0.6014
  116OSM    H8S12152   3.085   5.464   9.806  1.1377  1.0160 -0.3856
  116OSM    H8T12153   3.096   5.288   9.841  0.8554 -0.7602  0.9582
  116OSM    C9S12154   3.266   5.370   9.735  0.5759  0.2677  0.9442
  116OSM    H9S12155   3.340   5.291   9.762  3.3468  2.2662 -0.5209
  116OSM    H9T12156   3.318   5.468   9.732 -0.3398  0.7161 -0.8734
  116OSM   C10S12157   3.215   5.327   9.599  0.7629 -0.6942  0.4741
  116OSM   H10S12158   3.141   5.404   9.569  2.5351  0.9778  0.2902
  116OSM   H10T12159   3.166   5.228   9.615 -1.5018 -0.2461 -3.2930
  116OSM   C11S12160   3.326   5.325   9.494 -0.3164  0.5752  0.2096
  116OSM   H11S12161   3.400   5.245   9.515  1.0769  1.4990 -1.0514
  116OSM   H11T12162   3.377   5.423   9.506 -3.1276  2.1821 -0.6444
  116OSM   C12S12163   3.259   5.309   9.357  0.0217  0.2476 -0.1995
  116OSM   H12S12164   3.200   5.399   9.328  1.2945  0.1504 -3.3309
  116OSM   H12T12165   3.197   5.217   9.362 -0.9002  0.9871  2.3404
  116OSM   C13S12166   3.359   5.286   9.247 -0.4131  0.3613  0.2228
  116OSM   H13S12167   3.415   5.193   9.270  2.1314  1.6689 -0.5607
  116OSM   H13T12168   3.429   5.372   9.247 -0.2319  0.2132  0.3152
  116OSM   C14S12169   3.292   5.307   9.108 -0.8834  0.8022 -0.5512
  116OSM   H14S12170   3.304   5.408   9.064  2.3786  1.7240  2.2473
  116OSM   H14T12171   3.184   5.290   9.124 -1.3941  3.6539 -0.7844
  116OSM   C15S12172   3.344   5.209   9.006 -0.2202 -0.1744 -0.3654
  116OSM   H15S12173   3.298   5.109   9.021  3.7756 -2.2917 -1.3090
  116OSM   H15T12174   3.455   5.201   9.007 -0.2715 -0.8752  2.0636
  116OSM   C16S12175   3.307   5.248   8.858 -0.3024 -0.4264  0.6274
  116OSM   H16S12176   3.335   5.354   8.844 -2.4314  0.1964  0.8600
  116OSM   H16T12177   3.196   5.248   8.851 -0.5285 -0.5531  3.5353
  116OSM   C17S12178   3.367   5.138   8.764 -0.5415  0.5581  0.5912
  116OSM   H17S12179   3.324   5.041   8.796 -1.5546  0.5219 -0.8404
  116OSM   H17T12180   3.478   5.134   8.776 -0.7169 -0.9253  2.0182
  116OSM   C18S12181   3.311   5.153   8.618 -0.0165  0.0912 -0.1907
  116OSM   H18S12182   3.340   5.078   8.541  0.4259  1.9753 -1.9085
  116OSM   H18T12183   3.349   5.251   8.583 -0.4355  0.0912 -0.6554
  116OSM   H18U12184   3.201   5.166   8.627 -0.2825 -2.0831 -0.0634
  116OSM    C1F12185   3.184   4.991  10.515  0.3673 -0.0653 -0.2914
  116OSM     OF12186   3.101   4.988  10.599 -0.2800  0.0296  0.4382
  116OSM    C2F12187   3.224   4.860  10.450 -0.3353 -0.0588  0.1118
  116OSM    H2F12188   3.140   4.820  10.390  0.8476 -0.9203 -0.9911
  116OSM    H2G12189   3.249   4.790  10.533 -0.1920 -0.3125 -0.1448
  116OSM    C3F12190   3.352   4.879  10.356 -0.2154 -0.0101 -0.0561
  116OSM    H3F12191   3.431   4.944  10.400  2.1655 -3.0598  0.4324
  116OSM    H3G12192   3.327   4.923  10.258  0.8473 -0.6418 -0.6224
  116OSM    C4F12193   3.435   4.747  10.343  0.1839  0.5983 -0.1266
  116OSM    H4F12194   3.473   4.721  10.444 -0.4015  0.2494  0.0042
  116OSM    H4G12195   3.519   4.767  10.272 -0.2737 -4.3870 -2.2700
  116OSM    C5F12196   3.343   4.640  10.268 -0.6756 -0.5935 -0.2485
  116OSM    H5F12197   3.257   4.614  10.333  2.8563 -1.1027  4.5841
  116OSM    H5G12198   3.398   4.544  10.257  1.3851  0.7994 -2.6206
  116OSM    C6F12199   3.303   4.676  10.119  0.0325 -0.5530 -0.4411
  116OSM    H6F12200   3.381   4.666  10.041  2.3117 -1.2164  1.8503
  116OSM    H6G12201   3.257   4.777  10.109  1.4376  0.5110  3.0335
  116OSM    C7F12202   3.189   4.586  10.080 -0.0695  0.4613 -0.1859
  116OSM    H7F12203   3.140   4.613   9.984  0.0147 -0.3891 -0.4721
  116OSM    H7G12204   3.117   4.610  10.162  1.0794  1.8485  0.4342
  116OSM    C8F12205   3.228   4.434  10.074  0.9130  0.4499  0.1413
  116OSM    H8F12206   3.257   4.396  10.175 -0.1188 -0.1477  0.2173
  116OSM    H8G12207   3.321   4.436  10.013 -0.8150  0.4789 -2.5553
  116OSM    C9F12208   3.125   4.348  10.008 -0.0300  0.0829  0.0428
  116OSM    H9F12209   3.069   4.285  10.078 -0.3670  1.0889  0.6843
  116OSM   C10F12210   3.113   4.333   9.877  0.3209 -0.2897  0.2553
  116OSM   H10F12211   3.031   4.271   9.837  1.9167 -0.6291 -2.6183
  116OSM   C11F12212   3.193   4.399   9.770  0.5141 -0.4458  0.1777
  116OSM   H11F12213   3.252   4.312   9.732 -0.2414  0.2331 -2.6536
  116OSM   H11G12214   3.274   4.470   9.797 -0.2318  0.5035 -0.0830
  116OSM   C12F12215   3.111   4.469   9.658  0.1299  1.1457  0.2811
  116OSM   H12F12216   3.060   4.561   9.695 -0.8919  0.4575  0.6137
  116OSM   H12G12217   3.032   4.396   9.630  0.9509 -0.3975  1.9239
  116OSM   C13F12218   3.187   4.504   9.530  0.1112  0.8133 -1.0534
  116OSM   H13F12219   3.285   4.452   9.526  1.6048  3.2115  2.4910
  116OSM   H13G12220   3.219   4.610   9.524 -0.2633  0.9013 -1.6491
  116OSM   C14F12221   3.098   4.476   9.404 -0.6398 -0.3097  0.2566
  116OSM   H14F12222   2.997   4.518   9.424  0.4352  2.4109  0.2112
  116OSM   H14G12223   3.087   4.365   9.407  2.2651 -0.7235 -1.7225
  116OSM   C15F12224   3.149   4.526   9.269  0.1278  0.0773 -0.3631
  116OSM   H15F12225   3.112   4.628   9.248  1.7895  0.2129 -2.7546
  116OSM   H15G12226   3.107   4.459   9.192 -0.0136  0.2588 -0.4457
  116OSM   C16F12227   3.298   4.535   9.256  0.1847 -0.1946  0.4148
  116OSM   H16F12228   3.344   4.437   9.279  1.3624  0.2350 -0.0977
  116OSM   H16G12229   3.332   4.611   9.330 -0.6944 -0.4217  1.0725
  116OSM   C17F12230   3.343   4.551   9.108 -0.3019  0.7684 -0.7238
  116OSM   H17F12231   3.451   4.573   9.097 -0.2820  1.4373  0.7036
  116OSM   H17G12232   3.291   4.644   9.079 -0.7026  0.5481 -0.7158
  116OSM   C18F12233   3.315   4.435   9.007 -0.4397 -0.5792 -0.6445
  116OSM   H18F12234   3.208   4.409   9.017 -0.1683 -0.3658  3.3616
  116OSM   H18G12235   3.367   4.341   9.036 -3.2338 -1.6129  1.2206
  116OSM   H18H12236   3.351   4.466   8.906  0.8823  0.4562  0.1338
  117OSM      N12237   0.902   6.090  11.125 -0.1551 -0.1202 -0.4104
  117OSM    C1512238   0.958   5.995  11.224 -0.1888 -0.1637  0.2105
  117OSM   H15A12239   0.930   5.896  11.193 -0.7583  0.0423  0.0442
  117OSM   H15B12240   0.916   6.008  11.323 -0.1118 -1.4039  0.4097
  117OSM   H15C12241   1.063   6.015  11.239 -0.7661  3.1613  0.1661
  117OSM    C1412242   0.775   6.037  11.063  0.7726 -0.4237 -0.3687
  117OSM   H14A12243   0.697   6.016  11.134 -0.1687  1.1420 -0.9027
  117OSM   H14B12244   0.795   5.946  11.009  1.2933 -1.2577  1.1793
  117OSM   H14C12245   0.736   6.104  10.987  1.3522 -0.1868 -0.4650
  117OSM    C1312246   0.869   6.222  11.195  0.1889  0.2017  0.4503
  117OSM   H13A12247   0.960   6.244  11.249  1.2247 -1.7820 -0.4125
  117OSM   H13B12248   0.786   6.192  11.258 -0.7410 -0.1691 -0.9177
  117OSM   H13C12249   0.825   6.290  11.124  1.2092 -0.8720 -1.2480
  117OSM    C1212250   0.999   6.122  11.016 -0.0788 -0.3573 -0.2630
  117OSM   H12A12251   1.096   6.143  11.058 -0.6362  1.8626 -0.0257
  117OSM   H12B12252   0.983   6.218  10.970  2.9701  1.1658  1.6744
  117OSM    C1112253   1.021   6.018  10.907 -0.3078  0.5597 -0.0417
  117OSM   H11A12254   1.099   6.063  10.842  0.9526 -1.0984  0.2804
  117OSM   H11B12255   0.926   6.024  10.848 -1.3929  0.0413  1.6258
  117OSM      P12256   0.991   5.758  10.902  0.1372  0.1422  0.0988
  117OSM    O1312257   1.064   5.640  10.960  0.4897  0.3902 -0.5212
  117OSM    O1412258   0.851   5.765  10.931  0.6348  0.1544  0.1159
  117OSM    O1112259   1.011   5.764  10.748 -0.0520 -0.0924  0.5093
  117OSM    O1212260   1.065   5.888  10.954  0.0037  0.4471  0.3897
  117OSM    C1S12261   1.141   5.781  10.696 -0.7642 -0.0169 -0.3747
  117OSM    H1S12262   1.206   5.695  10.722 -2.6250 -1.6268 -0.9304
  117OSM    H1T12263   1.187   5.875  10.733 -0.7824 -0.6180  1.1926
  117OSM     NF12264   1.284   5.797  10.495 -0.4857  0.4336 -0.0481
  117OSM    HNF12265   1.323   5.888  10.486 -0.2550  0.2102 -1.4212
  117OSM    C2S12266   1.147   5.800  10.539  0.4154 -0.1663  0.5164
  117OSM    H2S12267   1.097   5.710  10.499  1.8882 -1.1606  0.8825
  117OSM    C3S12268   1.071   5.930  10.503 -0.3100 -0.1788  0.9858
  117OSM    H3S12269   1.135   6.010  10.546 -0.5798  0.6935 -0.2011
  117OSM     O312270   0.937   5.941  10.559 -0.2082  0.3850 -0.2278
  117OSM    HO312271   0.927   5.872  10.625 -0.0092  1.7989  1.3192
  117OSM    C4S12272   1.070   5.960  10.352 -0.0635  0.8126  0.0549
  117OSM    H4S12273   1.130   6.048  10.322  0.5250 -0.0285 -1.2584
  117OSM    C5S12274   0.989   5.903  10.258  0.9888 -0.3465  0.3219
  117OSM    H5S12275   0.918   5.827  10.292 -0.6051 -1.1530 -4.4589
  117OSM    C6S12276   0.974   5.925  10.109 -0.3053 -0.1233  0.0244
  117OSM    H6S12277   0.872   5.960  10.080 -0.1097 -0.0320 -0.5510
  117OSM    H6T12278   0.975   5.825  10.059  1.3155  0.4110 -1.0330
  117OSM    C7S12279   1.087   5.998  10.044 -0.3936 -0.0807  0.2413
  117OSM    H7S12280   1.182   5.969  10.094 -0.3432 -0.2229  0.0624
  117OSM    H7T12281   1.058   6.105  10.056 -0.3603  0.2349 -2.1953
  117OSM    C8S12282   1.104   5.953   9.899  0.3102 -0.3406 -0.2360
  117OSM    H8S12283   1.125   5.844   9.892  0.7352 -0.2148 -0.8801
  117OSM    H8T12284   1.183   6.018   9.856 -0.6954  2.1732  1.5824
  117OSM    C9S12285   0.979   5.972   9.809  0.8474 -0.2854  0.3171
  117OSM    H9S12286   0.966   6.082   9.801 -1.6293 -0.4418  1.5310
  117OSM    H9T12287   0.902   5.918   9.868  0.9574  0.3349  1.0309
  117OSM   C10S12288   1.005   5.901   9.672 -0.6990 -0.5680 -0.3839
  117OSM   H10S12289   0.912   5.849   9.641 -1.2590  0.2714 -0.1069
  117OSM   H10T12290   1.078   5.818   9.690  1.3872  1.0342 -1.2905
  117OSM   C11S12291   1.071   5.995   9.566  0.0632 -0.8551  0.4513
  117OSM   H11S12292   1.182   6.004   9.568  0.0009  1.0037 -2.1476
  117OSM   H11T12293   1.033   6.097   9.587  0.4472 -0.5344 -0.3667
  117OSM   C12S12294   1.037   5.970   9.424 -0.0467 -0.1463  0.3171
  117OSM   H12S12295   0.926   5.981   9.427  0.0773  1.5509 -0.7415
  117OSM   H12T12296   1.059   5.862   9.410 -0.5870 -0.2413  0.1768
  117OSM   C13S12297   1.110   6.060   9.321  0.3428  0.1768 -0.2651
  117OSM   H13S12298   1.218   6.036   9.312  0.8129  1.9432  0.4513
  117OSM   H13T12299   1.101   6.165   9.357 -1.3627 -0.2894  0.7309
  117OSM   C14S12300   1.039   6.055   9.178  0.4576 -0.1282  0.0177
  117OSM   H14S12301   0.942   6.109   9.175  1.2443  1.2009 -2.7690
  117OSM   H14T12302   1.019   5.948   9.155 -1.4748 -0.2579  2.1835
  117OSM   C15S12303   1.125   6.109   9.063 -0.1240  0.8331 -0.0143
  117OSM   H15S12304   1.212   6.042   9.047 -1.8750 -2.4295  3.1507
  117OSM   H15T12305   1.172   6.204   9.095  1.7529  0.7366 -2.3818
  117OSM   C16S12306   1.057   6.135   8.929 -0.3050 -0.2917 -0.1423
  117OSM   H16S12307   0.998   6.227   8.948 -1.9318 -1.6797  1.8658
  117OSM   H16T12308   0.984   6.053   8.913  0.3769 -0.7338 -1.0464
  117OSM   C17S12309   1.145   6.158   8.804  0.5469  0.3407  0.0054
  117OSM   H17S12310   1.206   6.249   8.824 -0.4645  1.2166 -0.8673
  117OSM   H17T12311   1.079   6.173   8.716 -0.8718 -0.5756  0.8774
  117OSM   C18S12312   1.251   6.054   8.760  0.1926 -0.4939 -0.1455
  117OSM   H18S12313   1.301   6.088   8.667  1.2981  1.6001  1.1899
  117OSM   H18T12314   1.200   5.959   8.730  0.9523 -0.3045 -2.1290
  117OSM   H18U12315   1.325   6.023   8.837  0.5064 -0.7257 -0.5385
  117OSM    C1F12316   1.358   5.692  10.477  0.2817  0.2501 -0.5518
  117OSM     OF12317   1.300   5.582  10.464 -0.0093 -0.0853 -0.2831
  117OSM    C2F12318   1.502   5.708  10.475 -0.1549 -0.0260 -0.1835
  117OSM    H2F12319   1.544   5.640  10.552 -1.1147  3.2033  3.3118
  117OSM    H2G12320   1.526   5.812  10.505 -0.8524  0.3167 -0.8090
  117OSM    C3F12321   1.557   5.686  10.332 -0.0171  0.0486  0.5482
  117OSM    H3F12322   1.529   5.585  10.297  0.1120  0.1802  0.0623
  117OSM    H3G12323   1.665   5.710  10.325  0.2768 -1.8283 -2.0339
  117OSM    C4F12324   1.498   5.787  10.227  0.0168  0.0349 -0.2279
  117OSM    H4F12325   1.558   5.879  10.240 -0.6906  0.5806 -0.7384
  117OSM    H4G12326   1.397   5.822  10.260  1.1795  2.8552  0.4730
  117OSM    C5F12327   1.498   5.741  10.080 -0.3691 -0.4015 -0.0370
  117OSM    H5F12328   1.465   5.829  10.021  1.4785  0.7742  0.6532
  117OSM    H5G12329   1.429   5.654  10.075 -1.3720  0.4612 -1.5581
  117OSM    C6F12330   1.642   5.717  10.044  0.2535  0.0758 -0.1094
  117OSM    H6F12331   1.694   5.632  10.093 -1.1554 -1.3727 -1.0709
  117OSM    H6G12332   1.689   5.817  10.057 -0.1617  0.0747  1.5279
  117OSM    C7F12333   1.649   5.670   9.899  0.3580 -0.3623  0.2543
  117OSM    H7F12334   1.608   5.568   9.886 -0.5677  0.0644 -0.2651
  117OSM    H7G12335   1.756   5.656   9.873 -0.1698 -0.9040 -1.6930
  117OSM    C8F12336   1.593   5.776   9.800  0.4938  0.0320 -0.1237
  117OSM    H8F12337   1.614   5.877   9.840  0.1643  0.8638 -1.9744
  117OSM    H8G12338   1.482   5.782   9.805  0.5421  1.6984 -0.8637
  117OSM    C9F12339   1.651   5.749   9.668 -0.1850  0.5749  0.1568
  117OSM    H9F12340   1.744   5.800   9.638  0.9585 -1.1339  0.7513
  117OSM   C10F12341   1.603   5.657   9.580 -0.3467  0.7140 -0.0108
  117OSM   H10F12342   1.657   5.635   9.486 -1.4560 -3.3440  0.2003
  117OSM   C11F12343   1.488   5.569   9.605  1.0358 -0.2490  0.0619
  117OSM   H11F12344   1.416   5.618   9.674  2.1287 -1.7486  2.3292
  117OSM   H11G12345   1.526   5.477   9.654  2.7455  0.4522  0.0806
  117OSM   C12F12346   1.407   5.523   9.479 -0.0261 -0.3223 -0.3508
  117OSM   H12F12347   1.340   5.442   9.515 -0.0352  0.9850  2.7114
  117OSM   H12G12348   1.477   5.477   9.406  0.1451 -0.7512  0.0799
  117OSM   C13F12349   1.329   5.637   9.417 -0.5887 -0.6714 -0.9875
  117OSM   H13F12350   1.397   5.710   9.367  0.9072 -2.7059 -1.9994
  117OSM   H13G12351   1.271   5.691   9.495  0.6634 -1.6527  0.6483
  117OSM   C14F12352   1.228   5.581   9.313  0.7046 -0.1391  0.3368
  117OSM   H14F12353   1.172   5.675   9.294  0.4950  0.4198  3.4549
  117OSM   H14G12354   1.168   5.502   9.363 -0.5262 -1.3907 -2.9670
  117OSM   C15F12355   1.295   5.531   9.182  0.0492  0.9130  0.4625
  117OSM   H15F12356   1.343   5.435   9.212 -0.7560  0.1591 -0.5728
  117OSM   H15G12357   1.369   5.605   9.146 -0.2853  0.6607 -0.7822
  117OSM   C16F12358   1.200   5.494   9.070  0.0586  0.2158  0.4937
  117OSM   H16F12359   1.136   5.585   9.060 -0.7110 -0.2809  0.8635
  117OSM   H16G12360   1.132   5.415   9.108 -2.1114  0.7440 -2.1335
  117OSM   C17F12361   1.251   5.453   8.933 -0.0909 -0.4131  0.0131
  117OSM   H17F12362   1.335   5.383   8.955  0.5883  0.6640  0.9091
  117OSM   H17G12363   1.287   5.548   8.890 -0.3608 -0.5197 -0.4522
  117OSM   C18F12364   1.149   5.381   8.840 -0.1099 -0.8561 -0.4898
  117OSM   H18F12365   1.085   5.312   8.899 -0.3015  0.5222  0.9704
  117OSM   H18G12366   1.193   5.317   8.761  0.1449  0.1538 -1.1665
  117OSM   H18H12367   1.076   5.451   8.794 -0.7176 -1.7634 -0.9129
  118OSM      N12368   1.636   6.703  11.031  0.4552 -0.1547  0.3164
  118OSM    C1512369   1.488   6.710  11.055  0.0467 -0.6304 -0.2291
  118OSM   H15A12370   1.448   6.810  11.044  0.6782 -0.1618  1.5869
  118OSM   H15B12371   1.460   6.669  11.151 -0.7897  0.4876  0.0222
  118OSM   H15C12372   1.424   6.653  10.989 -0.2149 -0.6671  0.0529
  118OSM    C1412373   1.709   6.809  11.111 -0.5157 -0.2418 -0.2792
  118OSM   H14A12374   1.814   6.786  11.122 -0.7217  0.2302  3.3842
  118OSM   H14B12375   1.664   6.828  11.207  1.1878  1.6078  0.1963
  118OSM   H14C12376   1.690   6.901  11.057 -2.6832 -0.7119 -0.3613
  118OSM    C1312377   1.682   6.565  11.081  0.0267 -0.2634 -0.1362
  118OSM   H13A12378   1.691   6.561  11.189 -2.9728  0.2819  0.1701
  118OSM   H13B12379   1.775   6.548  11.029 -0.4568 -2.9233 -0.2017
  118OSM   H13C12380   1.612   6.497  11.035  0.5052 -1.1452  0.4287
  118OSM    C1212381   1.662   6.722  10.885  0.1162 -0.1067  0.3512
  118OSM   H12A12382   1.622   6.640  10.827 -2.7696  2.6664 -1.6943
  118OSM   H12B12383   1.767   6.728  10.857 -0.0834  0.8892 -0.1974
  118OSM    C1112384   1.600   6.848  10.817 -0.4059 -0.4193 -0.5622
  118OSM   H11A12385   1.490   6.852  10.835 -0.6266 -0.8803 -1.7512
  118OSM   H11B12386   1.604   6.836  10.707  3.5401 -2.3785 -0.2897
  118OSM      P12387   1.584   7.109  10.885  0.6122 -0.2719 -0.2560
  118OSM    O1312388   1.469   7.098  10.979 -0.0566  0.7280 -0.0860
  118OSM    O1412389   1.690   7.210  10.915 -0.2856 -0.1165 -0.6126
  118OSM    O1112390   1.518   7.131  10.744  0.4372 -0.0520  0.3330
  118OSM    O1212391   1.654   6.972  10.864  0.0666  0.1596  0.0064
  118OSM    C1S12392   1.593   7.127  10.620 -0.4163 -0.0987  0.7106
  118OSM    H1S12393   1.653   7.034  10.609 -0.0135  0.3219 -0.6908
  118OSM    H1T12394   1.660   7.215  10.615  0.2294 -0.7354 -4.0064
  118OSM     NF12395   1.579   7.134  10.377 -0.5883  0.2115 -0.2412
  118OSM    HNF12396   1.585   7.221  10.329 -1.2008  0.5366  0.2563
  118OSM    C2S12397   1.498   7.135  10.497 -0.0579  0.1476 -1.1992
  118OSM    H2S12398   1.437   7.042  10.492  1.2779 -0.9954  1.8404
  118OSM    C3S12399   1.405   7.259  10.514  0.2883 -0.2463  0.3129
  118OSM    H3S12400   1.469   7.345  10.543 -0.7154  0.1616  1.3331
  118OSM     O312401   1.312   7.244  10.623 -0.4655  0.2742  0.5619
  118OSM    HO312402   1.337   7.168  10.677  0.2939  0.1345  0.0168
  118OSM    C4S12403   1.327   7.297  10.395  0.4385 -0.2450 -0.0051
  118OSM    H4S12404   1.255   7.219  10.364  0.0738  0.0773  0.0278
  118OSM    C5S12405   1.329   7.409  10.312 -0.8726 -0.7545 -0.6431
  118OSM    H5S12406   1.417   7.470  10.334 -2.1299  0.1446  2.1057
  118OSM    C6S12407   1.236   7.434  10.195  0.2177 -0.1094 -0.2719
  118OSM    H6S12408   1.286   7.489  10.113  0.2192  1.2767  0.6486
  118OSM    H6T12409   1.168   7.510  10.239  1.2278  0.9108 -0.4651
  118OSM    C7S12410   1.154   7.308  10.147  0.2940 -0.0755 -0.1091
  118OSM    H7S12411   1.073   7.277  10.217  0.1369 -0.4601 -0.4525
  118OSM    H7T12412   1.225   7.233  10.107 -0.9828 -0.5527 -1.5540
  118OSM    C8S12413   1.074   7.339  10.015  0.5273 -0.5734  0.0215
  118OSM    H8S12414   1.001   7.417  10.046  0.6293 -0.5875  0.3042
  118OSM    H8T12415   1.019   7.251   9.974 -0.0664  0.5062 -1.5392
  118OSM    C9S12416   1.167   7.392   9.904 -0.1041  0.8557 -0.0797
  118OSM    H9S12417   1.260   7.331   9.900 -0.0988  0.9464 -1.5654
  118OSM    H9T12418   1.194   7.499   9.916  1.4095  0.4051  0.6668
  118OSM   C10S12419   1.101   7.362   9.763 -0.2323 -0.6862 -0.8002
  118OSM   H10S12420   0.996   7.395   9.779 -0.2083 -0.4288 -1.1728
  118OSM   H10T12421   1.099   7.252   9.750  0.8096 -0.3717 -3.9672
  118OSM   C11S12422   1.184   7.425   9.651 -0.1158  0.4768 -0.8083
  118OSM   H11S12423   1.278   7.366   9.641 -1.6896 -1.9065 -2.0651
  118OSM   H11T12424   1.210   7.532   9.665  1.5207  0.2335 -1.7707
  118OSM   C12S12425   1.113   7.413   9.515 -0.3228  0.1700  0.5810
  118OSM   H12S12426   1.010   7.455   9.517 -0.4450 -0.1094 -0.0209
  118OSM   H12T12427   1.107   7.304   9.496 -0.6766  0.5320 -1.4831
  118OSM   C13S12428   1.203   7.490   9.409 -0.1528 -0.1701  0.1789
  118OSM   H13S12429   1.307   7.455   9.429 -0.4967 -0.9439  0.6720
  118OSM   H13T12430   1.190   7.598   9.429 -2.5908 -0.0935 -1.6644
  118OSM   C14S12431   1.153   7.444   9.273  0.4152 -0.8600 -0.3903
  118OSM   H14S12432   1.042   7.439   9.263  0.3218  0.8550 -0.3785
  118OSM   H14T12433   1.179   7.341   9.242 -2.2855 -1.5934 -0.3871
  118OSM   C15S12434   1.212   7.540   9.164  0.2414 -0.4338  0.0629
  118OSM   H15S12435   1.263   7.479   9.086 -2.3240 -1.7298 -0.6669
  118OSM   H15T12436   1.289   7.605   9.209 -1.2641 -0.5171  2.8451
  118OSM   C16S12437   1.106   7.616   9.087  0.2192 -0.4836  0.0093
  118OSM   H16S12438   1.076   7.711   9.136  0.6948 -0.8976  1.1184
  118OSM   H16T12439   1.013   7.557   9.072 -0.1022  0.0768 -0.2193
  118OSM   C17S12440   1.175   7.652   8.951  0.3501  0.1375 -0.2223
  118OSM   H17S12441   1.086   7.689   8.897 -0.3462 -1.7296 -0.3785
  118OSM   H17T12442   1.222   7.566   8.899  1.3045  1.7625 -2.1366
  118OSM   C18S12443   1.282   7.761   8.974  1.0933  0.6139  0.5429
  118OSM   H18S12444   1.243   7.844   9.037 -0.5370  0.5559 -0.3706
  118OSM   H18T12445   1.324   7.793   8.876  1.2948  1.5538  0.9290
  118OSM   H18U12446   1.364   7.717   9.035 -0.2256 -0.8767  1.2702
  118OSM    C1F12447   1.655   7.035  10.327  0.0585  0.3465  0.0044
  118OSM     OF12448   1.658   6.922  10.378  0.2077  0.6074  0.1896
  118OSM    C2F12449   1.759   7.077  10.226  0.1842  0.5103 -0.4176
  118OSM    H2F12450   1.820   6.987  10.205 -0.4165 -0.4382  1.7891
  118OSM    H2G12451   1.822   7.158  10.269 -1.0431  1.6369 -0.7041
  118OSM    C3F12452   1.692   7.129  10.093 -0.7599 -0.6171 -0.3573
  118OSM    H3F12453   1.771   7.179  10.033 -0.9114 -1.1379 -0.9972
  118OSM    H3G12454   1.621   7.211  10.119 -2.8652 -2.6726  0.5661
  118OSM    C4F12455   1.620   7.018  10.002 -0.3255 -0.3623  0.1782
  118OSM    H4F12456   1.547   6.959  10.063  0.2557 -1.9178 -0.5927
  118OSM    H4G12457   1.706   6.957   9.967  0.5996  2.1470 -2.0755
  118OSM    C5F12458   1.552   7.055   9.865  0.2770  0.7689 -0.4436
  118OSM    H5F12459   1.465   7.119   9.887  0.1531  0.3146  0.3994
  118OSM    H5G12460   1.506   6.967   9.814  1.1380  1.9819 -3.4139
  118OSM    C6F12461   1.650   7.114   9.772 -0.3348 -0.3507 -0.0434
  118OSM    H6F12462   1.734   7.041   9.780 -1.8570 -1.9825  1.3592
  118OSM    H6G12463   1.679   7.217   9.803 -1.5541  0.6513 -2.1291
  118OSM    C7F12464   1.618   7.124   9.622  0.5592 -0.2086 -0.0428
  118OSM    H7F12465   1.572   7.029   9.587  0.7830 -0.0744 -0.7099
  118OSM    H7G12466   1.712   7.156   9.572  0.4679  2.7345  1.5478
  118OSM    C8F12467   1.523   7.244   9.578 -0.6461 -0.5376 -0.6110
  118OSM    H8F12468   1.427   7.231   9.633  0.5452  0.6272  1.7842
  118OSM    H8G12469   1.502   7.227   9.470  0.1270  0.2297 -0.8822
  118OSM    C9F12470   1.580   7.374   9.611 -0.3906  0.1125 -0.1964
  118OSM    H9F12471   1.566   7.392   9.718  1.6595 -0.7160  0.2405
  118OSM   C10F12472   1.641   7.453   9.530 -0.2832 -0.0239  0.1034
  118OSM   H10F12473   1.670   7.553   9.565  1.2640 -0.3199 -0.3017
  118OSM   C11F12474   1.674   7.415   9.382 -0.0422  0.2901 -0.3919
  118OSM   H11F12475   1.715   7.312   9.381 -0.5104  0.0686  1.5931
  118OSM   H11G12476   1.759   7.479   9.351  1.2913 -2.2620 -2.1585
  118OSM   C12F12477   1.555   7.426   9.287 -0.2133  0.3027 -0.3626
  118OSM   H12F12478   1.514   7.528   9.298  0.4423  0.4296  1.1407
  118OSM   H12G12479   1.472   7.358   9.316  1.3389 -0.9433  1.3103
  118OSM   C13F12480   1.590   7.397   9.135 -0.1320 -0.1637  0.5139
  118OSM   H13F12481   1.490   7.409   9.088 -1.1077 -0.7077  2.4212
  118OSM   H13G12482   1.615   7.289   9.121 -0.9176 -0.1171 -1.4286
  118OSM   C14F12483   1.690   7.497   9.077 -0.6826  0.4486 -0.6898
  118OSM   H14F12484   1.790   7.471   9.118 -0.3063 -0.6256 -2.2557
  118OSM   H14G12485   1.663   7.599   9.113  2.7095  1.4046 -0.6533
  118OSM   C15F12486   1.698   7.507   8.926 -0.1593  0.0219  0.0183
  118OSM   H15F12487   1.720   7.613   8.902 -0.2338  0.0596  0.1163
  118OSM   H15G12488   1.600   7.486   8.877 -1.5153 -0.1033  2.7045
  118OSM   C16F12489   1.816   7.427   8.858 -0.0658 -0.1293 -0.9932
  118OSM   H16F12490   1.915   7.450   8.901  1.4175 -1.9372 -3.2614
  118OSM   H16G12491   1.825   7.450   8.750  0.5482 -0.6587 -1.0647
  118OSM   C17F12492   1.800   7.274   8.854  0.4993  0.0656  0.3755
  118OSM   H17F12493   1.800   7.233   8.957 -1.5296  0.3100  0.4946
  118OSM   H17G12494   1.874   7.226   8.786 -1.6902 -1.3564 -1.0763
  118OSM   C18F12495   1.668   7.221   8.799  0.3443 -0.4250  0.0038
  118OSM   H18F12496   1.585   7.272   8.852  0.2230 -0.1994 -0.3969
  118OSM   H18G12497   1.668   7.110   8.801  0.7272 -0.5203 -2.7670
  118OSM   H18H12498   1.660   7.257   8.694 -0.7143 -0.3017  0.1208
  119OSM      N12499   2.563   6.094  11.055  0.4770 -0.1353  0.3376
  119OSM    C1512500   2.542   6.240  11.062  0.1113  0.0015 -0.5083
  119OSM   H15A12501   2.443   6.252  11.022  0.3031  0.0226 -0.9861
  119OSM   H15B12502   2.616   6.290  11.001  0.3055 -0.7463 -0.8889
  119OSM   H15C12503   2.536   6.272  11.165 -1.4958 -1.2302 -0.2066
  119OSM    C1412504   2.704   6.065  11.097  0.2278  0.2098 -0.2700
  119OSM   H14A12505   2.715   6.092  11.201 -2.4727 -1.8821  0.6196
  119OSM   H14B12506   2.787   6.101  11.038  2.3801 -0.8356  2.0168
  119OSM   H14C12507   2.709   5.958  11.084 -2.6876 -0.0486  0.3525
  119OSM    C1312508   2.460   6.029  11.134  0.4102  0.0261 -0.0867
  119OSM   H13A12509   2.462   6.052  11.240 -0.3761 -0.6610  0.0832
  119OSM   H13B12510   2.464   5.921  11.128 -1.5013 -0.0994  0.2786
  119OSM   H13C12511   2.365   6.064  11.097  0.8413  1.8401  0.4509
  119OSM    C1212512   2.536   6.054  10.911  0.0845  0.2877 -0.1883
  119OSM   H12A12513   2.554   5.949  10.894  1.6797  0.3026  1.3116
  119OSM   H12B12514   2.616   6.093  10.849  1.6448 -2.4352  0.0741
  119OSM    C1112515   2.407   6.114  10.845  0.2792  0.6384 -0.7827
  119OSM   H11A12516   2.386   6.062  10.750 -2.3046  2.8245 -1.4793
  119OSM   H11B12517   2.430   6.222  10.826 -1.6044  1.1066 -0.4869
  119OSM      P12518   2.182   6.216  10.922  0.0270 -0.4346  0.0129
  119OSM    O1312519   2.052   6.160  10.957  0.6289  0.7819 -0.5352
  119OSM    O1412520   2.230   6.323  11.011 -0.3499 -0.2495 -0.0339
  119OSM    O1112521   2.177   6.254  10.768  0.0295 -0.6953 -0.0702
  119OSM    O1212522   2.291   6.102  10.926 -0.3475 -0.0411 -0.2150
  119OSM    C1S12523   2.118   6.164  10.671  0.2772 -0.5699  0.5376
  119OSM    H1S12524   2.013   6.136  10.693 -0.0294  0.2886  0.2079
  119OSM    H1T12525   2.173   6.068  10.672  0.2826 -0.5724  0.1257
  119OSM     NF12526   2.033   6.158  10.454 -0.1153  0.0609 -0.4857
  119OSM    HNF12527   2.078   6.094  10.393 -0.1482 -0.4928  0.0682
  119OSM    C2S12528   2.122   6.229  10.534  0.2801 -0.4856 -0.7076
  119OSM    H2S12529   2.084   6.333  10.542  2.5353  0.3534 -0.3012
  119OSM    C3S12530   2.267   6.231  10.477 -0.0955 -0.1018 -0.1660
  119OSM    H3S12531   2.296   6.125  10.466 -2.4361 -0.7069 -0.5863
  119OSM     O312532   2.361   6.290  10.565 -0.7524  0.2145  0.0557
  119OSM    HO312533   2.323   6.287  10.653 -0.0388  2.1153  0.4494
  119OSM    C4S12534   2.271   6.318  10.354 -0.1139  0.0570  0.7302
  119OSM    H4S12535   2.245   6.422  10.375  0.2276  0.5242 -1.0544
  119OSM    C5S12536   2.298   6.267  10.231 -0.4157  0.5968 -0.1772
  119OSM    H5S12537   2.312   6.159  10.211 -0.0601 -0.1328  3.6708
  119OSM    C6S12538   2.295   6.354  10.106  0.1986  0.3732 -0.6241
  119OSM    H6S12539   2.373   6.315  10.037 -0.5911  1.6185 -2.2405
  119OSM    H6T12540   2.324   6.459  10.129 -0.0046 -0.0064  1.4779
  119OSM    C7S12541   2.158   6.349  10.038  1.0364  0.3517  0.2858
  119OSM    H7S12542   2.071   6.349  10.107  0.0669 -1.2663 -0.9109
  119OSM    H7T12543   2.132   6.253   9.988  0.1692  0.5696  0.3213
  119OSM    C8S12544   2.153   6.446   9.912 -0.2054  0.2801 -0.1550
  119OSM    H8S12545   2.170   6.549   9.950  1.1916  0.0570 -0.1675
  119OSM    H8T12546   2.051   6.446   9.867  0.6401  2.0039 -2.1915
  119OSM    C9S12547   2.256   6.405   9.810 -0.1002  0.1914 -0.1735
  119OSM    H9S12548   2.244   6.296   9.793  0.5221  0.3443 -1.7076
  119OSM    H9T12549   2.358   6.428   9.846 -0.8072  2.0533  0.7244
  119OSM   C10S12550   2.256   6.477   9.677  0.5636 -0.0955  0.3991
  119OSM   H10S12551   2.293   6.578   9.705 -0.8923  0.5178  0.1274
  119OSM   H10T12552   2.160   6.490   9.624  1.9807  2.0026 -1.7620
  119OSM   C11S12553   2.363   6.420   9.590  0.2499  0.0059  0.1769
  119OSM   H11S12554   2.358   6.312   9.566 -1.0090  0.4510 -1.5767
  119OSM   H11T12555   2.462   6.426   9.641  1.8623  1.0696 -2.9965
  119OSM   C12S12556   2.369   6.494   9.464  0.3049 -0.5354  0.0676
  119OSM   H12S12557   2.385   6.601   9.487  1.1733 -0.6078 -0.1739
  119OSM   H12T12558   2.269   6.489   9.415  1.2097 -1.1092 -1.7908
  119OSM   C13S12559   2.481   6.447   9.370  0.4727  0.3978  0.0715
  119OSM   H13S12560   2.453   6.347   9.330  2.4713  0.0024 -0.3823
  119OSM   H13T12561   2.570   6.443   9.437 -0.8122 -1.3464  1.7416
  119OSM   C14S12562   2.513   6.546   9.253  0.1438 -0.7756 -0.2350
  119OSM   H14S12563   2.546   6.642   9.298  0.6656 -1.1570  0.1855
  119OSM   H14T12564   2.424   6.559   9.187  0.2126  1.9318  0.1384
  119OSM   C15S12565   2.632   6.506   9.157 -0.1266  0.4736  0.0830
  119OSM   H15S12566   2.710   6.464   9.223 -3.3015 -3.5832  1.4621
  119OSM   H15T12567   2.679   6.598   9.115  0.8196 -0.6868 -1.4439
  119OSM   C16S12568   2.587   6.404   9.045  0.2152 -0.1848  0.5367
  119OSM   H16S12569   2.507   6.457   8.991 -0.8024  0.7670  2.8887
  119OSM   H16T12570   2.544   6.309   9.084 -1.4114  0.1806 -0.3261
  119OSM   C17S12571   2.704   6.364   8.950 -0.3756  0.5843 -0.4127
  119OSM   H17S12572   2.789   6.337   9.016 -1.3699 -1.4789  0.0434
  119OSM   H17T12573   2.728   6.446   8.879  1.1787  0.0113 -0.5753
  119OSM   C18S12574   2.669   6.235   8.878 -0.2035  0.2028  0.1929
  119OSM   H18S12575   2.561   6.243   8.852 -0.3869 -1.2639  0.4753
  119OSM   H18T12576   2.675   6.151   8.951 -2.6130  1.6341  2.0970
  119OSM   H18U12577   2.732   6.224   8.787 -0.3316 -0.3790  0.1738
  119OSM    C1F12578   1.903   6.155  10.453 -0.0900 -0.1101  0.2910
  119OSM     OF12579   1.831   6.236  10.509  0.0399 -0.1773  0.2440
  119OSM    C2F12580   1.843   6.030  10.395  0.0140  0.9554 -0.4601
  119OSM    H2F12581   1.771   6.001  10.475  0.1840  1.7040 -0.0258
  119OSM    H2G12582   1.918   5.951  10.376  1.1555  1.2820  2.4059
  119OSM    C3F12583   1.774   6.068  10.262 -1.0646 -0.4560  0.7599
  119OSM    H3F12584   1.695   6.144  10.277 -0.5229  0.5438 -1.2653
  119OSM    H3G12585   1.721   5.974  10.238 -0.8102 -0.6005  0.7698
  119OSM    C4F12586   1.868   6.101  10.145 -0.4879 -0.4111 -0.4609
  119OSM    H4F12587   1.941   6.020  10.129 -0.2812 -0.6462  1.5968
  119OSM    H4G12588   1.931   6.190  10.164 -1.7498  0.8780 -2.1206
  119OSM    C5F12589   1.789   6.114  10.016 -0.3240 -0.4283 -0.4146
  119OSM    H5F12590   1.733   6.209  10.008  1.3718  0.5479 -0.8659
  119OSM    H5G12591   1.718   6.029  10.012  0.2644 -0.9484 -0.0497
  119OSM    C6F12592   1.886   6.114   9.893 -0.5800 -0.2615  0.0618
  119OSM    H6F12593   1.941   6.017   9.902 -1.7241 -0.9521 -0.2260
  119OSM    H6G12594   1.945   6.206   9.912 -0.9878  0.2243 -0.9952
  119OSM    C7F12595   1.817   6.105   9.759  0.1944 -0.3183  0.8713
  119OSM    H7F12596   1.754   6.193   9.734  2.1628  0.9235  0.1961
  119OSM    H7G12597   1.755   6.013   9.747  0.8368 -0.5568 -0.7041
  119OSM    C8F12598   1.933   6.091   9.648  0.1802 -0.2586 -0.5801
  119OSM    H8F12599   1.991   6.001   9.680  0.0069 -0.1563  0.0264
  119OSM    H8G12600   2.003   6.177   9.656  1.8921 -1.6629  0.0374
  119OSM    C9F12601   1.879   6.067   9.512  0.0093  0.7096 -0.6122
  119OSM    H9F12602   1.779   6.022   9.511  0.0975  0.4843  0.3757
  119OSM   C10F12603   1.932   6.092   9.391  0.4880 -0.2825  0.1108
  119OSM   H10F12604   1.874   6.074   9.299  1.3379 -1.9870 -0.1010
  119OSM   C11F12605   2.063   6.159   9.369  0.3764  0.5337  0.5204
  119OSM   H11F12606   2.120   6.185   9.460  0.4308 -0.3035  0.7263
  119OSM   H11G12607   2.055   6.257   9.317  2.4525  1.6996  2.3472
  119OSM   C12F12608   2.165   6.074   9.283 -0.5649 -0.0930 -0.5456
  119OSM   H12F12609   2.210   5.983   9.328  0.4172 -0.7565 -2.8278
  119OSM   H12G12610   2.249   6.140   9.251 -0.3073 -0.4400 -0.5844
  119OSM   C13F12611   2.112   6.001   9.153  0.1115  1.3409 -0.2252
  119OSM   H13F12612   2.029   6.057   9.103 -1.9414 -0.6119  0.9025
  119OSM   H13G12613   2.078   5.898   9.174  1.2258  0.7453 -1.2847
  119OSM   C14F12614   2.225   6.005   9.050 -0.6053 -0.7303  0.0071
  119OSM   H14F12615   2.315   5.953   9.090 -0.5671 -0.5802  0.1163
  119OSM   H14G12616   2.251   6.108   9.019  0.4004 -1.0462 -0.2042
  119OSM   C15F12617   2.190   5.935   8.923  0.7804  0.4897 -0.7610
  119OSM   H15F12618   2.084   5.963   8.901  0.5597  0.0143 -0.3076
  119OSM   H15G12619   2.180   5.828   8.948 -2.1927  1.8421  4.5316
  119OSM   C16F12620   2.287   5.952   8.802 -1.5437  0.5972 -0.3784
  119OSM   H16F12621   2.277   5.872   8.726  1.5208  0.5340 -0.7830
  119OSM   H16G12622   2.389   5.945   8.846 -1.9873 -1.6777  0.3402
  119OSM   C17F12623   2.271   6.081   8.723 -0.3855 -0.4748 -0.0335
  119OSM   H17F12624   2.306   6.165   8.787  1.1988 -0.1047 -1.3254
  119OSM   H17G12625   2.163   6.090   8.701 -1.1420 -2.4222  2.6540
  119OSM   C18F12626   2.358   6.090   8.602 -0.0676 -0.1969  0.8690
  119OSM   H18F12627   2.348   6.190   8.553 -0.9242 -0.5164  0.3915
  119OSM   H18G12628   2.316   6.014   8.533 -3.8305  0.7556  2.0256
  119OSM   H18H12629   2.462   6.062   8.631 -0.1326 -0.5301  0.7812
  120OSM      N12630   1.964   2.845  10.584  0.5211  0.2784  0.8124
  120OSM    C1512631   2.026   2.837  10.726  0.0771  1.0134 -0.2111
  120OSM   H15A12632   2.133   2.853  10.720  0.2144  0.0141 -0.6896
  120OSM   H15B12633   2.006   2.735  10.754 -1.1841  0.9822 -1.1796
  120OSM   H15C12634   1.992   2.911  10.796  0.4703 -0.4921  1.6109
  120OSM    C1412635   2.021   2.971  10.524 -0.1363 -0.2975 -0.2626
  120OSM   H14A12636   1.975   2.999  10.431  1.0746  0.5310 -0.6193
  120OSM   H14B12637   2.128   2.972  10.512 -0.1226  3.5451 -0.3773
  120OSM   H14C12638   1.996   3.051  10.592 -0.9786  0.5904 -1.6052
  120OSM    C1312639   2.003   2.727  10.498 -0.0168  0.1000 -0.4370
  120OSM   H13A12640   1.945   2.639  10.525 -0.1573  0.2738 -0.1682
  120OSM   H13B12641   2.109   2.705  10.504 -0.0184  0.2897  0.4314
  120OSM   H13C12642   1.987   2.746  10.393 -0.7669 -0.8583 -0.5047
  120OSM    C1212643   1.808   2.863  10.581  0.3231  0.1447  0.4060
  120OSM   H12A12644   1.774   2.878  10.480  0.5416 -0.3588  0.2549
  120OSM   H12B12645   1.786   2.954  10.635  3.3370  2.5609 -2.1778
  120OSM    C1112646   1.728   2.741  10.648  0.7824  0.1010  0.1177
  120OSM   H11A12647   1.622   2.774  10.642  0.7415  0.0843  0.7316
  120OSM   H11B12648   1.739   2.747  10.758 -3.6988 -2.3286  0.8306
  120OSM      P12649   1.643   2.503  10.537  0.2052 -0.4054  0.1054
  120OSM    O1312650   1.712   2.386  10.485 -0.1172 -0.1408  0.0573
  120OSM    O1412651   1.555   2.480  10.657 -0.8168  0.0062 -0.3826
  120OSM    O1112652   1.552   2.581  10.430  0.6241  0.1544  0.2805
  120OSM    O1212653   1.758   2.610  10.586 -0.0295 -0.2707 -0.4709
  120OSM    C1S12654   1.607   2.689  10.354 -0.2594  0.1148 -0.3618
  120OSM    H1S12655   1.699   2.735  10.397 -1.0751  0.2021  1.3364
  120OSM    H1T12656   1.533   2.771  10.366  0.1540  0.2179  1.5489
  120OSM     NF12657   1.698   2.770  10.142  0.4607  0.8336 -0.1491
  120OSM    HNF12658   1.645   2.846  10.106 -0.0346  1.0222  0.9463
  120OSM    C2S12659   1.614   2.662  10.198 -0.1282  0.6047  0.5452
  120OSM    H2S12660   1.664   2.563  10.195 -0.6589  0.2473  2.7272
  120OSM    C3S12661   1.474   2.658  10.132 -0.1646 -0.3220 -1.4095
  120OSM    H3S12662   1.413   2.750  10.145 -0.3563 -0.6031 -0.2810
  120OSM     O312663   1.406   2.544  10.188 -0.1458 -0.1118  0.2472
  120OSM    HO312664   1.445   2.526  10.274 -0.7235 -0.0171  0.5354
  120OSM    C4S12665   1.479   2.631   9.981  0.6460 -0.2796  0.0909
  120OSM    H4S12666   1.506   2.525   9.967  1.6071 -0.2575  1.6465
  120OSM    C5S12667   1.450   2.715   9.882  0.4118  0.1969  0.3547
  120OSM    H5S12668   1.433   2.822   9.899  1.2565  0.6981 -1.7631
  120OSM    C6S12669   1.441   2.686   9.738 -0.0828 -0.2121  0.5106
  120OSM    H6S12670   1.333   2.669   9.721 -0.9244  1.7683  3.3934
  120OSM    H6T12671   1.501   2.595   9.715 -2.0966 -1.3668 -0.2620
  120OSM    C7S12672   1.502   2.803   9.654 -0.4872 -0.6347 -0.2473
  120OSM    H7S12673   1.604   2.824   9.691  0.1484 -0.8564 -1.8348
  120OSM    H7T12674   1.441   2.896   9.660  0.4417  0.1841 -2.6826
  120OSM    C8S12675   1.513   2.762   9.509  0.3037  0.1284  0.5828
  120OSM    H8S12676   1.408   2.772   9.475 -0.1587 -1.6130  1.4772
  120OSM    H8T12677   1.540   2.655   9.504 -0.2873 -0.1568  2.8962
  120OSM    C9S12678   1.602   2.854   9.425 -0.2635 -0.9955  0.3351
  120OSM    H9S12679   1.642   2.804   9.334  0.0649 -1.6271  0.8236
  120OSM    H9T12680   1.688   2.875   9.493 -0.0756 -0.0345 -0.1897
  120OSM   C10S12681   1.531   2.986   9.384 -0.7014 -0.4961 -0.1293
  120OSM   H10S12682   1.486   3.041   9.470 -1.8883  0.7340 -1.5147
  120OSM   H10T12683   1.451   2.961   9.312  1.0248 -0.6128 -2.0436
  120OSM   C11S12684   1.638   3.079   9.314 -0.2974  0.4571  0.2003
  120OSM   H11S12685   1.706   3.016   9.253  0.6119  0.4069  1.2457
  120OSM   H11T12686   1.693   3.123   9.400  0.2353  0.6049 -0.2140
  120OSM   C12S12687   1.581   3.200   9.222 -0.6647  0.4201 -0.0805
  120OSM   H12S12688   1.536   3.275   9.291  0.7914  1.0701  0.1657
  120OSM   H12T12689   1.505   3.161   9.151  0.3397 -2.0883  0.1587
  120OSM   C13S12690   1.689   3.279   9.154  0.1324  0.4073 -0.0091
  120OSM   H13S12691   1.758   3.219   9.091  0.2037 -0.2294  0.6646
  120OSM   H13T12692   1.753   3.317   9.237 -0.1956 -0.9407  0.8615
  120OSM   C14S12693   1.642   3.398   9.066  0.5838 -0.0509  0.3045
  120OSM   H14S12694   1.561   3.457   9.115  0.0717  1.0919 -1.8445
  120OSM   H14T12695   1.595   3.355   8.974 -0.3172  1.9718 -0.2075
  120OSM   C15S12696   1.756   3.496   9.026  0.3864 -0.0149 -0.1519
  120OSM   H15S12697   1.785   3.551   9.118  1.3100  0.4602 -0.7159
  120OSM   H15T12698   1.708   3.562   8.951  2.2076  1.8870  0.3037
  120OSM   C16S12699   1.881   3.430   8.959 -0.6515  0.7197 -0.4858
  120OSM   H16S12700   1.919   3.354   9.031 -0.0207  0.5447 -0.9974
  120OSM   H16T12701   1.961   3.504   8.938  0.7375 -0.5582  0.2190
  120OSM   C17S12702   1.850   3.366   8.824  0.0780  0.0166  0.3583
  120OSM   H17S12703   1.823   3.441   8.746  0.0771  0.1713  0.5062
  120OSM   H17T12704   1.759   3.306   8.842 -1.0174  1.9620  1.3974
  120OSM   C18S12705   1.962   3.275   8.763  0.6659 -0.0190 -0.1129
  120OSM   H18S12706   2.051   3.332   8.727  0.1912  1.2150  0.6696
  120OSM   H18T12707   1.927   3.216   8.675 -0.5950 -0.4830  0.7023
  120OSM   H18U12708   1.995   3.213   8.849 -3.0995 -0.8418  0.8103
  120OSM    C1F12709   1.829   2.774  10.160  0.3624  0.2918 -0.0729
  120OSM     OF12710   1.883   2.687  10.227 -0.1750  0.1808  0.5362
  120OSM    C2F12711   1.908   2.882  10.106  0.4805  0.5891  0.4600
  120OSM    H2F12712   1.989   2.914  10.176 -0.5835  2.1929  0.9945
  120OSM    H2G12713   1.843   2.971  10.088 -0.1426  0.2539  1.0186
  120OSM    C3F12714   1.965   2.844   9.961 -0.0495  0.1208  0.2288
  120OSM    H3F12715   2.023   2.750   9.961 -1.3631 -0.7116 -0.9868
  120OSM    H3G12716   2.022   2.933   9.925  0.2159  0.7061  2.0641
  120OSM    C4F12717   1.860   2.822   9.853  1.2734 -0.3219  0.6047
  120OSM    H4F12718   1.796   2.912   9.836  0.7953 -0.3079  2.4104
  120OSM    H4G12719   1.795   2.745   9.900  1.4012 -0.1016  1.1504
  120OSM    C5F12720   1.904   2.752   9.729 -0.7478  0.7876  0.1879
  120OSM    H5F12721   1.821   2.742   9.655 -0.7466 -1.3641  0.4528
  120OSM    H5G12722   1.948   2.652   9.748  1.1038  1.3286 -1.1023
  120OSM    C6F12723   2.005   2.833   9.646 -0.7284 -0.5004 -0.1482
  120OSM    H6F12724   2.105   2.798   9.678 -0.6381  0.0394  0.1847
  120OSM    H6G12725   1.996   2.944   9.653  0.2928 -0.2951 -1.8112
  120OSM    C7F12726   1.997   2.792   9.499 -0.4186  0.1048 -1.0583
  120OSM    H7F12727   1.894   2.786   9.458 -1.8257  0.6085  2.2865
  120OSM    H7G12728   2.043   2.691   9.495 -0.4705  0.0915 -1.3795
  120OSM    C8F12729   2.076   2.873   9.402 -0.2781  0.9957 -0.8982
  120OSM    H8F12730   2.086   2.826   9.302  0.0645 -1.0578  0.0765
  120OSM    H8G12731   2.180   2.889   9.438 -1.5206  4.5513  1.4282
  120OSM    C9F12732   2.032   3.008   9.365  0.1377  0.4144  0.1827
  120OSM    H9F12733   1.934   3.015   9.314  0.6045 -1.2906 -0.9860
  120OSM   C10F12734   2.093   3.123   9.392 -0.3231  0.0392  0.4689
  120OSM   H10F12735   2.042   3.216   9.360 -1.2708 -0.6847 -0.1476
  120OSM   C11F12736   2.230   3.149   9.453 -0.3758  0.4853 -0.5033
  120OSM   H11F12737   2.295   3.061   9.434 -0.3421  0.2167  0.8052
  120OSM   H11G12738   2.220   3.162   9.563 -0.7244 -1.3337 -0.3165
  120OSM   C12F12739   2.310   3.258   9.381  0.3286  0.5597  0.1763
  120OSM   H12F12740   2.396   3.281   9.448  0.6303 -0.2779  0.0864
  120OSM   H12G12741   2.248   3.350   9.382 -0.2466  0.1821 -0.1965
  120OSM   C13F12742   2.370   3.228   9.244  0.3533 -0.6026 -0.0695
  120OSM   H13F12743   2.282   3.207   9.179  0.3237 -1.0225  0.1026
  120OSM   H13G12744   2.427   3.133   9.238 -0.0470 -0.8084 -0.6558
  120OSM   C14F12745   2.455   3.336   9.183  0.3563  0.1676  0.5072
  120OSM   H14F12746   2.534   3.362   9.257 -0.2177 -0.0118  1.1846
  120OSM   H14G12747   2.387   3.421   9.162  1.7634  1.1979 -0.0205
  120OSM   C15F12748   2.511   3.302   9.045 -0.0505 -0.1871  0.7730
  120OSM   H15F12749   2.564   3.205   9.056 -0.9488 -0.8254 -0.4293
  120OSM   H15G12750   2.579   3.383   9.009  0.7262 -0.9676  0.4829
  120OSM   C16F12751   2.402   3.282   8.940 -0.0757  0.2354  0.6942
  120OSM   H16F12752   2.337   3.371   8.947 -0.1889  0.2226 -0.1509
  120OSM   H16G12753   2.343   3.193   8.972 -2.4141  1.9567  1.2789
  120OSM   C17F12754   2.448   3.282   8.796 -0.2558 -0.4771 -0.0252
  120OSM   H17F12755   2.512   3.193   8.779 -1.5002 -0.9987 -2.2408
  120OSM   H17G12756   2.526   3.361   8.789 -1.4737  0.8143  0.7216
  120OSM   C18F12757   2.337   3.302   8.689 -0.3057  0.0395  0.2733
  120OSM   H18F12758   2.374   3.298   8.584 -0.7978 -0.5857  0.1204
  120OSM   H18G12759   2.290   3.402   8.699  3.6387  2.0095  0.0740
  120OSM   H18H12760   2.252   3.232   8.707 -2.8639  2.8473 -0.4994
  121OSM      N12761   0.001   6.245  10.980  0.4500 -0.2164  0.4530
  121OSM    C1512762  -0.034   6.364  11.066 -0.0986 -0.0857  0.3389
  121OSM   H15A12763  -0.039   6.449  10.999 -1.1070 -0.6912 -0.3754
  121OSM   H15B12764   0.037   6.376  11.146  1.5390 -0.3771 -1.0267
  121OSM   H15C12765  -0.131   6.337  11.104 -1.3725 -0.6117 -3.0691
  121OSM    C1412766   0.020   6.133  11.079  0.1882 -0.3778 -0.0139
  121OSM   H14A12767   0.104   6.146  11.145  1.3036 -1.7670 -1.1344
  121OSM   H14B12768   0.047   6.051  11.014 -1.0928 -0.6187 -0.2730
  121OSM   H14C12769  -0.075   6.110  11.126  0.2163 -0.5907 -0.0575
  121OSM    C1312770  -0.116   6.218  10.886  0.0538  0.5454  0.1542
  121OSM   H13A12771  -0.083   6.138  10.822  1.2527  0.5152  0.8001
  121OSM   H13B12772  -0.125   6.305  10.824  1.0693 -0.2393 -1.1100
  121OSM   H13C12773  -0.212   6.201  10.934 -1.9026  1.6278 -3.2444
  121OSM    C1212774   0.130   6.276  10.908 -0.0870 -0.4708 -0.1532
  121OSM   H12A12775   0.198   6.331  10.972 -0.6265 -0.4010  0.3556
  121OSM   H12B12776   0.106   6.355  10.839 -0.7161 -0.4855  0.0453
  121OSM    C1112777   0.211   6.174  10.827  0.0064  0.0731 -0.2789
  121OSM   H11A12778   0.284   6.228  10.763 -1.5683  2.7339  0.1103
  121OSM   H11B12779   0.142   6.108  10.770 -0.7153 -0.9526  1.7452
  121OSM      P12780   0.423   6.121  10.980 -0.5641  0.0222 -0.0402
  121OSM    O1312781   0.412   6.242  11.064 -0.0835 -0.0173  0.1031
  121OSM    O1412782   0.477   5.996  11.049 -0.4328 -0.7156 -0.5751
  121OSM    O1112783   0.506   6.165  10.859  0.7131 -0.2136  0.1687
  121OSM    O1212784   0.276   6.096  10.920 -0.2049  0.1254 -0.2546
  121OSM    C1S12785   0.555   6.069  10.764  0.3440 -0.1358 -0.2482
  121OSM    H1S12786   0.470   6.008  10.727 -0.8572  0.6258  1.1669
  121OSM    H1T12787   0.631   6.002  10.809  0.1248  0.5916  1.2359
  121OSM     NF12788   0.655   6.032  10.544  0.7816 -0.2121  0.2527
  121OSM    HNF12789   0.753   6.010  10.540  1.1629  1.5323 -0.3986
  121OSM    C2S12790   0.617   6.137  10.638  0.0036 -0.1405 -0.2459
  121OSM    H2S12791   0.545   6.205  10.587 -2.0683 -1.6254  0.6319
  121OSM    C3S12792   0.725   6.235  10.674 -0.3932 -0.6838  0.0013
  121OSM    H3S12793   0.811   6.181  10.720 -1.3677 -0.1487  2.5326
  121OSM     O312794   0.680   6.338  10.773 -0.2959 -0.5018  0.8595
  121OSM    HO312795   0.598   6.317  10.819 -0.9329  2.9850  1.4621
  121OSM    C4S12796   0.771   6.311  10.548 -0.3439 -0.2229 -0.4922
  121OSM    H4S12797   0.703   6.384  10.500  0.1143 -0.3462 -1.3370
  121OSM    C5S12798   0.901   6.309  10.499  0.2756 -0.5969 -0.4594
  121OSM    H5S12799   0.978   6.253  10.554  1.3547  1.2529 -0.0368
  121OSM    C6S12800   0.950   6.383  10.379 -0.1557  0.2448  0.1149
  121OSM    H6S12801   1.059   6.360  10.378 -0.1911  0.0405 -2.3576
  121OSM    H6T12802   0.934   6.493  10.380 -0.8317  0.1359  0.6833
  121OSM    C7S12803   0.891   6.326  10.245 -0.0941 -0.4723 -0.3894
  121OSM    H7S12804   0.781   6.336  10.236  0.1753  3.5114 -0.0776
  121OSM    H7T12805   0.917   6.218  10.247  0.1198 -0.4145  0.1624
  121OSM    C8S12806   0.953   6.399  10.125 -0.4183  0.0670  0.5055
  121OSM    H8S12807   1.060   6.377  10.107 -0.4353 -1.4762  2.1567
  121OSM    H8T12808   0.935   6.507  10.146 -0.9534 -0.2413  1.6362
  121OSM    C9S12809   0.881   6.364   9.991 -0.4114 -0.9117 -0.8414
  121OSM    H9S12810   0.772   6.378  10.009 -0.1988  0.5549 -0.6543
  121OSM    H9T12811   0.904   6.256   9.976  0.7046 -0.7072 -0.6260
  121OSM   C10S12812   0.906   6.439   9.865  0.2719  0.0616  1.0839
  121OSM   H10S12813   0.905   6.549   9.881 -0.3795  0.0329  1.2278
  121OSM   H10T12814   0.836   6.409   9.785  1.8565 -1.3522  0.1862
  121OSM   C11S12815   1.050   6.406   9.811  0.6700  0.0456  0.0485
  121OSM   H11S12816   1.065   6.297   9.803 -0.8716 -0.2205  0.7239
  121OSM   H11T12817   1.115   6.443   9.893 -0.3786  0.3999  0.7252
  121OSM   C12S12818   1.081   6.496   9.691 -0.4083  0.1018 -0.1925
  121OSM   H12S12819   1.191   6.510   9.694 -0.5348  1.1800 -0.4698
  121OSM   H12T12820   1.027   6.593   9.696 -1.8468 -0.5796 -1.5980
  121OSM   C13S12821   1.041   6.428   9.563  0.2714 -0.4472  0.7749
  121OSM   H13S12822   0.930   6.434   9.559  0.2835 -0.9929 -0.9485
  121OSM   H13T12823   1.072   6.322   9.572  1.0608 -0.1778  1.2141
  121OSM   C14S12824   1.084   6.502   9.428 -0.3198  0.2489 -0.1842
  121OSM   H14S12825   1.193   6.481   9.420 -0.1819  0.0899  1.8476
  121OSM   H14T12826   1.077   6.611   9.448 -1.2816  0.4746 -1.6940
  121OSM   C15S12827   1.003   6.464   9.305  0.3324  0.3235 -1.2647
  121OSM   H15S12828   0.921   6.533   9.277 -0.4529 -0.4217 -0.8250
  121OSM   H15T12829   0.957   6.365   9.323  0.5589  0.5666  0.8614
  121OSM   C16S12830   1.088   6.456   9.179 -0.1275 -0.4815 -0.2478
  121OSM   H16S12831   1.019   6.426   9.097 -0.3357  1.2457 -0.7216
  121OSM   H16T12832   1.156   6.368   9.187 -0.8134 -1.1940 -1.9006
  121OSM   C17S12833   1.178   6.576   9.139  0.3007 -0.3039 -0.6516
  121OSM   H17S12834   1.228   6.544   9.045 -0.6247 -2.8092 -0.3290
  121OSM   H17T12835   1.251   6.615   9.213 -0.0245  1.2304 -1.1031
  121OSM   C18S12836   1.093   6.696   9.111 -0.2162  0.0577 -0.2247
  121OSM   H18S12837   1.026   6.723   9.195  0.7661  1.2504  0.1847
  121OSM   H18T12838   1.023   6.666   9.030  0.7062 -2.2338 -0.2199
  121OSM   H18U12839   1.152   6.785   9.080 -0.8822  0.6193  0.1034
  121OSM    C1F12840   0.566   5.956  10.489  0.5076 -1.1998 -0.3074
  121OSM     OF12841   0.457   5.985  10.492  0.4217 -0.0201 -0.4198
  121OSM    C2F12842   0.613   5.825  10.424  1.1234  0.3052 -0.9117
  121OSM    H2F12843   0.582   5.744  10.493  0.9199  0.6656 -0.5750
  121OSM    H2G12844   0.723   5.842  10.418  1.0500  1.3979  0.4075
  121OSM    C3F12845   0.555   5.769  10.295 -0.1974 -0.3355  0.4696
  121OSM    H3F12846   0.576   5.829  10.204  0.5264 -1.4142 -0.0859
  121OSM    H3G12847   0.447   5.753  10.316 -0.0065 -2.3493  0.0621
  121OSM    C4F12848   0.599   5.627  10.278  0.0706 -0.0668  0.1365
  121OSM    H4F12849   0.583   5.575  10.376 -1.9569 -0.1080 -0.1901
  121OSM    H4G12850   0.708   5.630  10.259 -0.2855  1.6220 -1.6731
  121OSM    C5F12851   0.528   5.560  10.158 -0.0537  0.0473  0.0759
  121OSM    H5F12852   0.545   5.627  10.071 -3.2750 -0.0406 -0.6934
  121OSM    H5G12853   0.417   5.557  10.156  0.0042 -2.4241 -1.0412
  121OSM    C6F12854   0.575   5.433  10.108 -0.3821  0.5479  0.3995
  121OSM    H6F12855   0.533   5.349  10.167  2.5940  0.2087  2.1520
  121OSM    H6G12856   0.685   5.442  10.118 -0.4534  0.3984  1.3300
  121OSM    C7F12857   0.542   5.407   9.956  0.3977  0.1221 -0.6578
  121OSM    H7F12858   0.459   5.476   9.930  1.5914  2.0347  0.4775
  121OSM    H7G12859   0.506   5.303   9.945 -0.3266  0.4804 -1.7788
  121OSM    C8F12860   0.665   5.423   9.865  0.9148  0.7065 -0.5689
  121OSM    H8F12861   0.740   5.348   9.899 -0.2243  0.0153  0.4492
  121OSM    H8G12862   0.706   5.526   9.875 -0.9156  1.0691  4.1923
  121OSM    C9F12863   0.623   5.389   9.723 -0.5898  0.0510 -0.2785
  121OSM    H9F12864   0.549   5.308   9.711 -0.6285 -0.1880  1.4448
  121OSM   C10F12865   0.658   5.447   9.611  0.0958 -0.1733 -0.5421
  121OSM   H10F12866   0.605   5.412   9.521 -0.8620  0.1858 -0.1222
  121OSM   C11F12867   0.757   5.560   9.586  0.2686 -0.4410  0.4458
  121OSM   H11F12868   0.840   5.552   9.660 -0.1817  2.9007  1.3804
  121OSM   H11G12869   0.718   5.656   9.624 -0.7976  0.6701 -3.3287
  121OSM   C12F12870   0.810   5.574   9.441  0.0636 -0.5709 -0.0641
  121OSM   H12F12871   0.858   5.480   9.407 -0.6753 -1.5515  1.5537
  121OSM   H12G12872   0.891   5.650   9.440 -0.4235 -0.0470 -0.5374
  121OSM   C13F12873   0.700   5.631   9.347 -0.7156  0.3433  0.1632
  121OSM   H13F12874   0.658   5.722   9.394 -1.7483  0.2312 -0.5443
  121OSM   H13G12875   0.616   5.560   9.331 -0.4020  0.0860 -0.3617
  121OSM   C14F12876   0.765   5.664   9.211 -0.1056  0.0069 -0.1271
  121OSM   H14F12877   0.797   5.566   9.170  0.3147 -0.4966  1.3474
  121OSM   H14G12878   0.864   5.714   9.226 -0.0848  0.4115 -1.5264
  121OSM   C15F12879   0.689   5.745   9.113  0.6079 -0.0581  0.8442
  121OSM   H15F12880   0.665   5.847   9.150 -0.5187  1.2383 -3.2293
  121OSM   H15G12881   0.599   5.687   9.087  1.8962 -0.9766 -1.7343
  121OSM   C16F12882   0.759   5.758   8.977 -0.1528  0.3618  0.4105
  121OSM   H16F12883   0.788   5.658   8.938 -2.0024 -0.8828  2.1472
  121OSM   H16G12884   0.846   5.825   8.990  0.3990 -0.3935  0.6165
  121OSM   C17F12885   0.659   5.818   8.872 -0.9960 -0.0552 -0.4754
  121OSM   H17F12886   0.574   5.749   8.856 -1.8541  1.6130 -3.6417
  121OSM   H17G12887   0.710   5.833   8.774 -2.2152 -1.1355 -1.2793
  121OSM   C18F12888   0.589   5.945   8.905 -0.1109 -0.2637  0.0895
  121OSM   H18F12889   0.508   5.959   8.830  0.1253 -2.5059 -0.6096
  121OSM   H18G12890   0.643   6.042   8.900  0.3217 -0.6320 -3.5875
  121OSM   H18H12891   0.533   5.929   9.000 -0.7960 -0.4033 -0.3318
  122OSM      N12892   1.497   3.137  11.126 -0.2176 -0.1223  0.0110
  122OSM    C1512893   1.573   3.021  11.062  0.5061  1.0274 -0.0094
  122OSM   H15A12894   1.660   3.002  11.124  0.1283 -2.6138 -0.4850
  122OSM   H15B12895   1.598   3.039  10.958 -0.6562  1.2134 -0.2566
  122OSM   H15C12896   1.514   2.933  11.080 -0.4231  1.1591 -2.2545
  122OSM    C1412897   1.370   3.154  11.043 -0.4470 -0.9761 -0.1958
  122OSM   H14A12898   1.325   3.056  11.045 -2.6412 -0.0102  0.1932
  122OSM   H14B12899   1.394   3.178  10.940 -0.3660 -1.4692 -0.2902
  122OSM   H14C12900   1.300   3.226  11.084 -0.8663 -1.2259 -0.4674
  122OSM    C1312901   1.456   3.113  11.269 -0.7242  0.0105  0.0149
  122OSM   H13A12902   1.391   3.028  11.283  0.0037 -0.6412 -0.5263
  122OSM   H13B12903   1.393   3.195  11.300 -0.0679  0.7576 -0.6062
  122OSM   H13C12904   1.535   3.104  11.341 -0.5546  0.6200 -0.0914
  122OSM    C1212905   1.579   3.257  11.119 -0.0360 -0.5656  0.0541
  122OSM   H12A12906   1.661   3.245  11.189 -2.0973  2.4817  3.1136
  122OSM   H12B12907   1.525   3.341  11.160  0.7672  0.4297 -0.8834
  122OSM    C1112908   1.643   3.292  10.977 -0.1124  0.3327 -0.0946
  122OSM   H11A12909   1.671   3.399  10.977 -0.8010  0.5217  0.9716
  122OSM   H11B12910   1.556   3.285  10.907 -0.5744 -1.7430  0.6425
  122OSM      P12911   1.802   3.198  10.790 -0.0396 -0.4612  0.1540
  122OSM    O1312912   1.944   3.150  10.801 -0.1283  0.0115 -0.1011
  122OSM    O1412913   1.715   3.126  10.697  0.6983  0.0510 -0.4651
  122OSM    O1112914   1.803   3.351  10.749 -0.0649  0.1544  0.1012
  122OSM    O1212915   1.740   3.192  10.939  0.5522 -1.1121 -0.3433
  122OSM    C1S12916   1.842   3.396  10.620 -0.4964 -0.6310 -0.9565
  122OSM    H1S12917   1.925   3.337  10.576 -1.6668 -0.0404 -4.0661
  122OSM    H1T12918   1.893   3.495  10.624 -0.2633 -0.7383 -1.2222
  122OSM     NF12919   1.767   3.421  10.381 -0.1512 -0.0920  0.1205
  122OSM    HNF12920   1.752   3.517  10.358  1.0399  0.0919  0.0607
  122OSM    C2S12921   1.726   3.405  10.520 -0.0884  0.3389 -0.3711
  122OSM    H2S12922   1.679   3.304  10.518  0.5922 -0.0278  1.5798
  122OSM    C3S12923   1.615   3.504  10.575 -0.0451  0.7681 -0.1933
  122OSM    H3S12924   1.659   3.606  10.588 -2.7276  2.2719 -2.3620
  122OSM     O312925   1.574   3.469  10.703  0.3927  0.5894  0.5889
  122OSM    HO312926   1.652   3.423  10.735 -0.9312 -1.5678  0.8008
  122OSM    C4S12927   1.505   3.501  10.474 -0.2052 -0.3148  0.4526
  122OSM    H4S12928   1.461   3.404  10.451  1.4664 -1.3489  1.5030
  122OSM    C5S12929   1.463   3.614  10.411  0.0061  0.4042 -0.4866
  122OSM    H5S12930   1.514   3.707  10.440 -0.0606  0.8163 -1.6837
  122OSM    C6S12931   1.352   3.627  10.319 -0.4524 -0.0568  0.8603
  122OSM    H6S12932   1.294   3.717  10.350  1.0390  1.1022  0.3859
  122OSM    H6T12933   1.289   3.536  10.328  1.0979 -1.2220  0.0664
  122OSM    C7S12934   1.403   3.641  10.177  0.2320  0.4000  0.8017
  122OSM    H7S12935   1.406   3.546  10.120  1.3637  1.2014 -0.4967
  122OSM    H7T12936   1.504   3.687  10.175 -0.2622  1.4734  0.6740
  122OSM    C8S12937   1.309   3.725  10.092 -0.4009  0.3829  0.4989
  122OSM    H8S12938   1.300   3.822  10.146  0.3212  1.3310 -1.0340
  122OSM    H8T12939   1.216   3.664  10.087 -0.2217  0.2043 -0.8502
  122OSM    C9S12940   1.380   3.759   9.958 -0.5706 -0.0821 -0.0711
  122OSM    H9S12941   1.422   3.662   9.925 -4.8450 -2.1091  0.1420
  122OSM    H9T12942   1.464   3.829   9.977 -0.2350 -0.7895  1.0921
  122OSM   C10S12943   1.299   3.816   9.838  0.3651 -1.3387  0.0546
  122OSM   H10S12944   1.207   3.755   9.825 -0.1730 -0.6949  0.7896
  122OSM   H10T12945   1.363   3.789   9.751  2.4243 -1.2680  1.5009
  122OSM   C11S12946   1.279   3.971   9.821 -0.0411 -0.1210 -0.3230
  122OSM   H11S12947   1.370   4.031   9.845  0.1956 -0.1028 -1.2775
  122OSM   H11T12948   1.205   3.999   9.900 -0.4462  0.7017 -0.9796
  122OSM   C12S12949   1.230   4.014   9.684 -0.4847  0.2561  0.3263
  122OSM   H12S12950   1.134   3.966   9.655  0.0031 -0.1436 -0.6364
  122OSM   H12T12951   1.310   3.995   9.610 -0.8037  3.4919 -0.9332
  122OSM   C13S12952   1.211   4.173   9.675  0.0794 -0.6436 -0.3819
  122OSM   H13S12953   1.289   4.236   9.722 -0.5475  0.7080 -1.1380
  122OSM   H13T12954   1.119   4.198   9.732  0.1233 -1.0095 -0.1467
  122OSM   C14S12955   1.205   4.224   9.537 -0.0051 -0.0321  0.3842
  122OSM   H14S12956   1.106   4.211   9.487  0.3715 -0.5015 -0.2524
  122OSM   H14T12957   1.281   4.169   9.477  1.8002 -0.1183  2.7279
  122OSM   C15S12958   1.242   4.375   9.530 -0.0343 -0.3782 -0.6505
  122OSM   H15S12959   1.350   4.389   9.551  0.9633 -2.6433 -3.8625
  122OSM   H15T12960   1.180   4.433   9.602  1.3626  1.2712 -0.7549
  122OSM   C16S12961   1.209   4.443   9.399  0.3171  0.4098 -0.1620
  122OSM   H16S12962   1.224   4.553   9.408  1.0670  0.3582 -0.7066
  122OSM   H16T12963   1.102   4.425   9.375  0.7536 -3.7564  0.6156
  122OSM   C17S12964   1.303   4.393   9.283 -0.3872 -0.3509  0.0496
  122OSM   H17S12965   1.270   4.288   9.264 -1.5347  0.0454 -0.1930
  122OSM   H17T12966   1.400   4.389   9.337 -0.9805 -0.7269  1.1167
  122OSM   C18S12967   1.305   4.476   9.158  0.5283  0.2160 -0.3441
  122OSM   H18S12968   1.331   4.578   9.193  1.3320 -0.2706  0.5176
  122OSM   H18T12969   1.213   4.491   9.098  0.8505 -0.5549 -1.0542
  122OSM   H18U12970   1.393   4.448   9.096  1.2670  1.9236 -0.0898
  122OSM    C1F12971   1.840   3.336  10.311  0.0801 -0.1410  0.3587
  122OSM     OF12972   1.843   3.212  10.335  0.3019  0.1612  0.2425
  122OSM    C2F12973   1.908   3.390  10.187  0.4029  0.7815 -0.5788
  122OSM    H2F12974   1.903   3.501  10.193 -0.7377  0.6626  1.0087
  122OSM    H2G12975   1.856   3.353  10.096 -0.2741  2.7437 -1.0080
  122OSM    C3F12976   2.058   3.358  10.190 -0.5041 -0.2828 -0.7854
  122OSM    H3F12977   2.072   3.256  10.230  1.6255  0.4544  0.4197
  122OSM    H3G12978   2.105   3.414  10.273  0.6160  1.6670 -2.6868
  122OSM    C4F12979   2.134   3.404  10.071 -0.4563 -0.5269  0.4467
  122OSM    H4F12980   2.243   3.388  10.082 -0.1798 -0.1182 -1.5379
  122OSM    H4G12981   2.108   3.511  10.061 -2.3891 -0.8443  1.7710
  122OSM    C5F12982   2.096   3.320   9.946  0.0653 -0.1815  0.6184
  122OSM    H5F12983   1.990   3.346   9.926 -0.1458 -0.0703  1.8545
  122OSM    H5G12984   2.093   3.212   9.973 -0.1351 -0.1609  0.6794
  122OSM    C6F12985   2.194   3.349   9.829 -0.5703 -0.7460  0.9136
  122OSM    H6F12986   2.167   3.271   9.754 -0.6626 -2.0862  2.3021
  122OSM    H6G12987   2.294   3.333   9.875 -0.3669 -0.1752  0.6793
  122OSM    C7F12988   2.177   3.489   9.769  0.3405  0.1307  0.1318
  122OSM    H7F12989   2.187   3.566   9.849  0.8843 -0.2870  0.4712
  122OSM    H7G12990   2.071   3.494   9.735  0.0072  1.3488  1.2884
  122OSM    C8F12991   2.264   3.520   9.647 -0.3330  0.0636 -0.3085
  122OSM    H8F12992   2.215   3.591   9.578 -1.7072 -0.3800  0.1779
  122OSM    H8G12993   2.246   3.427   9.589 -1.7486 -1.4659  2.4509
  122OSM    C9F12994   2.409   3.531   9.678  0.2498  0.4287  0.8862
  122OSM    H9F12995   2.429   3.490   9.778 -2.2140 -2.2186  0.3501
  122OSM   C10F12996   2.500   3.595   9.608  0.1860 -0.6904 -0.8015
  122OSM   H10F12997   2.605   3.586   9.640 -0.6841 -1.0142  2.1048
  122OSM   C11F12998   2.480   3.655   9.472  0.2824 -0.1632 -0.4008
  122OSM   H11F12999   2.450   3.762   9.474 -2.0630 -0.8103  1.5012
  122OSM   H11G13000   2.393   3.610   9.419  0.8124  0.1087 -1.5177
  122OSM   C12F13001   2.604   3.630   9.381  0.8713 -0.2277 -0.1894
  122OSM   H12F13002   2.623   3.520   9.376  1.0870 -0.1002 -2.9683
  122OSM   H12G13003   2.698   3.674   9.420 -0.2791 -0.5786  3.1881
  122OSM   C13F13004   2.572   3.673   9.235  0.7863 -0.0818 -0.2136
  122OSM   H13F13005   2.542   3.779   9.246 -0.9109 -0.5442 -0.1729
  122OSM   H13G13006   2.487   3.614   9.194  0.6597 -0.8501  1.1059
  122OSM   C14F13007   2.700   3.656   9.153  0.2206  0.1950 -0.9292
  122OSM   H14F13008   2.726   3.549   9.162  0.0597  0.3150  1.2022
  122OSM   H14G13009   2.789   3.713   9.186 -0.6899 -0.0701  2.1988
  122OSM   C15F13010   2.690   3.694   9.006  0.5226 -0.3445 -0.5455
  122OSM   H15F13011   2.696   3.805   9.008  0.0882 -0.3079 -1.0355
  122OSM   H15G13012   2.598   3.660   8.952 -0.3548  0.4479  0.4300
  122OSM   C16F13013   2.803   3.639   8.916  0.0184  0.1181 -1.2372
  122OSM   H16F13014   2.814   3.528   8.921 -0.1104  0.0973 -1.4227
  122OSM   H16G13015   2.893   3.680   8.967  0.4058 -1.6071 -0.5034
  122OSM   C17F13016   2.791   3.685   8.768  0.1105  0.6321  0.6182
  122OSM   H17F13017   2.694   3.651   8.728  0.4227  0.1562  0.2649
  122OSM   H17G13018   2.877   3.635   8.719  1.2134  1.0135  2.1312
  122OSM   C18F13019   2.796   3.836   8.736 -0.3787 -0.2328 -0.2663
  122OSM   H18F13020   2.746   3.848   8.638 -1.0203 -1.5515 -0.1149
  122OSM   H18G13021   2.904   3.861   8.744 -0.7887  1.5611 -0.2446
  122OSM   H18H13022   2.731   3.886   8.811 -1.2008  0.7235 -1.6096
  123OSM      N13023   5.766   3.350   5.891  0.0230  0.7730 -0.4350
  123OSM    C1513024   5.904   3.293   5.911 -0.7824 -0.0853  0.2023
  123OSM   H15A13025   5.906   3.191   5.877  0.0096  0.2821 -0.9232
  123OSM   H15B13026   5.958   3.304   6.004 -0.8410 -1.7719  0.4460
  123OSM   H15C13027   5.970   3.338   5.837  0.3956 -1.9153  0.1137
  123OSM    C1413028   5.778   3.482   5.822 -0.0475 -0.6312 -0.1864
  123OSM   H14A13029   5.681   3.527   5.805  1.0274  0.4092 -4.2397
  123OSM   H14B13030   5.817   3.482   5.721 -2.3098  1.9084 -1.1371
  123OSM   H14C13031   5.839   3.552   5.877  1.2704 -2.2679  0.4453
  123OSM    C1313032   5.696   3.251   5.799 -0.2248 -0.6466  0.0232
  123OSM   H13A13033   5.694   3.154   5.848  1.0693 -1.1802 -0.9291
  123OSM   H13B13034   5.758   3.230   5.713 -1.3329  0.1317 -0.9791
  123OSM   H13C13035   5.596   3.286   5.779  0.2115 -0.4203 -1.8036
  123OSM    C1213036   5.700   3.364   6.027  0.0694  0.7337  0.4277
  123OSM   H12A13037   5.758   3.424   6.096  2.6238  0.9245 -1.7814
  123OSM   H12B13038   5.701   3.271   6.081  0.3885  0.2582 -0.3851
  123OSM    C1113039   5.558   3.421   6.037 -0.0169  0.8671 -0.1602
  123OSM   H11A13040   5.553   3.513   5.973 -1.7168  1.0912  0.2606
  123OSM   H11B13041   5.540   3.449   6.143 -0.7987  0.9650 -0.3153
  123OSM      P13042   5.434   3.197   6.062 -0.2612  0.0234 -0.1025
  123OSM    O1313043   5.301   3.143   6.028 -0.7250  0.7101 -0.5309
  123OSM    O1413044   5.549   3.100   6.060  0.2125 -0.1475  0.4746
  123OSM    O1113045   5.427   3.251   6.210  0.5838  0.0762 -0.4670
  123OSM    O1213046   5.467   3.324   5.979  0.6670  0.7576  0.0509
  123OSM    C1S13047   5.305   3.310   6.272 -0.0033 -1.0689 -0.8868
  123OSM    H1S13048   5.221   3.239   6.256 -1.1972 -0.8268  3.8078
  123OSM    H1T13049   5.284   3.407   6.221 -3.7917 -1.2087  0.3179
  123OSM     NF13050   5.186   3.382   6.463  0.2618 -0.3314 -0.2117
  123OSM    HNF13051   5.176   3.480   6.481  3.3732 -0.2756  1.5257
  123OSM    C2S13052   5.320   3.348   6.421 -0.0199  0.6086  0.1181
  123OSM    H2S13053   5.357   3.257   6.472  2.3868  0.4921 -1.7722
  123OSM    C3S13054   5.422   3.463   6.438  0.4877 -0.1312  0.0191
  123OSM    H3S13055   5.372   3.558   6.410 -0.5923 -0.4499  0.8439
  123OSM     O313056   5.537   3.447   6.362  0.0485  0.7455  0.2135
  123OSM    HO313057   5.521   3.361   6.322  1.2265  1.4824 -1.9104
  123OSM    C4S13058   5.463   3.471   6.579 -0.0387  0.4260  0.1228
  123OSM    H4S13059   5.521   3.382   6.608 -1.9734 -1.5330 -1.7726
  123OSM    C5S13060   5.445   3.581   6.654 -0.2666 -0.2178  0.1147
  123OSM    H5S13061   5.402   3.675   6.616  2.7457  0.3906 -1.9418
  123OSM    C6S13062   5.485   3.588   6.797  0.0602 -0.7087 -0.5644
  123OSM    H6S13063   5.397   3.629   6.850 -0.4530 -2.2422 -0.2176
  123OSM    H6T13064   5.569   3.658   6.814  0.7894 -0.9977 -2.7480
  123OSM    C7S13065   5.505   3.456   6.867 -0.0732 -0.5052 -0.0015
  123OSM    H7S13066   5.598   3.404   6.835 -0.2916  0.4992 -2.4197
  123OSM    H7T13067   5.418   3.392   6.841 -0.4274  0.5895 -1.5827
  123OSM    C8S13068   5.516   3.460   7.024 -0.1723 -0.0801 -0.9683
  123OSM    H8S13069   5.415   3.463   7.070  0.3826 -0.2598  0.2777
  123OSM    H8T13070   5.567   3.552   7.061 -0.4824 -1.1328  2.2085
  123OSM    C9S13071   5.607   3.354   7.083  0.5147  0.1565 -0.0818
  123OSM    H9S13072   5.710   3.361   7.042  0.7089 -0.6838  0.2471
  123OSM    H9T13073   5.575   3.254   7.045  0.7349  0.0712 -0.0450
  123OSM   C10S13074   5.605   3.364   7.236 -0.0839  0.2370  0.3513
  123OSM   H10S13075   5.499   3.353   7.264  0.3631 -0.2320  1.8860
  123OSM   H10T13076   5.634   3.462   7.280  1.5862  0.3440 -0.9231
  123OSM   C11S13077   5.690   3.259   7.313  0.2779  0.2796  0.2652
  123OSM   H11S13078   5.794   3.296   7.327 -0.2561  1.9343 -0.0109
  123OSM   H11T13079   5.679   3.160   7.262  0.0351 -0.2264  1.2870
  123OSM   C12S13080   5.635   3.223   7.453  0.5360 -0.7252 -0.4110
  123OSM   H12S13081   5.707   3.164   7.513  0.0259 -1.5965 -0.6392
  123OSM   H12T13082   5.542   3.163   7.438  0.5498 -0.9611  0.4467
  123OSM   C13S13083   5.583   3.352   7.533  0.6547  0.1286 -0.6691
  123OSM   H13S13084   5.532   3.417   7.458  0.0220  2.4584  1.7048
  123OSM   H13T13085   5.678   3.403   7.563  0.8325 -0.0709 -0.8906
  123OSM   C14S13086   5.492   3.319   7.647  0.1177 -0.2220 -0.8947
  123OSM   H14S13087   5.403   3.269   7.603 -0.2265 -3.7886  3.4789
  123OSM   H14T13088   5.456   3.410   7.700  0.5504 -0.5902  0.0449
  123OSM   C15S13089   5.554   3.230   7.757  0.2833  0.5317  1.0463
  123OSM   H15S13090   5.643   3.285   7.793  0.4525  0.8196  0.2049
  123OSM   H15T13091   5.580   3.138   7.699  0.5465 -1.0502  3.5805
  123OSM   C16S13092   5.461   3.187   7.866 -0.3985 -0.3883 -0.5429
  123OSM   H16S13093   5.374   3.131   7.825 -2.2467  1.9424  0.0900
  123OSM   H16T13094   5.419   3.280   7.909  2.5376  1.4046 -1.4520
  123OSM   C17S13095   5.530   3.101   7.970  0.5497  0.1360  0.6223
  123OSM   H17S13096   5.626   3.154   7.988  0.4128  1.0529 -1.2784
  123OSM   H17T13097   5.556   3.004   7.922  2.4717  1.5160 -1.2209
  123OSM   C18S13098   5.444   3.084   8.096 -0.1281 -0.0634  0.1020
  123OSM   H18S13099   5.429   3.183   8.144 -0.2736  2.1502 -4.3051
  123OSM   H18T13100   5.492   3.022   8.176 -0.2611 -2.9247 -1.9668
  123OSM   H18U13101   5.342   3.040   8.088  0.2159 -1.4263  2.5943
  123OSM    C1F13102   5.084   3.294   6.474 -0.2543 -0.1407 -0.1934
  123OSM     OF13103   5.112   3.174   6.455  0.0275  0.1906  0.0449
  123OSM    C2F13104   4.942   3.338   6.510 -0.0579  0.2241 -0.2473
  123OSM    H2F13105   4.870   3.303   6.433  0.4644 -1.0519 -0.1703
  123OSM    H2G13106   4.939   3.449   6.516  0.3952  0.2351 -0.2199
  123OSM    C3F13107   4.897   3.267   6.635 -0.4484 -0.3622  0.3802
  123OSM    H3F13108   4.878   3.160   6.612  0.4125 -0.7491  1.4258
  123OSM    H3G13109   4.797   3.305   6.666  0.0236  0.6523  0.6694
  123OSM    C4F13110   4.993   3.289   6.756 -0.4203  0.1883 -0.1967
  123OSM    H4F13111   5.013   3.398   6.763 -0.7495  0.2682 -0.4987
  123OSM    H4G13112   5.092   3.237   6.757  0.5114  1.9272  1.1942
  123OSM    C5F13113   4.929   3.243   6.887 -0.5153 -0.2304  0.0271
  123OSM    H5F13114   4.899   3.136   6.886 -0.3026 -0.2963  0.5418
  123OSM    H5G13115   4.827   3.287   6.882 -0.1436  0.4252 -2.2737
  123OSM    C6F13116   5.012   3.271   7.017  0.2978 -0.0975  0.1980
  123OSM    H6F13117   5.010   3.383   7.020  1.1088 -0.1097  2.2999
  123OSM    H6G13118   5.118   3.241   7.002  0.9002  2.3082 -0.5971
  123OSM    C7F13119   4.945   3.209   7.140  0.3907 -0.3997  0.6091
  123OSM    H7F13120   4.938   3.100   7.125  0.5090 -0.3610  0.2789
  123OSM    H7G13121   4.839   3.238   7.127  0.9424  0.9860 -0.9277
  123OSM    C8F13122   4.992   3.264   7.284  0.3969 -0.5336  0.8450
  123OSM    H8F13123   4.909   3.239   7.354  0.1358  0.6595  0.9648
  123OSM    H8G13124   4.986   3.374   7.275 -0.3550 -0.6298  0.1628
  123OSM    C9F13125   5.127   3.214   7.318  0.7885 -0.4133  0.5232
  123OSM    H9F13126   5.202   3.222   7.238  0.3899 -0.6204  0.1254
  123OSM   C10F13127   5.169   3.169   7.436  0.1111 -0.3349  1.0239
  123OSM   H10F13128   5.267   3.120   7.447  1.0001  1.3107  0.5626
  123OSM   C11F13129   5.080   3.142   7.552 -0.0847  0.0767  0.5929
  123OSM   H11F13130   5.110   3.045   7.595 -0.5170 -0.2983  0.0570
  123OSM   H11G13131   4.974   3.120   7.529 -0.3004  1.7998 -0.1893
  123OSM   C12F13132   5.070   3.265   7.640 -0.0411 -0.4653 -0.1948
  123OSM   H12F13133   5.026   3.352   7.585  2.9837  1.0068 -0.3577
  123OSM   H12G13134   5.171   3.304   7.664 -0.5280  1.3005 -0.9129
  123OSM   C13F13135   5.003   3.220   7.768 -0.1867 -0.5422 -0.4251
  123OSM   H13F13136   5.054   3.130   7.809  1.0576 -0.2478 -1.2875
  123OSM   H13G13137   4.898   3.185   7.757 -0.3337 -0.5488  0.8492
  123OSM   C14F13138   4.994   3.335   7.875 -0.0098 -0.3661  0.6612
  123OSM   H14F13139   4.944   3.415   7.816  3.2568  0.6742 -0.8029
  123OSM   H14G13140   5.097   3.365   7.902  0.3007  1.2168 -2.0855
  123OSM   C15F13141   4.911   3.301   8.002 -0.5933 -0.8612  0.0773
  123OSM   H15F13142   4.970   3.223   8.054 -0.6336 -1.6560 -1.0423
  123OSM   H15G13143   4.811   3.261   7.978 -0.2090 -1.1722 -1.0397
  123OSM   C16F13144   4.907   3.422   8.100  0.4483 -0.0152  0.1078
  123OSM   H16F13145   4.835   3.497   8.061  0.1725 -1.9120 -3.2276
  123OSM   H16G13146   5.012   3.459   8.101 -0.0478  1.4109 -0.2801
  123OSM   C17F13147   4.879   3.394   8.247 -0.2022  0.1357 -0.2322
  123OSM   H17F13148   4.935   3.475   8.297  0.3615 -1.2873  1.5270
  123OSM   H17G13149   4.930   3.301   8.282  2.9195  1.4983 -0.9723
  123OSM   C18F13150   4.729   3.405   8.275  0.3854 -0.2594  1.0747
  123OSM   H18F13151   4.679   3.330   8.211 -0.3794  1.0661  0.0933
  123OSM   H18G13152   4.703   3.508   8.242 -1.2445 -0.7606  0.7803
  123OSM   H18H13153   4.706   3.392   8.383  1.9493  0.7606  1.5421
  124OSM      N13154   1.123   0.664   6.099 -0.3196  0.3066  0.4167
  124OSM    C1513155   1.051   0.576   6.005 -0.1948 -0.6342 -0.6035
  124OSM   H15A13156   0.947   0.584   6.032  0.2911  2.8207  0.5354
  124OSM   H15B13157   1.073   0.471   6.001  1.5357 -0.3189  0.2520
  124OSM   H15C13158   1.043   0.595   5.899 -0.6854 -2.0347 -0.8240
  124OSM    C1413159   1.068   0.798   6.060 -0.2948 -0.2858  0.3749
  124OSM   H14A13160   1.119   0.879   6.110  0.3272 -1.4890  1.7267
  124OSM   H14B13161   0.963   0.805   6.080 -0.2230 -0.9146  0.9775
  124OSM   H14C13162   1.073   0.810   5.952 -2.3396 -3.4589 -0.1305
  124OSM    C1313163   1.081   0.628   6.232 -0.1250 -0.3079 -0.9144
  124OSM   H13A13164   0.973   0.630   6.233 -0.0932  2.6706  1.0271
  124OSM   H13B13165   1.108   0.692   6.315 -1.0318 -2.7221  1.3283
  124OSM   H13C13166   1.115   0.530   6.262 -1.2757 -1.0739 -2.0552
  124OSM    C1213167   1.277   0.643   6.085  0.6320 -0.1691 -0.0729
  124OSM   H12A13168   1.300   0.661   5.981 -1.9435 -0.7649 -0.7776
  124OSM   H12B13169   1.298   0.539   6.103  3.0226  0.0048 -1.5085
  124OSM    C1113170   1.376   0.714   6.180  0.0054 -0.4400 -0.0491
  124OSM   H11A13171   1.482   0.683   6.171  0.7856  2.4146 -1.0825
  124OSM   H11B13172   1.346   0.682   6.282  1.9440  1.8678  1.2918
  124OSM      P13173   1.315   0.948   6.276  0.3919  0.0289  0.1306
  124OSM    O1313174   1.422   1.040   6.319  0.0856 -0.3225 -0.1221
  124OSM    O1413175   1.196   1.019   6.216  0.0737 -0.1993 -0.0844
  124OSM    O1113176   1.262   0.859   6.394 -0.5750 -0.2596 -0.0818
  124OSM    O1213177   1.378   0.857   6.164  0.5391 -0.6339 -0.2213
  124OSM    C1S13178   1.343   0.825   6.506 -0.0807  0.4592 -0.2411
  124OSM    H1S13179   1.451   0.851   6.495  0.6785  0.5251  5.8092
  124OSM    H1T13180   1.346   0.716   6.527 -0.3945  0.6343  0.7122
  124OSM     NF13181   1.377   0.855   6.757 -0.1424 -0.7590 -0.3962
  124OSM    HNF13182   1.366   0.772   6.812  0.8490 -0.7774 -0.2076
  124OSM    C2S13183   1.288   0.880   6.639 -0.0399 -0.5692 -0.5917
  124OSM    H2S13184   1.283   0.990   6.621  0.4518 -0.3226  0.7411
  124OSM    C3S13185   1.140   0.827   6.658  0.2856  0.5963  0.3395
  124OSM    H3S13186   1.138   0.716   6.668 -1.2794  0.5011 -0.8656
  124OSM     O313187   1.049   0.851   6.547  0.2635 -0.2723 -0.2685
  124OSM    HO313188   1.123   0.868   6.487  1.7286 -1.3021  1.1823
  124OSM    C4S13189   1.081   0.875   6.783  0.2746  0.0112 -0.2466
  124OSM    H4S13190   1.080   0.798   6.861  2.7050 -0.5769 -0.7639
  124OSM    C5S13191   1.020   0.988   6.810  0.8912 -0.6434  0.3731
  124OSM    H5S13192   1.020   1.071   6.737 -0.9640 -0.4952  0.5145
  124OSM    C6S13193   0.961   1.030   6.939  0.3398 -0.7180  0.1812
  124OSM    H6S13194   0.858   1.057   6.905  0.3847 -0.7795 -0.0025
  124OSM    H6T13195   1.005   1.127   6.970  0.2248 -0.0005 -1.7853
  124OSM    C7S13196   0.934   0.931   7.054  0.6114  0.0548  0.4074
  124OSM    H7S13197   1.028   0.902   7.106  0.9798  1.0146  0.2911
  124OSM    H7T13198   0.894   0.838   7.009  2.1712 -0.0717 -0.7575
  124OSM    C8S13199   0.837   0.989   7.159  0.3745 -0.5127 -0.3574
  124OSM    H8S13200   0.732   1.005   7.127  0.8663 -0.8417 -2.1710
  124OSM    H8T13201   0.869   1.088   7.197 -0.8158 -0.0611 -0.5115
  124OSM    C9S13202   0.837   0.897   7.280  0.2042 -0.2277  0.0620
  124OSM    H9S13203   0.944   0.882   7.304 -0.4871 -1.7245  2.3856
  124OSM    H9T13204   0.792   0.796   7.278 -0.0075 -0.1500  0.8045
  124OSM   C10S13205   0.767   0.971   7.401  0.9103  0.1634  0.5339
  124OSM   H10S13206   0.664   0.995   7.369  0.8664  2.0353  1.9584
  124OSM   H10T13207   0.812   1.070   7.424 -0.7929  0.8401  1.0130
  124OSM   C11S13208   0.756   0.877   7.522 -0.2393 -0.7208 -0.0621
  124OSM   H11S13209   0.851   0.823   7.543 -1.1734 -2.3872 -0.0310
  124OSM   H11T13210   0.684   0.799   7.487 -0.2394 -1.0141  0.5869
  124OSM   C12S13211   0.692   0.924   7.645 -1.0201 -0.4292 -0.3835
  124OSM   H12S13212   0.590   0.962   7.622 -1.5474 -0.7316  1.4177
  124OSM   H12T13213   0.738   1.003   7.708 -2.2528  0.8445 -1.0335
  124OSM   C13S13214   0.670   0.804   7.740  0.2027 -0.3179  0.7522
  124OSM   H13S13215   0.770   0.769   7.774  0.2181 -3.5284 -2.2267
  124OSM   H13T13216   0.608   0.723   7.695 -0.1456  0.2424  0.2179
  124OSM   C14S13217   0.576   0.852   7.852  0.4712 -0.2371  0.9330
  124OSM   H14S13218   0.509   0.931   7.812  1.7512  0.2323 -0.2994
  124OSM   H14T13219   0.646   0.892   7.928  1.3163 -3.4977  1.9806
  124OSM   C15S13220   0.500   0.747   7.926  0.2796  0.0208  0.3209
  124OSM   H15S13221   0.568   0.661   7.942  0.2934 -0.6004 -2.7136
  124OSM   H15T13222   0.417   0.720   7.858 -0.9409  1.5653  1.1610
  124OSM   C16S13223   0.432   0.792   8.060 -0.1228 -0.7164 -0.1973
  124OSM   H16S13224   0.341   0.834   8.013  0.5992 -1.3228 -2.1840
  124OSM   H16T13225   0.475   0.880   8.113  0.5640  0.8135 -3.1955
  124OSM   C17S13226   0.397   0.672   8.151  0.8357 -0.1921 -0.3844
  124OSM   H17S13227   0.368   0.595   8.076  2.4292 -0.0057 -1.2114
  124OSM   H17T13228   0.326   0.701   8.231  0.6356  1.6029 -1.2092
  124OSM   C18S13229   0.527   0.616   8.215 -0.1680  0.3861  0.4214
  124OSM   H18S13230   0.583   0.700   8.261  1.0108 -1.4243  2.3555
  124OSM   H18T13231   0.595   0.565   8.144  0.4059  0.7876  0.6804
  124OSM   H18U13232   0.503   0.537   8.288 -2.5897  1.7785  1.1834
  124OSM    C1F13233   1.496   0.918   6.761  0.4777  0.8099 -0.2238
  124OSM     OF13234   1.537   1.004   6.679  0.0381 -0.3068 -0.4080
  124OSM    C2F13235   1.594   0.886   6.865 -0.7086  0.0741 -0.3870
  124OSM    H2F13236   1.674   0.821   6.823  1.6717  1.9893  1.0587
  124OSM    H2G13237   1.527   0.827   6.931 -2.2557  1.0673 -1.0273
  124OSM    C3F13238   1.647   1.014   6.931 -0.0211 -0.2142  0.3845
  124OSM    H3F13239   1.565   1.084   6.958  1.3754  1.6998 -0.2955
  124OSM    H3G13240   1.711   1.069   6.859  1.0414 -2.1914 -0.2379
  124OSM    C4F13241   1.736   0.980   7.055 -0.3481 -0.0265  0.7429
  124OSM    H4F13242   1.766   1.081   7.089 -0.4772  0.6697 -1.1439
  124OSM    H4G13243   1.815   0.908   7.023 -2.0102 -1.6156  0.0722
  124OSM    C5F13244   1.663   0.927   7.178  0.8316  0.7141  0.8088
  124OSM    H5F13245   1.631   0.824   7.152 -1.1426  1.3887  0.4808
  124OSM    H5G13246   1.578   0.990   7.212 -0.4436 -0.7794  0.4406
  124OSM    C6F13247   1.768   0.921   7.291 -0.4862  0.1977  0.4806
  124OSM    H6F13248   1.823   1.017   7.301 -1.3448  0.6620  0.7261
  124OSM    H6G13249   1.838   0.836   7.277 -2.4569 -1.3139 -0.4034
  124OSM    C7F13250   1.693   0.903   7.427  0.6993 -0.9690 -0.0393
  124OSM    H7F13251   1.632   0.810   7.422  1.9119 -1.6861 -2.3609
  124OSM    H7G13252   1.634   0.996   7.431  2.5529  0.2639 -0.5313
  124OSM    C8F13253   1.780   0.906   7.554  0.3681 -0.7284  0.4601
  124OSM    H8F13254   1.724   0.920   7.648 -0.4834 -2.2081  0.1892
  124OSM    H8G13255   1.843   0.997   7.546 -3.8349  2.2090 -0.9812
  124OSM    C9F13256   1.862   0.774   7.567  0.4624 -0.2177  0.1978
  124OSM    H9F13257   1.924   0.763   7.476  1.2720  0.9590  0.5895
  124OSM   C10F13258   1.859   0.690   7.674 -0.1748  0.7503 -0.9870
  124OSM   H10F13259   1.915   0.595   7.670  0.2287  1.0079 -1.4935
  124OSM   C11F13260   1.782   0.710   7.806 -0.1280  0.2243  0.6517
  124OSM   H11F13261   1.675   0.682   7.799  0.2443 -1.3839  1.0632
  124OSM   H11G13262   1.792   0.816   7.837  4.5397  0.4032 -1.0756
  124OSM   C12F13263   1.845   0.626   7.922 -0.1172 -0.0175 -0.4049
  124OSM   H12F13264   1.952   0.657   7.921  0.2035 -1.1085 -1.5278
  124OSM   H12G13265   1.836   0.516   7.907 -1.0257 -0.0596  0.4858
  124OSM   C13F13266   1.792   0.668   8.063 -0.2848  0.2351  0.3334
  124OSM   H13F13267   1.681   0.663   8.066 -0.3453  1.9071  1.6582
  124OSM   H13G13268   1.819   0.775   8.072  1.1408 -0.2064  1.5078
  124OSM   C14F13269   1.870   0.586   8.168  0.1316  0.7103 -0.3653
  124OSM   H14F13270   1.857   0.624   8.272  1.8024 -0.1762  0.1792
  124OSM   H14G13271   1.973   0.602   8.132  0.2325  1.5691  0.2810
  124OSM   C15F13272   1.837   0.434   8.173 -0.6020  0.0881 -0.2198
  124OSM   H15F13273   1.826   0.394   8.070  2.7281  0.9741 -0.9863
  124OSM   H15G13274   1.741   0.423   8.228 -0.5691 -0.5265 -0.2815
  124OSM   C16F13275   1.947   0.354   8.251 -0.5342 -0.1258  0.3504
  124OSM   H16F13276   1.965   0.397   8.352 -0.9904  0.9523 -0.0246
  124OSM   H16G13277   2.043   0.361   8.195  0.9917 -2.7808  2.5018
  124OSM   C17F13278   1.901   0.206   8.266  0.2177 -0.4586  0.2219
  124OSM   H17F13279   1.868   0.177   8.164  1.3987  1.7670 -0.8226
  124OSM   H17G13280   1.806   0.202   8.324 -0.4941 -1.7910 -0.9858
  124OSM   C18F13281   2.008   0.105   8.323 -0.3846  0.0322 -0.5682
  124OSM   H18F13282   2.115   0.135   8.323 -0.0871 -0.9957 -0.9049
  124OSM   H18G13283   1.994   0.003   8.282  0.2864  0.0510 -0.8573
  124OSM   H18H13284   1.989   0.106   8.432 -0.9160  2.0189 -0.6547
  125OSM      N13285   0.576   2.237   6.155 -0.1720 -0.2694 -1.0449
  125OSM    C1513286   0.686   2.266   6.063 -0.1191 -0.5557 -0.3520
  125OSM   H15A13287   0.758   2.343   6.087 -0.1736 -1.1178  1.6820
  125OSM   H15B13288   0.642   2.311   5.974  0.7523  0.0913 -0.4629
  125OSM   H15C13289   0.748   2.184   6.032  0.8476  0.0938 -0.1571
  125OSM    C1413290   0.510   2.366   6.198 -0.0441 -0.7283  0.6089
  125OSM   H14A13291   0.579   2.417   6.263  0.2661  2.0466 -1.8053
  125OSM   H14B13292   0.425   2.351   6.262 -0.1814  2.6971  1.3440
  125OSM   H14C13293   0.488   2.439   6.122 -0.0715  1.4716  2.6768
  125OSM    C1313294   0.478   2.150   6.089  0.5841  0.2890 -0.5737
  125OSM   H13A13295   0.514   2.056   6.049 -1.1977  0.1310 -1.8327
  125OSM   H13B13296   0.417   2.197   6.013  1.3553 -2.8386 -3.2766
  125OSM   H13C13297   0.408   2.118   6.165 -2.0183  1.6832 -2.3093
  125OSM    C1213298   0.638   2.174   6.280  0.6546 -0.0412  0.4168
  125OSM   H12A13299   0.695   2.243   6.340 -0.8951  1.7539 -0.1434
  125OSM   H12B13300   0.703   2.098   6.237  0.2642 -0.5198  0.6722
  125OSM    C1113301   0.540   2.106   6.379 -0.4956 -0.3151  0.5792
  125OSM   H11A13302   0.463   2.181   6.406  0.5229  1.3319 -1.0056
  125OSM   H11B13303   0.602   2.092   6.471 -1.4861 -0.0023  1.3048
  125OSM      P13304   0.563   1.862   6.294  0.1949  0.1316  0.0413
  125OSM    O1313305   0.495   1.789   6.183  0.4862  0.0628  0.0534
  125OSM    O1413306   0.705   1.894   6.284  0.5989  0.4191  0.3465
  125OSM    O1113307   0.530   1.787   6.426 -0.2119 -0.4222 -0.4270
  125OSM    O1213308   0.480   1.991   6.324  0.0056  0.2802 -0.0911
  125OSM    C1S13309   0.608   1.761   6.541 -0.2860 -0.2807  1.0939
  125OSM    H1S13310   0.715   1.787   6.526 -0.4893 -0.9969 -1.9257
  125OSM    H1T13311   0.626   1.651   6.546  1.2193 -0.0082  1.9152
  125OSM     NF13312   0.667   1.821   6.768 -0.5728  0.0358 -0.2386
  125OSM    HNF13313   0.664   1.738   6.824  0.9095 -0.3193 -0.6568
  125OSM    C2S13314   0.555   1.822   6.672 -0.0177 -0.3558 -0.7186
  125OSM    H2S13315   0.521   1.926   6.658 -0.2369 -0.4709 -1.0371
  125OSM    C3S13316   0.426   1.738   6.712 -0.2565  0.3306  0.8843
  125OSM    H3S13317   0.449   1.630   6.703 -0.5770  0.3692 -0.5945
  125OSM     O313318   0.319   1.774   6.621  0.4181 -0.0267  0.3814
  125OSM    HO313319   0.362   1.799   6.539 -0.9703  0.4975 -0.2090
  125OSM    C4S13320   0.390   1.773   6.850 -0.4020  0.0030  0.1444
  125OSM    H4S13321   0.365   1.880   6.858  2.2037  0.4336  3.3136
  125OSM    C5S13322   0.385   1.688   6.951  0.5495  0.2055  0.7300
  125OSM    H5S13323   0.409   1.582   6.936  1.4639  0.5671 -0.4622
  125OSM    C6S13324   0.352   1.723   7.091  0.1167 -0.0846 -0.3282
  125OSM    H6S13325   0.285   1.811   7.087 -4.0956 -3.0608  0.3158
  125OSM    H6T13326   0.445   1.741   7.149 -1.3326  1.5659  1.5731
  125OSM    C7S13327   0.274   1.628   7.176 -0.7401 -0.6050 -0.0225
  125OSM    H7S13328   0.327   1.538   7.213 -1.2409 -0.7523  0.3407
  125OSM    H7T13329   0.189   1.598   7.112  0.1113  0.7458 -1.8191
  125OSM    C8S13330   0.214   1.687   7.300  0.6152 -0.0228  0.2720
  125OSM    H8S13331   0.139   1.611   7.332  1.3319 -0.3508  1.1884
  125OSM    H8T13332   0.171   1.785   7.271 -0.7015 -0.2791  1.3153
  125OSM    C9S13333   0.299   1.709   7.428  0.1315 -0.3235  0.0285
  125OSM    H9S13334   0.389   1.769   7.403 -0.5262  0.1519 -1.2471
  125OSM    H9T13335   0.325   1.609   7.468 -2.1089 -1.0694 -0.2846
  125OSM   C10S13336   0.215   1.790   7.524 -0.7698  0.8664 -0.5480
  125OSM   H10S13337   0.127   1.735   7.563 -0.4876  0.2980 -0.6972
  125OSM   H10T13338   0.180   1.877   7.464  1.3051  2.0934  0.0004
  125OSM   C11S13339   0.297   1.836   7.646  0.0060  0.7516  0.5384
  125OSM   H11S13340   0.266   1.941   7.667 -0.1885  0.6014  0.9983
  125OSM   H11T13341   0.406   1.835   7.622 -0.1244  0.5275 -0.0592
  125OSM   C12S13342   0.290   1.759   7.779 -0.1626 -0.3444  0.1399
  125OSM   H12S13343   0.306   1.649   7.772  0.9747 -0.3251  1.9727
  125OSM   H12T13344   0.191   1.786   7.822 -0.0112  1.7002 -0.7651
  125OSM   C13S13345   0.389   1.817   7.882  0.3939  0.0701  0.0055
  125OSM   H13S13346   0.337   1.872   7.963  1.5652  3.9545 -1.7229
  125OSM   H13T13347   0.456   1.891   7.832 -0.0755  0.1471 -0.5139
  125OSM   C14S13348   0.472   1.706   7.947  0.4059 -0.1392  0.0698
  125OSM   H14S13349   0.528   1.642   7.876 -0.6822 -0.5622 -0.4119
  125OSM   H14T13350   0.393   1.647   7.998  0.2402  1.9612  2.3410
  125OSM   C15S13351   0.572   1.742   8.058 -0.6766  0.2398  0.2481
  125OSM   H15S13352   0.635   1.829   8.034  1.3497 -0.7279  1.8954
  125OSM   H15T13353   0.642   1.656   8.073 -0.7646  0.3796  1.5580
  125OSM   C16S13354   0.500   1.768   8.200  0.2366  0.2586  0.4587
  125OSM   H16S13355   0.421   1.845   8.186  0.8021  1.0814  1.6835
  125OSM   H16T13356   0.561   1.823   8.275  2.4691 -2.0453  0.3648
  125OSM   C17S13357   0.435   1.641   8.259  0.1317 -0.0813 -0.3455
  125OSM   H17S13358   0.513   1.573   8.298 -0.6643 -2.2122 -2.2793
  125OSM   H17T13359   0.369   1.594   8.181  0.4613 -0.0189 -0.6614
  125OSM   C18S13360   0.342   1.677   8.370 -0.0662 -0.1689  0.6342
  125OSM   H18S13361   0.388   1.731   8.455  1.3020 -1.2941  0.6341
  125OSM   H18T13362   0.292   1.584   8.407 -3.0555  1.7463  1.5648
  125OSM   H18U13363   0.254   1.734   8.334  2.3355  1.8774 -2.2279
  125OSM    C1F13364   0.762   1.915   6.783 -0.3144  0.7207  0.6433
  125OSM     OF13365   0.773   2.023   6.717  0.0109  0.1794 -0.0755
  125OSM    C2F13366   0.852   1.869   6.888  0.2182 -0.4293  0.2907
  125OSM    H2F13367   0.940   1.823   6.836 -0.2743 -0.8369 -0.1970
  125OSM    H2G13368   0.815   1.789   6.955  0.9661 -1.6985 -0.7703
  125OSM    C3F13369   0.912   1.978   6.981  0.2244 -0.0391 -0.0097
  125OSM    H3F13370   0.832   2.038   7.030 -1.3675 -1.4150 -0.9061
  125OSM    H3G13371   0.956   2.057   6.917 -3.4009  1.2980 -0.9621
  125OSM    C4F13372   1.022   1.934   7.081  0.1855  0.5799  0.6674
  125OSM    H4F13373   1.060   2.016   7.145  1.3376  1.2068 -0.8100
  125OSM    H4G13374   1.109   1.889   7.030 -0.4122  0.1572  0.0137
  125OSM    C5F13375   0.966   1.825   7.176 -0.3729 -0.1261  0.2038
  125OSM    H5F13376   1.051   1.811   7.246 -0.3764 -1.0231  0.0422
  125OSM    H5G13377   0.942   1.732   7.120 -1.5633  1.1127 -1.3912
  125OSM    C6F13378   0.850   1.878   7.259  0.6535 -0.0610  0.6187
  125OSM    H6F13379   0.757   1.885   7.199  0.8823  0.5726  0.3355
  125OSM    H6G13380   0.873   1.979   7.299  1.1009  0.0739  0.0225
  125OSM    C7F13381   0.823   1.778   7.376  0.6553 -0.4700  0.2593
  125OSM    H7F13382   0.915   1.775   7.438  0.8755 -2.0588 -0.1193
  125OSM    H7G13383   0.808   1.672   7.346  2.5299 -0.2746 -1.4603
  125OSM    C8F13384   0.707   1.839   7.466  0.4407 -0.2113 -0.1894
  125OSM    H8F13385   0.615   1.823   7.406 -0.3746 -0.7316  1.1814
  125OSM    H8G13386   0.733   1.946   7.480  0.2534  0.1803 -2.6274
  125OSM    C9F13387   0.702   1.778   7.603 -0.1082 -0.6883 -0.0973
  125OSM    H9F13388   0.658   1.677   7.603 -1.4096 -0.1304 -0.2538
  125OSM   C10F13389   0.766   1.824   7.719 -0.0208 -0.5091 -0.4926
  125OSM   H10F13390   0.764   1.763   7.811  0.2117  0.0730 -0.1011
  125OSM   C11F13391   0.857   1.945   7.747 -0.0628  0.3241  0.3207
  125OSM   H11F13392   0.821   2.012   7.828 -2.9627 -0.1529 -0.5122
  125OSM   H11G13393   0.875   2.004   7.654 -0.3508 -1.2362 -0.7455
  125OSM   C12F13394   0.999   1.904   7.792 -0.2122  0.4203  0.3489
  125OSM   H12F13395   1.062   1.995   7.782  0.0345  0.2264  0.1339
  125OSM   H12G13396   1.060   1.836   7.728  1.2047 -1.1500  3.2417
  125OSM   C13F13397   1.008   1.859   7.941  1.0133  0.3221 -0.2806
  125OSM   H13F13398   1.111   1.819   7.954  2.4089  3.2005 -1.9502
  125OSM   H13G13399   0.938   1.776   7.965 -0.9343  1.2972 -2.4401
  125OSM   C14F13400   1.000   1.980   8.032  0.5262  0.5553 -0.7446
  125OSM   H14F13401   0.895   1.998   8.065  0.5933 -0.1565 -0.1393
  125OSM   H14G13402   1.022   2.073   7.976 -0.5936  1.6338  0.5728
  125OSM   C15F13403   1.091   1.965   8.154 -0.4317 -0.1268  0.0849
  125OSM   H15F13404   1.195   1.972   8.116 -0.1588 -2.1154  0.4248
  125OSM   H15G13405   1.085   1.857   8.179  0.7228 -0.6344 -1.7556
  125OSM   C16F13406   1.070   2.058   8.271 -0.0652  0.0245  0.1797
  125OSM   H16F13407   0.966   2.039   8.304  0.0934  1.3952  1.5250
  125OSM   H16G13408   1.076   2.156   8.219 -1.6420  0.1242  0.1575
  125OSM   C17F13409   1.159   2.047   8.395 -0.3680 -0.9055  0.2238
  125OSM   H17F13410   1.265   2.022   8.372  0.2186  0.1661  1.6453
  125OSM   H17G13411   1.119   1.966   8.460  0.1911 -0.2189  1.4564
  125OSM   C18F13412   1.171   2.183   8.470  0.1812 -0.3683 -0.0097
  125OSM   H18F13413   1.071   2.208   8.510  0.2151  0.9507 -0.7204
  125OSM   H18G13414   1.209   2.273   8.416  0.6947 -0.1791  0.6641
  125OSM   H18H13415   1.240   2.168   8.556 -0.4835 -0.8175  0.4430
  126OSM      N13416   5.072   1.596   6.628  0.0167  0.0567 -0.5813
  126OSM    C1513417   5.031   1.743   6.627  0.1421  0.3171 -0.2884
  126OSM   H15A13418   4.938   1.763   6.679 -0.3783 -0.4010 -0.9183
  126OSM   H15B13419   5.008   1.777   6.527  1.5456  1.4566 -0.2346
  126OSM   H15C13420   5.110   1.803   6.669  0.2062  1.2091 -1.6696
  126OSM    C1413421   5.049   1.545   6.770  0.3100 -0.1856  0.0960
  126OSM   H14A13422   5.085   1.445   6.790  1.1973  0.3612  1.2493
  126OSM   H14B13423   4.943   1.529   6.785  0.6510 -1.2684  1.4768
  126OSM   H14C13424   5.085   1.613   6.845  0.7989 -0.0078 -0.2986
  126OSM    C1313425   4.980   1.520   6.532 -0.7252 -1.4292 -0.0966
  126OSM   H13A13426   4.884   1.517   6.582  0.1369 -1.0433  1.6104
  126OSM   H13B13427   5.007   1.420   6.502  0.4500 -0.8966 -0.8510
  126OSM   H13C13428   4.975   1.575   6.440 -0.9885 -2.9862 -1.0307
  126OSM    C1213429   5.215   1.584   6.579  0.8149  0.6121 -0.7488
  126OSM   H12A13430   5.235   1.478   6.574  1.5772  0.6065  1.8308
  126OSM   H12B13431   5.285   1.630   6.647  0.7207  1.5054 -1.2435
  126OSM    C1113432   5.253   1.649   6.442 -0.1004 -0.1835 -0.2724
  126OSM   H11A13433   5.166   1.648   6.372 -2.1529  1.0390  2.1595
  126OSM   H11B13434   5.339   1.590   6.403  0.4022  0.6603 -0.4494
  126OSM      P13435   5.435   1.823   6.500  0.3528  0.2540  0.0344
  126OSM    O1313436   5.532   1.736   6.429  0.8405 -0.1540  0.0023
  126OSM    O1413437   5.466   1.969   6.501  0.5783  0.0241 -0.7595
  126OSM    O1113438   5.436   1.769   6.654 -0.3060  0.7880  0.1446
  126OSM    O1213439   5.286   1.787   6.458  0.2295  0.2324  0.0571
  126OSM    C1S13440   5.367   1.849   6.747 -0.5930  0.6321 -0.6456
  126OSM    H1S13441   5.259   1.825   6.744 -0.1623 -1.5540  0.2770
  126OSM    H1T13442   5.388   1.957   6.734 -3.1103  0.9152 -2.6306
  126OSM     NF13443   5.330   1.882   6.991 -0.4945 -0.0247  0.6191
  126OSM    HNF13444   5.355   1.959   7.049 -1.8599  0.7953  0.1368
  126OSM    C2S13445   5.417   1.816   6.894 -0.3316  0.1331 -0.8172
  126OSM    H2S13446   5.405   1.709   6.919 -0.9932  0.6638  1.1983
  126OSM    C3S13447   5.572   1.850   6.904 -0.2788  0.2241 -0.3874
  126OSM    H3S13448   5.577   1.960   6.911 -0.0034  0.4003 -2.8918
  126OSM     O313449   5.651   1.819   6.789 -0.3163 -0.4971 -0.1865
  126OSM    HO313450   5.587   1.800   6.720 -1.9578 -0.4210  1.2516
  126OSM    C4S13451   5.626   1.797   7.028  0.2584 -0.0424 -0.0164
  126OSM    H4S13452   5.598   1.854   7.118 -0.8243 -0.4143 -0.1011
  126OSM    C5S13453   5.703   1.691   7.051 -0.1998  0.4204 -0.5166
  126OSM    H5S13454   5.731   1.630   6.965  1.4188 -0.9349  0.9383
  126OSM    C6S13455   5.760   1.649   7.186 -0.3662 -0.2546  0.4633
  126OSM    H6S13456   5.871   1.639   7.179 -0.1555  1.7653  0.5351
  126OSM    H6T13457   5.721   1.548   7.208  3.8598 -2.9987 -3.8844
  126OSM    C7S13458   5.743   1.738   7.310  0.1568  0.0831 -0.2214
  126OSM    H7S13459   5.634   1.757   7.311  0.1885  0.2458  1.3937
  126OSM    H7T13460   5.787   1.838   7.293 -2.6606  1.3113 -0.5672
  126OSM    C8S13461   5.804   1.674   7.439  0.0093 -0.2438 -0.1707
  126OSM    H8S13462   5.913   1.684   7.422 -0.3920  0.3606 -2.6436
  126OSM    H8T13463   5.779   1.567   7.450  4.4674 -1.4186 -0.5170
  126OSM    C9S13464   5.759   1.753   7.563 -0.1935  0.2149  0.3197
  126OSM    H9S13465   5.649   1.758   7.555 -0.3174  0.3066  2.0838
  126OSM    H9T13466   5.809   1.852   7.564  0.9962 -0.3795  0.4863
  126OSM   C10S13467   5.801   1.686   7.700  0.2521 -0.5113 -0.4562
  126OSM   H10S13468   5.910   1.668   7.708  0.6456  1.8402 -0.2606
  126OSM   H10T13469   5.750   1.587   7.702 -0.3484 -0.1950  0.3748
  126OSM   C11S13470   5.776   1.774   7.824  0.1020 -0.1996 -0.4353
  126OSM   H11S13471   5.665   1.784   7.825 -0.0594 -1.4114 -2.7659
  126OSM   H11T13472   5.824   1.872   7.805  1.9951 -1.0590 -0.2400
  126OSM   C12S13473   5.808   1.704   7.954 -0.1916 -0.5023 -0.2292
  126OSM   H12S13474   5.916   1.677   7.946  0.2015  0.8063  0.5203
  126OSM   H12T13475   5.753   1.607   7.963  0.2903 -0.7575  0.0011
  126OSM   C13S13476   5.794   1.783   8.084 -0.4212  1.2000 -0.3724
  126OSM   H13S13477   5.686   1.794   8.105 -0.2837  3.1440 -0.5477
  126OSM   H13T13478   5.845   1.882   8.079  2.0956 -0.0814 -0.7929
  126OSM   C14S13479   5.850   1.705   8.204  0.7002 -0.1730  0.4357
  126OSM   H14S13480   5.947   1.654   8.182  0.9948 -0.3413  2.0426
  126OSM   H14T13481   5.787   1.616   8.226  0.3792 -0.1629 -0.4343
  126OSM   C15S13482   5.875   1.803   8.324 -0.9283  0.5911  0.2826
  126OSM   H15S13483   5.878   1.907   8.284 -1.4845  0.8958  1.0310
  126OSM   H15T13484   5.975   1.774   8.360 -0.2663  0.7049 -1.4165
  126OSM   C16S13485   5.763   1.804   8.428 -0.2199  0.2524 -0.1378
  126OSM   H16S13486   5.790   1.850   8.526  2.3786 -1.5231  0.0186
  126OSM   H16T13487   5.737   1.700   8.458  0.2288  0.4765  1.0599
  126OSM   C17S13488   5.633   1.864   8.383 -1.1481  1.2163  0.4392
  126OSM   H17S13489   5.606   1.825   8.282 -0.1743  2.9947 -0.5284
  126OSM   H17T13490   5.660   1.971   8.369 -0.4068  0.9227 -0.3506
  126OSM   C18S13491   5.519   1.844   8.480 -0.3510 -0.6442 -0.3257
  126OSM   H18S13492   5.513   1.733   8.488 -0.4504 -0.5667  0.8187
  126OSM   H18T13493   5.420   1.876   8.442 -0.5874 -1.1366 -0.1333
  126OSM   H18U13494   5.547   1.890   8.577  0.4790  0.0437 -0.8793
  126OSM    C1F13495   5.205   1.846   7.002  0.1033 -0.1222  0.3630
  126OSM     OF13496   5.159   1.748   6.954  0.5070  0.0192 -0.2278
  126OSM    C2F13497   5.122   1.952   7.070 -0.6449 -0.7611 -0.3354
  126OSM    H2F13498   5.062   1.994   6.986 -0.4812  0.6585  0.2523
  126OSM    H2G13499   5.188   2.030   7.112 -0.4197 -1.6176  0.9098
  126OSM    C3F13500   5.029   1.896   7.176  0.0224  0.5195 -0.2475
  126OSM    H3F13501   5.087   1.854   7.261 -1.2028  0.1053  0.3940
  126OSM    H3G13502   4.963   1.818   7.133  2.5953 -1.7105 -0.2159
  126OSM    C4F13503   4.943   2.006   7.247  1.1458  0.0170 -0.3475
  126OSM    H4F13504   4.893   2.067   7.168 -0.7072 -1.3600 -0.2672
  126OSM    H4G13505   5.021   2.065   7.299  1.7956 -1.5884  0.5041
  126OSM    C5F13506   4.835   1.961   7.341 -0.2323 -1.0334 -0.4583
  126OSM    H5F13507   4.765   1.891   7.290 -1.1572  0.0396 -0.6595
  126OSM    H5G13508   4.786   2.056   7.370  3.9261  0.5388  1.9718
  126OSM    C6F13509   4.885   1.899   7.472  0.3773  0.2886 -0.1505
  126OSM    H6F13510   4.960   1.959   7.528  2.4119 -2.8525  0.6239
  126OSM    H6G13511   4.941   1.811   7.434 -1.5068 -0.8780 -0.2929
  126OSM    C7F13512   4.770   1.850   7.558 -0.1568  0.5544  0.0459
  126OSM    H7F13513   4.681   1.808   7.506 -1.2026  1.7083  0.8894
  126OSM    H7G13514   4.739   1.935   7.622 -0.9246  1.8958 -2.0740
  126OSM    C8F13515   4.806   1.739   7.651 -0.1319 -0.4330 -0.1472
  126OSM    H8F13516   4.838   1.659   7.581  1.1454  0.0697 -0.1500
  126OSM    H8G13517   4.716   1.697   7.701  0.1146  1.2421  1.7373
  126OSM    C9F13518   4.914   1.772   7.749  0.1107  0.0427 -0.8801
  126OSM    H9F13519   5.018   1.752   7.720 -0.1777 -1.3446 -0.9553
  126OSM   C10F13520   4.888   1.835   7.867 -0.5575 -0.2908  0.0318
  126OSM   H10F13521   4.967   1.858   7.940 -1.4036  3.6370 -0.2003
  126OSM   C11F13522   4.748   1.882   7.911 -0.2842  0.7399  0.0137
  126OSM   H11F13523   4.678   1.864   7.827  1.1171  1.0972 -1.2419
  126OSM   H11G13524   4.740   1.991   7.928  2.6360  1.0822 -0.5871
  126OSM   C12F13525   4.703   1.804   8.038  0.6146 -0.0852 -0.4631
  126OSM   H12F13526   4.702   1.693   8.025 -1.2425 -0.3736  1.7227
  126OSM   H12G13527   4.602   1.837   8.072  1.4165  2.0585 -0.1217
  126OSM   C13F13528   4.795   1.836   8.156 -0.4362 -0.3836 -0.0396
  126OSM   H13F13529   4.789   1.945   8.175  2.8241  0.2429 -2.2242
  126OSM   H13G13530   4.901   1.827   8.122 -0.4304  0.1955 -0.1797
  126OSM   C14F13531   4.761   1.760   8.288  0.2361 -0.5939  0.8473
  126OSM   H14F13532   4.759   1.652   8.262 -2.0906 -0.1351 -1.0236
  126OSM   H14G13533   4.653   1.782   8.305 -0.1491 -0.5312 -1.4414
  126OSM   C15F13534   4.845   1.806   8.406 -0.0391  0.1865  0.2218
  126OSM   H15F13535   4.842   1.916   8.413  2.4592  0.1943  1.9766
  126OSM   H15G13536   4.952   1.783   8.384  0.4671  3.7916 -1.4914
  126OSM   C16F13537   4.806   1.744   8.541  0.5205 -0.0024  0.1133
  126OSM   H16F13538   4.697   1.760   8.555  0.1509 -1.5033 -0.9996
  126OSM   H16G13539   4.861   1.789   8.626 -0.4920 -0.1939  0.8804
  126OSM   C17F13540   4.846   1.592   8.546  0.0635 -0.3179  0.2829
  126OSM   H17F13541   4.956   1.577   8.540  0.2548  1.5330 -1.1698
  126OSM   H17G13542   4.791   1.534   8.469 -2.2382  0.6875  1.1249
  126OSM   C18F13543   4.805   1.520   8.676 -0.5207 -0.3521  0.4892
  126OSM   H18F13544   4.857   1.571   8.760 -0.5380 -1.4343  1.1610
  126OSM   H18G13545   4.828   1.412   8.682  0.9534 -0.1171 -0.8081
  126OSM   H18H13546   4.697   1.541   8.695 -0.4683 -0.3269  0.7715
  127OSM      N13547   0.054   0.139   5.900 -0.0506  0.3268  0.2689
  127OSM    C1513548   0.185   0.201   5.861  0.5265 -0.5311 -0.6802
  127OSM   H15A13549   0.162   0.274   5.785  2.8557 -1.0340 -1.9187
  127OSM   H15B13550   0.251   0.122   5.828 -0.0599 -1.3651  0.1386
  127OSM   H15C13551   0.242   0.259   5.933 -1.9734  1.2235 -0.0560
  127OSM    C1413552  -0.036   0.248   5.942  0.8118 -0.0625 -0.2622
  127OSM   H14A13553  -0.062   0.329   5.875 -1.1603  0.3732  0.9681
  127OSM   H14B13554   0.010   0.300   6.025 -1.0846 -0.7238  1.2305
  127OSM   H14C13555  -0.137   0.217   5.965  0.7547 -1.0754 -1.7697
  127OSM    C1313556   0.002   0.067   5.777 -0.0924 -0.9156 -0.3746
  127OSM   H13A13557  -0.039   0.137   5.705  0.2080 -0.7144 -0.3499
  127OSM   H13B13558  -0.088   0.011   5.796 -0.6606 -0.1640 -0.8287
  127OSM   H13C13559   0.077   0.008   5.727  0.1439 -1.1662  0.2698
  127OSM    C1213560   0.075   0.037   6.011  0.1940  0.3159  0.3467
  127OSM   H12A13561   0.145  -0.035   5.970 -0.2605  0.6564 -1.0675
  127OSM   H12B13562  -0.016  -0.020   6.023 -1.2468  2.3015 -0.7871
  127OSM    C1113563   0.119   0.079   6.158 -0.0587 -0.6692 -0.1841
  127OSM   H11A13564   0.100  -0.011   6.220 -1.9092  1.7373  2.9521
  127OSM   H11B13565   0.049   0.162   6.185  2.3045  0.5247  2.6092
  127OSM      P13566   0.368   0.035   6.185  0.2635  0.3534  0.0765
  127OSM    O1313567   0.359  -0.066   6.078 -0.0591  0.1640  0.1486
  127OSM    O1413568   0.497   0.114   6.192  0.2650 -0.9322  0.4498
  127OSM    O1113569   0.340  -0.039   6.323  0.0033  0.0169  0.8240
  127OSM    O1213570   0.250   0.137   6.159  0.3274 -0.0327  0.4125
  127OSM    C1S13571   0.369   0.038   6.437  0.4622  0.7207 -0.4633
  127OSM    H1S13572   0.314   0.135   6.436 -0.5174  0.1901  0.4528
  127OSM    H1T13573   0.477   0.064   6.438 -0.1742  3.6159 -0.3781
  127OSM     NF13574   0.332   0.050   6.687 -0.2101 -0.5301 -0.5117
  127OSM    HNF13575   0.399   0.028   6.757 -0.5753 -0.8913 -0.2814
  127OSM    C2S13576   0.321  -0.031   6.569  0.5849 -0.2878  0.1771
  127OSM    H2S13577   0.212  -0.050   6.569  0.5703 -0.2026 -0.0556
  127OSM    C3S13578   0.387  -0.176   6.590  0.6206  1.2196  0.4002
  127OSM    H3S13579   0.498  -0.166   6.596  0.9042 -1.4657  0.2100
  127OSM     O313580   0.375  -0.267   6.476 -0.4726  0.5659  0.0829
  127OSM    HO313581   0.344  -0.212   6.403  0.3320  3.3079  1.7130
  127OSM    C4S13582   0.329  -0.241   6.708 -0.0529 -0.3202  0.4635
  127OSM    H4S13583   0.220  -0.244   6.719 -0.3133 -0.8630 -2.1265
  127OSM    C5S13584   0.403  -0.292   6.805  0.6136  0.0889 -0.2248
  127OSM    H5S13585   0.512  -0.280   6.797  0.6082  0.9002  0.8568
  127OSM    C6S13586   0.339  -0.359   6.921  0.5514 -0.1532 -0.3386
  127OSM    H6S13587   0.385  -0.457   6.947  1.6948  0.0996 -1.3154
  127OSM    H6T13588   0.229  -0.372   6.914  0.7744 -2.1231 -0.3616
  127OSM    C7S13589   0.376  -0.277   7.044  0.2838  0.1593  0.1035
  127OSM    H7S13590   0.339  -0.172   7.050  1.3742  0.5239  0.4552
  127OSM    H7T13591   0.487  -0.277   7.044  0.3404 -1.4175 -2.9487
  127OSM    C8S13592   0.319  -0.348   7.165  0.0905  0.2822 -0.1513
  127OSM    H8S13593   0.363  -0.450   7.162  1.9671  1.0857 -0.7674
  127OSM    H8T13594   0.210  -0.364   7.152 -0.0865  1.7451 -0.5505
  127OSM    C9S13595   0.363  -0.283   7.303  0.3293  0.3473 -0.1397
  127OSM    H9S13596   0.311  -0.185   7.304  0.2501  0.3362  2.6361
  127OSM    H9T13597   0.472  -0.265   7.290 -0.1472  1.8298 -2.2726
  127OSM   C10S13598   0.328  -0.368   7.421  0.2545  0.4032 -0.3709
  127OSM   H10S13599   0.407  -0.443   7.444 -2.3028 -2.4917 -0.7662
  127OSM   H10T13600   0.236  -0.426   7.399  0.3936  0.2791 -0.6273
  127OSM   C11S13601   0.294  -0.295   7.551  0.2486 -0.8375  0.4976
  127OSM   H11S13602   0.195  -0.250   7.526  0.0856 -2.4616 -2.0280
  127OSM   H11T13603   0.370  -0.216   7.561 -1.5695  1.0113  0.1041
  127OSM   C12S13604   0.288  -0.379   7.680 -0.4774  0.2679 -0.4751
  127OSM   H12S13605   0.382  -0.431   7.708  0.1760  1.0098 -1.2816
  127OSM   H12T13606   0.193  -0.438   7.676 -2.4600  3.2292  1.2634
  127OSM   C13S13607   0.277  -0.284   7.807 -1.2093 -0.5687 -0.4559
  127OSM   H13S13608   0.185  -0.227   7.785 -0.5435  1.6224  2.2441
  127OSM   H13T13609   0.357  -0.207   7.812 -0.2418 -1.5554 -0.3646
  127OSM   C14S13610   0.267  -0.355   7.941  0.0727  0.0630 -0.0684
  127OSM   H14S13611   0.362  -0.404   7.973  0.8962  0.9300 -1.1506
  127OSM   H14T13612   0.186  -0.431   7.951  0.6341 -0.5461 -0.1185
  127OSM   C15S13613   0.225  -0.252   8.044  0.0679  0.1139  0.0836
  127OSM   H15S13614   0.128  -0.206   8.015 -1.6845 -2.1552  2.1097
  127OSM   H15T13615   0.309  -0.180   8.054 -1.5433  2.1455 -0.5041
  127OSM   C16S13616   0.190  -0.308   8.186  0.1253 -0.7959 -0.2995
  127OSM   H16S13617   0.261  -0.386   8.221  1.8768  1.0687  0.4428
  127OSM   H16T13618   0.092  -0.360   8.187 -0.7127  0.7099  2.2509
  127OSM   C17S13619   0.172  -0.208   8.298  0.3704  0.1661  0.0250
  127OSM   H17S13620   0.139  -0.111   8.255 -1.2422  0.0623  0.9969
  127OSM   H17T13621   0.269  -0.178   8.344 -0.6661 -0.4337  2.7108
  127OSM   C18S13622   0.080  -0.264   8.402  0.1844 -0.0142 -0.5231
  127OSM   H18S13623   0.041  -0.184   8.469  1.7231 -0.1108  0.5002
  127OSM   H18T13624   0.124  -0.343   8.466  2.2350  1.2053 -0.3963
  127OSM   H18U13625  -0.017  -0.292   8.356  1.4471 -3.7489 -1.0918
  127OSM    C1F13626   0.262   0.166   6.697 -0.0789  0.3346  0.1903
  127OSM     OF13627   0.173   0.192   6.617 -0.2436  0.0707  0.4072
  127OSM    C2F13628   0.300   0.255   6.807  0.0719  0.5109 -0.0091
  127OSM    H2F13629   0.376   0.327   6.773 -0.5541  0.5977 -1.2546
  127OSM    H2G13630   0.352   0.193   6.882  0.2276 -0.0660 -0.5856
  127OSM    C3F13631   0.180   0.330   6.869  0.0553 -0.4528 -0.8662
  127OSM    H3F13632   0.094   0.269   6.907  1.2236 -1.4533  0.2059
  127OSM    H3G13633   0.147   0.382   6.777  0.9000 -1.8748 -2.0024
  127OSM    C4F13634   0.217   0.441   6.966  0.1902  0.0828 -0.3264
  127OSM    H4F13635   0.136   0.517   6.971  1.1819  1.2729 -2.0549
  127OSM    H4G13636   0.303   0.494   6.922  0.5471 -0.8871 -0.8110
  127OSM    C5F13637   0.260   0.383   7.098 -0.0407 -0.3307 -0.1217
  127OSM    H5F13638   0.333   0.301   7.082 -0.5026 -0.5003 -1.3974
  127OSM    H5G13639   0.167   0.337   7.138  1.4871 -2.4800  1.0487
  127OSM    C6F13640   0.303   0.487   7.202 -0.6098  0.2677 -0.7920
  127OSM    H6F13641   0.221   0.535   7.261  0.4580  1.7595 -0.5133
  127OSM    H6G13642   0.356   0.571   7.154  1.8530 -0.9727 -0.3019
  127OSM    C7F13643   0.387   0.430   7.320  0.5102  0.6708  0.2121
  127OSM    H7F13644   0.408   0.505   7.399 -0.6467  1.8084 -0.5452
  127OSM    H7G13645   0.488   0.402   7.285  1.2561  0.0391  2.7460
  127OSM    C8F13646   0.344   0.301   7.383 -0.1145  0.3968  0.0993
  127OSM    H8F13647   0.415   0.269   7.463 -1.7791 -1.1900  0.9778
  127OSM    H8G13648   0.360   0.234   7.296 -0.7555  2.8323 -1.9127
  127OSM    C9F13649   0.205   0.311   7.439 -0.2385  0.1704 -0.3360
  127OSM    H9F13650   0.133   0.361   7.372  0.8282  1.7397 -0.3546
  127OSM   C10F13651   0.168   0.274   7.562 -0.0315  0.5186 -0.3300
  127OSM   H10F13652   0.064   0.292   7.593  0.1488  3.1212 -1.1820
  127OSM   C11F13653   0.263   0.202   7.658 -0.3951  0.2568  0.0224
  127OSM   H11F13654   0.370   0.219   7.637  0.3800 -2.6543  1.2677
  127OSM   H11G13655   0.260   0.091   7.653 -3.9133  0.2307  1.3858
  127OSM   C12F13656   0.217   0.219   7.809 -0.7491 -0.2879 -0.1489
  127OSM   H12F13657   0.115   0.187   7.836 -0.3205 -1.8832 -0.3857
  127OSM   H12G13658   0.231   0.328   7.826 -1.3502 -0.0679 -1.0217
  127OSM   C13F13659   0.312   0.137   7.898 -0.7435 -0.5370  0.0693
  127OSM   H13F13660   0.416   0.177   7.899 -1.3716  1.2485 -1.8659
  127OSM   H13G13661   0.309   0.033   7.860 -4.0822 -0.9321  1.2520
  127OSM   C14F13662   0.254   0.129   8.040 -0.0021  0.0860  0.1460
  127OSM   H14F13663   0.297   0.044   8.096  2.1651  0.2464 -1.2348
  127OSM   H14G13664   0.149   0.093   8.028 -0.1127  0.2373  0.6347
  127OSM   C15F13665   0.269   0.253   8.119 -0.1188  0.6337  0.2904
  127OSM   H15F13666   0.219   0.334   8.062 -0.5769  0.2147  0.0892
  127OSM   H15G13667   0.376   0.279   8.135  0.1037  1.8733 -2.9340
  127OSM   C16F13668   0.193   0.231   8.255  0.2821 -0.4546 -0.2378
  127OSM   H16F13669   0.241   0.147   8.309 -1.8035 -1.8995 -0.6011
  127OSM   H16G13670   0.094   0.189   8.229 -1.1823  2.6773 -0.0350
  127OSM   C17F13671   0.176   0.355   8.353 -0.0247  0.3088  0.6992
  127OSM   H17F13672   0.277   0.400   8.365 -0.5118  1.2403  1.4059
  127OSM   H17G13673   0.146   0.323   8.455 -1.1399 -1.8170 -0.2743
  127OSM   C18F13674   0.074   0.454   8.298  0.2035  0.2552 -0.1350
  127OSM   H18F13675  -0.021   0.399   8.282  0.9831 -0.9587 -0.6341
  127OSM   H18G13676   0.096   0.500   8.198 -0.3794 -1.1654 -0.9225
  127OSM   H18H13677   0.059   0.532   8.375  0.9758  1.2882 -1.0056
  128OSM      N13678   2.506   3.076   5.972 -0.4220  0.4770  0.2587
  128OSM    C1513679   2.621   3.091   5.886 -0.5301  0.2421 -0.2866
  128OSM   H15A13680   2.591   3.068   5.785 -0.8805 -0.2165 -0.0815
  128OSM   H15B13681   2.707   3.032   5.916 -1.0263  0.5964  1.9682
  128OSM   H15C13682   2.656   3.193   5.893  0.1784 -0.0161  0.0631
  128OSM    C1413683   2.392   3.134   5.906 -0.3194  0.1369 -0.2409
  128OSM   H14A13684   2.412   3.227   5.854  0.7556  0.6671  1.1114
  128OSM   H14B13685   2.329   3.153   5.991 -0.4280  1.6705 -0.6521
  128OSM   H14C13686   2.347   3.063   5.838 -1.3118  0.7912 -0.2738
  128OSM    C1313687   2.486   2.927   6.001  0.2224  0.5348 -0.7338
  128OSM   H13A13688   2.394   2.933   6.058  1.9237  0.1225  2.1683
  128OSM   H13B13689   2.559   2.891   6.072  0.9129  0.9569 -1.2264
  128OSM   H13C13690   2.481   2.868   5.910  0.8763  2.5987 -2.1384
  128OSM    C1213691   2.541   3.133   6.106 -0.0840 -0.6097 -0.4054
  128OSM   H12A13692   2.558   3.240   6.104 -0.0774 -0.5704  1.0093
  128OSM   H12B13693   2.640   3.102   6.136 -0.6350 -0.2357  1.9565
  128OSM    C1113694   2.439   3.108   6.223 -0.8809 -0.0406  0.7536
  128OSM   H11A13695   2.490   3.155   6.309 -0.7338  1.1797  0.0084
  128OSM   H11B13696   2.412   3.001   6.239  0.3503 -0.1200  2.4492
  128OSM      P13697   2.279   3.315   6.209  0.1273  0.0588  0.1750
  128OSM    O1313698   2.394   3.408   6.185  0.6494 -0.2799  0.2110
  128OSM    O1413699   2.153   3.354   6.142 -0.2288 -0.3830 -0.1696
  128OSM    O1113700   2.253   3.317   6.363  0.0193 -0.3040  0.1858
  128OSM    O1213701   2.321   3.168   6.181  0.7866 -0.5494 -0.1335
  128OSM    C1S13702   2.195   3.200   6.428  0.4179 -0.2044  1.1210
  128OSM    H1S13703   2.285   3.137   6.448 -1.1448 -2.5430  1.0771
  128OSM    H1T13704   2.112   3.152   6.372 -0.3593  0.9970  1.2350
  128OSM     NF13705   2.113   3.117   6.647  0.1174  0.1892  0.1929
  128OSM    HNF13706   2.018   3.086   6.655 -0.4505  0.3760 -4.4005
  128OSM    C2S13707   2.136   3.239   6.568 -0.0039 -0.7063 -0.0307
  128OSM    H2S13708   2.220   3.298   6.612  1.0828 -1.3552 -1.2158
  128OSM    C3S13709   2.017   3.330   6.541  0.1491  0.1400 -0.0976
  128OSM    H3S13710   1.943   3.266   6.488 -1.2167  0.0822  1.8145
  128OSM     O313711   2.042   3.445   6.463  0.1787  0.5528 -0.3309
  128OSM    HO313712   2.134   3.441   6.438  0.0977 -0.1969 -0.5138
  128OSM    C4S13713   1.952   3.368   6.675  0.2443 -0.4013 -0.2072
  128OSM    H4S13714   1.891   3.286   6.715 -0.2142  0.0542  0.0304
  128OSM    C5S13715   1.978   3.477   6.747 -0.5835  0.1874  0.4654
  128OSM    H5S13716   2.053   3.549   6.711 -0.1466 -0.1572  0.6792
  128OSM    C6S13717   1.927   3.511   6.879 -0.5888 -0.3076  0.7213
  128OSM    H6S13718   1.852   3.431   6.898 -0.2740 -0.3780  1.6903
  128OSM    H6T13719   1.890   3.616   6.873  0.8537  0.1706  0.0707
  128OSM    C7S13720   2.031   3.503   6.990 -0.4382  0.2901 -0.1755
  128OSM    H7S13721   2.137   3.525   6.966 -0.4488  1.9264  1.2604
  128OSM    H7T13722   2.035   3.393   7.010 -0.8753  0.1986 -0.5855
  128OSM    C8S13723   1.994   3.573   7.127  0.1607  1.1106 -0.3609
  128OSM    H8S13724   1.898   3.536   7.168  0.3151 -0.0697 -1.0419
  128OSM    H8T13725   1.991   3.682   7.109  2.5310  1.3830  0.7512
  128OSM    C9S13726   2.089   3.545   7.242  0.3279 -0.5854 -0.5097
  128OSM    H9S13727   2.191   3.582   7.218 -0.3421  1.2485 -0.6256
  128OSM    H9T13728   2.099   3.435   7.256 -0.5175 -0.4678  1.0927
  128OSM   C10S13729   2.052   3.597   7.381  0.0788  0.6608  0.0887
  128OSM   H10S13730   1.950   3.576   7.420  0.8550 -3.2383  0.2286
  128OSM   H10T13731   2.065   3.706   7.399 -1.1228  0.7271  0.5992
  128OSM   C11S13732   2.124   3.520   7.490  0.2642 -0.3833 -0.3532
  128OSM   H11S13733   2.233   3.527   7.467 -0.0551 -0.5522 -2.0001
  128OSM   H11T13734   2.098   3.413   7.493  1.9185 -0.7858  0.5365
  128OSM   C12S13735   2.115   3.590   7.627  0.2166  0.0467 -0.2549
  128OSM   H12S13736   2.008   3.608   7.650  0.5532  0.9519  0.6151
  128OSM   H12T13737   2.168   3.688   7.626  0.7873 -0.2550  0.4328
  128OSM   C13S13738   2.178   3.510   7.755 -0.0511  0.5679 -0.2526
  128OSM   H13S13739   2.282   3.474   7.738 -0.9754 -1.2842 -2.2432
  128OSM   H13T13740   2.122   3.414   7.749  0.4686  0.1479  1.5290
  128OSM   C14S13741   2.170   3.594   7.878 -0.4086 -0.8822 -0.4133
  128OSM   H14S13742   2.065   3.630   7.880 -0.2466 -0.4385  0.5768
  128OSM   H14T13743   2.236   3.683   7.877 -0.9312 -0.3919  2.8548
  128OSM   C15S13744   2.204   3.533   8.016 -0.2328  0.5109 -0.5706
  128OSM   H15S13745   2.304   3.484   8.017 -0.1217  0.6086 -3.3184
  128OSM   H15T13746   2.138   3.444   8.028 -0.1513  0.6725  1.1304
  128OSM   C16S13747   2.179   3.631   8.123  0.8939 -0.2519 -0.6246
  128OSM   H16S13748   2.068   3.636   8.127  0.9564  1.1293 -0.3005
  128OSM   H16T13749   2.213   3.736   8.107 -1.8938  0.5432 -1.7157
  128OSM   C17S13750   2.219   3.582   8.261 -0.1483  0.0856  0.2024
  128OSM   H17S13751   2.261   3.672   8.311 -1.1921  0.8016 -0.2046
  128OSM   H17T13752   2.299   3.505   8.254 -1.3173 -0.9612 -1.8119
  128OSM   C18S13753   2.099   3.536   8.350 -0.2669 -0.5269 -0.1443
  128OSM   H18S13754   2.033   3.622   8.373  0.4838  0.6120 -2.1137
  128OSM   H18T13755   2.129   3.469   8.433  2.4405 -0.4994 -1.0446
  128OSM   H18U13756   2.043   3.460   8.291  1.3017 -0.2558 -2.0463
  128OSM    C1F13757   2.206   3.048   6.707 -0.6547  0.6118 -0.0894
  128OSM     OF13758   2.326   3.081   6.701  0.1617 -0.1128 -0.1797
  128OSM    C2F13759   2.150   2.924   6.779 -0.1123  0.1023  0.0306
  128OSM    H2F13760   2.242   2.866   6.800  0.2603  0.9230  0.7004
  128OSM    H2G13761   2.084   2.866   6.711 -0.7358 -3.5411  3.5219
  128OSM    C3F13762   2.081   2.964   6.911  0.2437  0.3523 -0.1985
  128OSM    H3F13763   1.986   3.019   6.890  0.6512  1.8356  1.7636
  128OSM    H3G13764   2.150   3.036   6.959  1.1046  0.8590 -2.1293
  128OSM    C4F13765   2.057   2.839   6.997  0.1079 -0.5297 -0.1833
  128OSM    H4F13766   2.147   2.775   7.010 -0.2651 -1.0961 -0.3888
  128OSM    H4G13767   1.970   2.790   6.949  1.7467 -1.8786 -1.8318
  128OSM    C5F13768   2.031   2.892   7.142 -0.2948  1.1968 -0.3717
  128OSM    H5F13769   1.945   2.960   7.127 -0.2827  1.2102 -0.3800
  128OSM    H5G13770   2.110   2.959   7.182 -0.6687  1.1507  0.4566
  128OSM    C6F13771   1.988   2.776   7.237  0.2230 -0.2452  0.3286
  128OSM    H6F13772   2.049   2.688   7.207  2.6591  1.2094  0.9593
  128OSM    H6G13773   1.881   2.756   7.213 -0.6893  1.9337  2.4307
  128OSM    C7F13774   1.997   2.823   7.386  0.0459  0.0545  0.3457
  128OSM    H7F13775   1.971   2.931   7.382  0.0456 -0.0273 -2.9687
  128OSM    H7G13776   2.102   2.813   7.421  0.2905  1.8702  0.1953
  128OSM    C8F13777   1.899   2.750   7.477  0.0798  0.3406  0.3079
  128OSM    H8F13778   1.799   2.760   7.430 -0.0801  2.3849  1.0521
  128OSM    H8G13779   1.906   2.800   7.576 -0.5844  1.3499 -0.1489
  128OSM    C9F13780   1.938   2.606   7.475 -0.4327  0.2692 -0.4465
  128OSM    H9F13781   1.916   2.543   7.388 -0.9406  0.4570 -0.4587
  128OSM   C10F13782   1.999   2.538   7.578 -0.8992  0.3202  0.6043
  128OSM   H10F13783   2.036   2.436   7.562 -0.3419  0.6438 -0.1876
  128OSM   C11F13784   2.038   2.598   7.713 -0.3796  0.5203 -0.6233
  128OSM   H11F13785   2.069   2.704   7.701  1.1786 -0.0753 -1.9682
  128OSM   H11G13786   2.118   2.537   7.759 -0.8243  1.1315  1.0006
  128OSM   C12F13787   1.902   2.605   7.801  0.2003 -0.4879 -0.3539
  128OSM   H12F13788   1.862   2.503   7.822 -2.6043  0.5361 -0.4245
  128OSM   H12G13789   1.824   2.667   7.752  1.0787  1.5293  0.7251
  128OSM   C13F13790   1.914   2.672   7.944  0.1999 -0.1596  0.3163
  128OSM   H13F13791   1.819   2.634   7.986 -0.7874 -0.7763 -2.3650
  128OSM   H13G13792   1.907   2.783   7.938 -1.6691 -0.2610  0.3702
  128OSM   C14F13793   2.030   2.613   8.029 -0.2858 -0.2036  0.0850
  128OSM   H14F13794   2.124   2.660   7.994 -0.3466  1.1358  1.6591
  128OSM   H14G13795   2.016   2.506   8.000 -1.2736 -0.4881  1.5298
  128OSM   C15F13796   2.016   2.636   8.180 -0.0518  0.7850 -0.2704
  128OSM   H15F13797   1.918   2.597   8.217 -0.2349 -1.0219 -2.5479
  128OSM   H15G13798   2.014   2.743   8.211  0.8291  0.3457  1.3802
  128OSM   C16F13799   2.118   2.550   8.257  0.3862  0.4837 -0.3364
  128OSM   H16F13800   2.222   2.579   8.229  0.9678 -1.1180  0.0999
  128OSM   H16G13801   2.094   2.449   8.220  1.1132  0.8172 -1.7677
  128OSM   C17F13802   2.095   2.553   8.410 -0.1887 -0.5699 -0.4014
  128OSM   H17F13803   2.161   2.475   8.454 -0.9231 -0.2584  1.3135
  128OSM   H17G13804   1.989   2.539   8.439 -0.2032 -1.3956 -0.8569
  128OSM   C18F13805   2.134   2.680   8.488 -0.7431 -0.6269  0.1277
  128OSM   H18F13806   2.245   2.680   8.491 -0.6923 -1.0249 -1.4169
  128OSM   H18G13807   2.107   2.675   8.596  1.5329  0.8463  0.7985
  128OSM   H18H13808   2.105   2.772   8.434  0.9570 -0.5029 -0.5956
  129OSM      N13809   6.366   6.130   6.154  0.4566  0.1412  0.1183
  129OSM    C1513810   6.413   6.185   6.030  0.0200  0.7051 -0.7795
  129OSM   H15A13811   6.357   6.275   6.010 -0.3446  0.8166  0.6916
  129OSM   H15B13812   6.404   6.118   5.946 -1.9531 -0.7789  0.5476
  129OSM   H15C13813   6.516   6.217   6.028  0.5668 -0.9816 -0.5959
  129OSM    C1413814   6.212   6.120   6.144  0.2325 -0.4735  0.3853
  129OSM   H14A13815   6.174   6.221   6.157  1.8910  0.2068  0.0777
  129OSM   H14B13816   6.170   6.067   6.228 -1.9932  0.3541 -0.1672
  129OSM   H14C13817   6.184   6.092   6.044  1.0718 -0.5073  0.1575
  129OSM    C1313818   6.410   5.990   6.156  0.6667  0.1466 -0.5058
  129OSM   H13A13819   6.390   5.935   6.247  0.4734 -1.4442 -1.4846
  129OSM   H13B13820   6.517   5.991   6.141  0.5979  0.0408 -0.9905
  129OSM   H13C13821   6.354   5.938   6.080  1.0144 -0.5123 -0.3137
  129OSM    C1213822   6.407   6.215   6.270 -0.3557 -0.2933 -0.1166
  129OSM   H12A13823   6.511   6.240   6.260 -0.0629 -0.9888  1.0363
  129OSM   H12B13824   6.400   6.155   6.360  1.3171 -1.2918 -0.6279
  129OSM    C1113825   6.351   6.364   6.284  0.1184 -0.2487 -0.2867
  129OSM   H11A13826   6.348   6.407   6.386  0.6056  0.4834 -0.5795
  129OSM   H11B13827   6.245   6.351   6.254  1.0246 -0.6906 -3.5582
  129OSM      P13828   6.564   6.485   6.188 -0.3768  0.0981 -0.1939
  129OSM    O1313829   6.642   6.361   6.165  0.2394 -0.3287  0.0377
  129OSM    O1413830   6.587   6.604   6.109 -0.2837  0.0109  0.4048
  129OSM    O1113831   6.574   6.516   6.342 -0.5422 -0.2086  0.3766
  129OSM    O1213832   6.405   6.456   6.184 -0.5771  0.4065 -0.0142
  129OSM    C1S13833   6.540   6.654   6.381 -0.2882 -0.1711 -0.0306
  129OSM    H1S13834   6.431   6.667   6.364  0.0341  1.5999 -0.7970
  129OSM    H1T13835   6.600   6.727   6.323 -1.2809  1.2764  0.7658
  129OSM     NF13836   6.506   6.809   6.571 -0.0008 -0.2918 -0.6384
  129OSM    HNF13837   6.565   6.888   6.586 -0.1951 -0.2522 -0.0561
  129OSM    C2S13838   6.568   6.678   6.533  0.0410  0.3653  0.1015
  129OSM    H2S13839   6.526   6.596   6.595  2.0175 -0.3066  0.5825
  129OSM    C3S13840   6.720   6.671   6.559 -0.1914  0.6140 -0.0186
  129OSM    H3S13841   6.768   6.753   6.501  0.9870 -0.5852 -0.7599
  129OSM     O313842   6.775   6.554   6.508 -0.3701 -0.1973  0.3196
  129OSM    HO313843   6.715   6.540   6.435  3.4665 -1.7048 -2.7224
  129OSM    C4S13844   6.755   6.691   6.709 -0.1050  0.6164 -0.4964
  129OSM    H4S13845   6.768   6.795   6.743 -1.2080  0.8869 -0.8807
  129OSM    C5S13846   6.746   6.599   6.800 -0.3326  0.1392  0.3366
  129OSM    H5S13847   6.729   6.496   6.765 -0.6888  0.4735 -0.4694
  129OSM    C6S13848   6.769   6.619   6.952  0.0009 -0.0576  0.5210
  129OSM    H6S13849   6.833   6.539   6.995  1.1756  0.9094  0.6035
  129OSM    H6T13850   6.666   6.607   6.993 -0.0557  2.5480  1.2301
  129OSM    C7S13851   6.811   6.760   6.990  0.1839  0.3086 -0.7823
  129OSM    H7S13852   6.733   6.833   6.962  1.4457  0.2306 -4.7983
  129OSM    H7T13853   6.908   6.787   6.943  0.1139  1.1218 -0.4570
  129OSM    C8S13854   6.845   6.765   7.140 -0.4202  0.5537 -0.0168
  129OSM    H8S13855   6.901   6.850   7.185  3.2193 -1.7877  0.1479
  129OSM    H8T13856   6.909   6.676   7.160 -0.8940  0.7327  2.3824
  129OSM    C9S13857   6.723   6.746   7.227  0.6108 -0.1506 -0.1228
  129OSM    H9S13858   6.682   6.644   7.214  0.1294  0.2807 -2.0919
  129OSM    H9T13859   6.645   6.821   7.201  3.0822  3.0050  1.2472
  129OSM   C10S13860   6.759   6.764   7.374 -0.0590 -0.5744 -0.3811
  129OSM   H10S13861   6.790   6.869   7.396  1.2536 -0.9414 -0.4244
  129OSM   H10T13862   6.850   6.705   7.397  0.7435  0.4218 -0.9415
  129OSM   C11S13863   6.646   6.725   7.478 -0.3247 -0.0698  0.2738
  129OSM   H11S13864   6.613   6.625   7.444  0.5871  0.8153 -3.3768
  129OSM   H11T13865   6.561   6.796   7.465 -1.9093 -2.0354 -0.3030
  129OSM   C12S13866   6.705   6.735   7.618  0.1815  0.0977 -0.7980
  129OSM   H12S13867   6.763   6.830   7.621  1.1318 -0.5097  0.3081
  129OSM   H12T13868   6.783   6.656   7.624  1.1626  1.0874 -0.4179
  129OSM   C13S13869   6.601   6.723   7.735 -0.4907 -0.1928  0.1984
  129OSM   H13S13870   6.552   6.624   7.738  0.7315 -0.8479 -0.7963
  129OSM   H13T13871   6.520   6.799   7.726 -0.8185 -0.5875 -0.2162
  129OSM   C14S13872   6.667   6.744   7.872  0.6906 -0.5896  0.4307
  129OSM   H14S13873   6.712   6.846   7.872  0.1509 -0.3389  2.8237
  129OSM   H14T13874   6.742   6.664   7.889 -0.7115 -1.6034  1.9760
  129OSM   C15S13875   6.572   6.739   7.986  0.6663  0.2733  0.4260
  129OSM   H15S13876   6.519   6.643   8.002  1.9182 -0.6098 -0.6651
  129OSM   H15T13877   6.492   6.817   7.982  0.1311 -0.3496 -1.3562
  129OSM   C16S13878   6.643   6.761   8.120 -1.0312 -0.5765 -0.9029
  129OSM   H16S13879   6.691   6.862   8.119 -1.1593 -0.4758  1.2022
  129OSM   H16T13880   6.722   6.686   8.140  0.7339  1.1678 -1.1778
  129OSM   C17S13881   6.553   6.756   8.242  0.1872 -0.0842  0.7456
  129OSM   H17S13882   6.540   6.647   8.259  2.1397 -0.6698 -1.2822
  129OSM   H17T13883   6.456   6.809   8.226  1.2881  2.5999  2.4410
  129OSM   C18S13884   6.612   6.816   8.371 -0.3465 -0.4825 -0.8186
  129OSM   H18S13885   6.704   6.763   8.404 -0.6718  0.3418  1.5443
  129OSM   H18T13886   6.538   6.799   8.453 -1.6765 -2.2427 -2.3184
  129OSM   H18U13887   6.627   6.923   8.349 -0.8405 -0.5164 -1.3472
  129OSM    C1F13888   6.371   6.810   6.582 -0.7742  0.5077 -0.0152
  129OSM     OF13889   6.303   6.709   6.579  0.2192  0.5721  0.1404
  129OSM    C2F13890   6.307   6.938   6.612 -0.4989  0.2987  0.1388
  129OSM    H2F13891   6.229   6.955   6.535 -3.5306 -0.2457  2.9470
  129OSM    H2G13892   6.386   7.012   6.590  1.6113 -1.6131  1.1393
  129OSM    C3F13893   6.256   6.943   6.757  0.3334  0.6966  0.6093
  129OSM    H3F13894   6.180   6.862   6.770  0.1319  0.5242 -1.5948
  129OSM    H3G13895   6.194   7.035   6.762  1.6234  1.6325 -0.5158
  129OSM    C4F13896   6.367   6.942   6.868  0.4322  0.7928  0.4876
  129OSM    H4F13897   6.458   6.891   6.829 -1.3121 -0.7586 -1.6786
  129OSM    H4G13898   6.334   6.877   6.952 -0.0507 -0.9587 -1.0279
  129OSM    C5F13899   6.402   7.079   6.913 -0.0340 -0.3399  0.3891
  129OSM    H5F13900   6.308   7.137   6.928  1.0965  1.0231  2.4185
  129OSM    H5G13901   6.456   7.135   6.834 -0.0491 -0.5503  0.2296
  129OSM    C6F13902   6.504   7.086   7.031  0.0815  0.1445 -0.4210
  129OSM    H6F13903   6.558   7.183   7.035 -0.4761  0.4125  0.7701
  129OSM    H6G13904   6.581   7.012   6.999  1.6515  1.6528 -0.1875
  129OSM    C7F13905   6.450   7.047   7.170 -0.7159  0.1286 -0.2489
  129OSM    H7F13906   6.533   7.067   7.241  0.3376 -0.4723 -1.2885
  129OSM    H7G13907   6.442   6.937   7.169  3.9016 -0.3187  0.5438
  129OSM    C8F13908   6.315   7.109   7.210 -0.5103 -0.0617  0.4482
  129OSM    H8F13909   6.233   7.070   7.145 -0.6736  0.9219  0.0668
  129OSM    H8G13910   6.318   7.220   7.206 -1.4858 -0.0603 -0.5857
  129OSM    C9F13911   6.273   7.065   7.342 -0.1290  0.4816  0.6715
  129OSM    H9F13912   6.206   6.978   7.345  1.9221 -1.1174  1.4608
  129OSM   C10F13913   6.320   7.122   7.451  0.0292  0.2064 -0.3148
  129OSM   H10F13914   6.316   7.054   7.538  0.8768  0.0486 -0.3941
  129OSM   C11F13915   6.415   7.240   7.461 -0.1438 -0.1087  0.0513
  129OSM   H11F13916   6.376   7.317   7.531  0.1713  1.8146 -1.8312
  129OSM   H11G13917   6.418   7.282   7.358 -1.1665  1.0240  0.4732
  129OSM   C12F13918   6.559   7.190   7.509 -0.1511 -0.8489 -0.1527
  129OSM   H12F13919   6.626   7.279   7.505 -0.7957 -0.2939  1.1298
  129OSM   H12G13920   6.597   7.113   7.439 -0.1829 -1.0043  0.0007
  129OSM   C13F13921   6.565   7.145   7.656  0.0815  0.1428  0.2191
  129OSM   H13F13922   6.662   7.097   7.681 -0.8356 -2.3667 -0.8357
  129OSM   H13G13923   6.499   7.056   7.665 -0.2757  0.4853  1.0520
  129OSM   C14F13924   6.537   7.257   7.759 -0.8168 -0.6907  0.1735
  129OSM   H14F13925   6.431   7.276   7.787 -0.5292 -1.8307  2.0937
  129OSM   H14G13926   6.577   7.348   7.708  0.5298 -0.7087  1.1705
  129OSM   C15F13927   6.613   7.242   7.891 -0.6736 -0.2550  0.2139
  129OSM   H15F13928   6.586   7.325   7.959 -0.0547 -0.4306  0.6749
  129OSM   H15G13929   6.722   7.257   7.876 -0.9003  0.8079 -0.4333
  129OSM   C16F13930   6.585   7.107   7.960  0.6441  0.2723  0.5198
  129OSM   H16F13931   6.665   7.090   8.035  3.3335  2.3207 -1.7558
  129OSM   H16G13932   6.590   7.023   7.888 -2.2409 -0.0785  0.6862
  129OSM   C17F13933   6.445   7.107   8.011 -0.1496  0.3708 -0.2695
  129OSM   H17F13934   6.434   7.015   8.071  0.2795  1.7652  1.9964
  129OSM   H17G13935   6.367   7.115   7.932  0.5390 -0.5339 -1.0531
  129OSM   C18F13936   6.419   7.216   8.119  0.5617 -0.0308  0.4303
  129OSM   H18F13937   6.312   7.196   8.142 -0.0798 -0.6408 -2.7954
  129OSM   H18G13938   6.425   7.324   8.095  0.2138  0.7267  3.5077
  129OSM   H18H13939   6.474   7.202   8.214 -0.2322  0.9455  1.0339
  130OSM      N13940   2.394   2.326   5.835  0.9229  0.3663 -0.2476
  130OSM    C1513941   2.411   2.329   5.693  0.1287 -0.0282 -0.0869
  130OSM   H15A13942   2.512   2.322   5.657 -0.1023 -0.7671 -0.6154
  130OSM   H15B13943   2.374   2.424   5.655 -0.8636  0.1212  1.2104
  130OSM   H15C13944   2.348   2.252   5.650 -1.4594  1.7234 -1.0101
  130OSM    C1413945   2.255   2.349   5.872  0.3163  0.3394  0.0927
  130OSM   H14A13946   2.228   2.324   5.973 -1.7165  2.3804  0.0762
  130OSM   H14B13947   2.182   2.297   5.810 -0.0777 -2.2576  2.5930
  130OSM   H14C13948   2.229   2.453   5.864  2.3456  0.8431 -0.1719
  130OSM    C1313949   2.424   2.183   5.872  0.0754  0.3748  0.2234
  130OSM   H13A13950   2.346   2.121   5.832 -0.7667  1.0044  0.8817
  130OSM   H13B13951   2.434   2.168   5.978  1.1801  2.5437  0.4687
  130OSM   H13C13952   2.516   2.160   5.820 -0.4058  0.0534 -0.4971
  130OSM    C1213953   2.489   2.423   5.899 -0.2853  0.1452 -0.1486
  130OSM   H12A13954   2.475   2.509   5.835 -2.9124  0.3921  0.7102
  130OSM   H12B13955   2.591   2.389   5.885  0.3591  1.9507 -0.0137
  130OSM    C1113956   2.462   2.467   6.043  0.4302  0.2904 -0.1890
  130OSM   H11A13957   2.371   2.530   6.049  1.2071  1.3718  0.4108
  130OSM   H11B13958   2.549   2.523   6.082 -0.5088  0.5248  1.6093
  130OSM      P13959   2.583   2.272   6.172 -0.0039 -0.0556 -0.6633
  130OSM    O1313960   2.546   2.161   6.263  0.5421 -0.2884 -0.0769
  130OSM    O1413961   2.655   2.226   6.052 -0.4536 -0.0865  0.4207
  130OSM    O1113962   2.654   2.378   6.260 -0.1832 -0.3217 -0.1378
  130OSM    O1213963   2.454   2.352   6.130  0.4748 -0.1383 -0.5564
  130OSM    C1S13964   2.587   2.455   6.357 -0.3140 -0.3215  0.2057
  130OSM    H1S13965   2.479   2.474   6.337 -0.5620 -1.1019  0.7489
  130OSM    H1T13966   2.632   2.556   6.347 -1.2129  0.0640  0.0334
  130OSM     NF13967   2.539   2.478   6.595  0.4471  1.0127  0.0107
  130OSM    HNF13968   2.572   2.560   6.641 -0.6040  3.0081 -2.6338
  130OSM    C2S13969   2.623   2.410   6.502  0.1229 -0.5510 -0.2412
  130OSM    H2S13970   2.585   2.306   6.502  0.4967 -0.6927 -0.5822
  130OSM    C3S13971   2.778   2.409   6.538  0.0344 -0.5927 -0.0752
  130OSM    H3S13972   2.812   2.515   6.533  0.1926 -0.6109  0.6138
  130OSM     O313973   2.864   2.348   6.447  0.6201 -0.4323 -0.3255
  130OSM    HO313974   2.796   2.337   6.379  0.0119 -1.4931  0.4289
  130OSM    C4S13975   2.804   2.362   6.678 -0.4697 -0.7999 -0.2916
  130OSM    H4S13976   2.773   2.259   6.700  1.5848 -1.0128  1.8885
  130OSM    C5S13977   2.861   2.429   6.774 -0.3175 -0.4538 -0.2603
  130OSM    H5S13978   2.888   2.534   6.753 -3.8953  0.9035  1.3857
  130OSM    C6S13979   2.879   2.374   6.915 -0.4277  0.6444  0.5109
  130OSM    H6S13980   2.980   2.407   6.948  0.3048 -0.7787 -0.2907
  130OSM    H6T13981   2.884   2.264   6.900 -2.0635  0.3457  2.0410
  130OSM    C7S13982   2.796   2.412   7.038  0.4380  0.0887 -0.0319
  130OSM    H7S13983   2.692   2.374   7.024  1.3953 -2.9720  0.8297
  130OSM    H7T13984   2.790   2.523   7.043  0.2070  0.2078 -2.1756
  130OSM    C8S13985   2.853   2.364   7.162  0.1872  0.5496  0.2893
  130OSM    H8S13986   2.957   2.400   7.179  0.2274 -0.1839  1.6680
  130OSM    H8T13987   2.850   2.253   7.168 -2.1805  0.5399 -0.7132
  130OSM    C9S13988   2.784   2.426   7.290  0.0068 -0.3680  0.6069
  130OSM    H9S13989   2.681   2.384   7.286  0.2651 -1.0436  1.0410
  130OSM    H9T13990   2.773   2.536   7.278 -1.0570 -0.5862 -0.5032
  130OSM   C10S13991   2.857   2.378   7.409  0.5598  0.3244 -0.5090
  130OSM   H10S13992   2.966   2.397   7.398  1.4606 -1.8846  3.4842
  130OSM   H10T13993   2.855   2.267   7.400 -2.6639  0.3727 -0.9276
  130OSM   C11S13994   2.806   2.429   7.540  0.8933  0.0883 -0.0284
  130OSM   H11S13995   2.712   2.376   7.566  1.5607 -1.3730 -0.5327
  130OSM   H11T13996   2.791   2.539   7.546 -0.2899 -0.0260 -0.7807
  130OSM   C12S13997   2.903   2.394   7.659 -0.1105  0.5560 -0.7384
  130OSM   H12S13998   2.998   2.448   7.639  0.4921 -0.3205 -0.3157
  130OSM   H12T13999   2.929   2.286   7.666 -2.2256  0.0871  0.2053
  130OSM   C13S14000   2.850   2.435   7.801 -0.2809  0.8901  0.0887
  130OSM   H13S14001   2.749   2.395   7.825  0.1497  0.5281  1.3435
  130OSM   H13T14002   2.843   2.546   7.800  2.6231  1.1766  2.4427
  130OSM   C14S14003   2.963   2.394   7.899  0.2704  0.2645 -0.2614
  130OSM   H14S14004   3.056   2.439   7.858  0.1123  1.0589  0.2466
  130OSM   H14T14005   2.977   2.283   7.893 -1.6824 -0.0462  0.6721
  130OSM   C15S14006   2.956   2.442   8.041  0.8428 -0.5091 -0.1205
  130OSM   H15S14007   2.891   2.371   8.096  1.8017 -1.2585  0.0639
  130OSM   H15T14008   2.915   2.544   8.024  1.2817 -0.5085 -1.1955
  130OSM   C16S14009   3.089   2.452   8.115 -0.1747 -0.4061  0.6494
  130OSM   H16S14010   3.154   2.524   8.061 -1.7760 -0.0086 -0.7826
  130OSM   H16T14011   3.128   2.348   8.117  1.1202 -0.0299 -2.3220
  130OSM   C17S14012   3.067   2.491   8.257 -0.3890  0.6554  0.2971
  130OSM   H17S14013   3.024   2.402   8.308  0.6782  0.1429  0.3194
  130OSM   H17T14014   2.982   2.563   8.256  0.3129  1.4875 -2.1391
  130OSM   C18S14015   3.177   2.552   8.338 -0.0163  0.4827  0.7570
  130OSM   H18S14016   3.153   2.531   8.445 -1.2825 -0.8402  0.2218
  130OSM   H18T14017   3.175   2.663   8.338  1.4790  0.5189  1.1755
  130OSM   H18U14018   3.278   2.513   8.313 -1.0066 -1.1264 -0.8471
  130OSM    C1F14019   2.405   2.463   6.600  0.2932  0.1218  0.3991
  130OSM     OF14020   2.358   2.356   6.560  0.0219 -0.2060 -0.0516
  130OSM    C2F14021   2.322   2.567   6.664 -0.9050  0.1928  0.2458
  130OSM    H2F14022   2.294   2.644   6.589 -1.4803 -0.9777 -0.7629
  130OSM    H2G14023   2.374   2.633   6.736 -0.9238  0.5642 -0.0786
  130OSM    C3F14024   2.192   2.519   6.726 -0.9162 -0.4593  0.5456
  130OSM    H3F14025   2.144   2.439   6.666  1.8952 -1.9307  0.2099
  130OSM    H3G14026   2.120   2.603   6.729 -1.1225 -0.5371 -1.4694
  130OSM    C4F14027   2.203   2.458   6.868 -0.0263 -0.6619 -0.5682
  130OSM    H4F14028   2.235   2.541   6.934  0.8720 -1.1254 -0.4165
  130OSM    H4G14029   2.287   2.386   6.864 -0.6674 -1.5161  0.8284
  130OSM    C5F14030   2.069   2.397   6.931 -0.1280  0.4229  1.3808
  130OSM    H5F14031   2.094   2.310   6.996  0.0866 -0.8872 -0.4187
  130OSM    H5G14032   2.009   2.348   6.851  0.6224 -1.7241  2.0843
  130OSM    C6F14033   1.981   2.491   7.004  0.6125  0.2005 -0.4020
  130OSM    H6F14034   1.949   2.574   6.937  2.6380  2.0007  0.8257
  130OSM    H6G14035   2.057   2.531   7.074 -0.3525  1.3662  0.0005
  130OSM    C7F14036   1.846   2.443   7.068  0.1025  0.2669 -0.4633
  130OSM    H7F14037   1.786   2.416   6.979 -0.3905  0.1761 -0.1057
  130OSM    H7G14038   1.788   2.522   7.121  0.9485  0.3890  0.2876
  130OSM    C8F14039   1.866   2.310   7.148 -0.1074 -0.1748  0.0006
  130OSM    H8F14040   1.895   2.232   7.074 -0.9640 -1.5381  1.0673
  130OSM    H8G14041   1.772   2.276   7.197 -0.6545 -0.7394 -1.3949
  130OSM    C9F14042   1.973   2.299   7.255 -0.1326  0.1509  0.9470
  130OSM    H9F14043   2.046   2.376   7.226 -0.3331 -0.0651 -0.1699
  130OSM   C10F14044   1.989   2.219   7.365 -0.3820  0.9663  0.2684
  130OSM   H10F14045   2.089   2.233   7.408 -0.7502  0.8659  1.1749
  130OSM   C11F14046   1.896   2.111   7.421 -0.0586  0.1684 -0.4708
  130OSM   H11F14047   1.954   2.018   7.436  0.3822  0.5919  0.4698
  130OSM   H11G14048   1.805   2.099   7.357  0.0471 -1.1361 -0.3877
  130OSM   C12F14049   1.826   2.153   7.550  0.8185  0.3146  1.0474
  130OSM   H12F14050   1.748   2.076   7.563  1.4084 -0.6355 -0.9013
  130OSM   H12G14051   1.772   2.250   7.536  0.8421  0.0739 -0.9074
  130OSM   C13F14052   1.916   2.165   7.674  0.5289  0.2501 -0.0400
  130OSM   H13F14053   1.978   2.255   7.656  1.7787 -0.5548  0.1679
  130OSM   H13G14054   1.984   2.077   7.688 -2.0909 -2.0534 -1.3072
  130OSM   C14F14055   1.838   2.181   7.809  0.7315 -0.0063 -0.0500
  130OSM   H14F14056   1.763   2.100   7.816  1.2229 -0.3764  1.1211
  130OSM   H14G14057   1.780   2.276   7.806  2.1311  0.9760  2.1229
  130OSM   C15F14058   1.933   2.171   7.925  0.5830 -0.0686  0.7929
  130OSM   H15F14059   1.996   2.261   7.912 -0.1644  0.0104 -2.5960
  130OSM   H15G14060   1.994   2.080   7.903  1.1808 -0.0450  2.2387
  130OSM   C16F14061   1.868   2.167   8.060 -0.0788 -0.2509 -0.6131
  130OSM   H16F14062   1.808   2.075   8.074 -1.2527  0.6437  0.3541
  130OSM   H16G14063   1.805   2.258   8.063  0.5889  0.1696  2.0702
  130OSM   C17F14064   1.983   2.175   8.165 -0.1752  0.3740  0.1026
  130OSM   H17F14065   2.046   2.265   8.151 -2.7574  1.9177 -2.2694
  130OSM   H17G14066   2.048   2.087   8.146  1.4930  1.2811  1.5166
  130OSM   C18F14067   1.924   2.173   8.306 -0.0119 -0.7357 -0.2972
  130OSM   H18F14068   1.864   2.079   8.313 -1.8593  0.6043  2.8827
  130OSM   H18G14069   1.863   2.260   8.338  2.5593  0.5554  1.2735
  130OSM   H18H14070   2.012   2.176   8.373 -0.2223  3.0674 -0.1105
  131OSM      N14071   6.526   4.557   5.973 -0.2750  0.1479 -0.4257
  131OSM    C1514072   6.573   4.492   5.851 -0.5233  0.2893 -0.2211
  131OSM   H15A14073   6.667   4.440   5.858 -0.7280 -0.1146 -0.4230
  131OSM   H15B14074   6.595   4.556   5.767 -2.3578 -0.4331 -1.2922
  131OSM   H15C14075   6.503   4.416   5.818  1.2917 -0.8952 -1.4343
  131OSM    C1414076   6.416   4.643   5.946  0.5554  0.2347 -0.6883
  131OSM   H14A14077   6.428   4.712   5.863  1.2378 -0.3381 -1.0809
  131OSM   H14B14078   6.404   4.710   6.029  1.7030 -0.6803  0.2348
  131OSM   H14C14079   6.327   4.583   5.934 -0.7781  1.1936  3.6725
  131OSM    C1314080   6.474   4.458   6.072 -0.0874 -0.8534  0.1745
  131OSM   H13A14081   6.448   4.509   6.164  2.2271  0.0538  0.3719
  131OSM   H13B14082   6.549   4.394   6.114  0.2444 -1.2248 -0.9632
  131OSM   H13C14083   6.398   4.402   6.021 -0.6459  0.1221 -0.0827
  131OSM    C1214084   6.641   4.639   6.035  0.0865  0.6827 -0.5443
  131OSM   H12A14085   6.725   4.571   6.040 -1.3718 -1.1321 -0.0998
  131OSM   H12B14086   6.624   4.687   6.130  0.3748 -0.9157  0.3372
  131OSM    C1114087   6.701   4.764   5.961 -0.4050  0.4862  0.0028
  131OSM   H11A14088   6.726   4.729   5.859 -1.1362 -1.0852  0.3619
  131OSM   H11B14089   6.798   4.796   6.006 -0.9173 -0.4896  1.8690
  131OSM      P14090   6.636   5.019   5.954  0.0668  0.4056  0.2895
  131OSM    O1314091   6.783   5.042   5.970 -0.4908 -0.0234 -0.3649
  131OSM    O1414092   6.567   5.089   5.845  0.2168 -0.5144 -0.5096
  131OSM    O1114093   6.572   5.068   6.077 -0.1077  0.0105  0.2674
  131OSM    O1214094   6.598   4.866   5.953 -0.4689 -0.0193 -0.2807
  131OSM    C1S14095   6.561   5.004   6.207  0.6389  0.9752  0.1781
  131OSM    H1S14096   6.664   4.980   6.242  0.1132 -1.4952  0.0579
  131OSM    H1T14097   6.514   4.905   6.193  0.8838  0.6889  1.3462
  131OSM     NF14098   6.481   5.030   6.448  0.0003 -0.6271  0.5946
  131OSM    HNF14099   6.399   4.981   6.475 -1.7587  1.2306 -1.2442
  131OSM    C2S14100   6.478   5.093   6.307  0.2678 -0.1122  0.2248
  131OSM    H2S14101   6.538   5.186   6.314 -1.1924  0.9006 -0.4742
  131OSM    C3S14102   6.340   5.124   6.251  0.1294 -0.0574  0.1542
  131OSM    H3S14103   6.285   5.027   6.245  0.1228 -0.0189 -0.3705
  131OSM     O314104   6.337   5.172   6.117  0.0822 -0.0649 -0.1456
  131OSM    HO314105   6.413   5.134   6.073  0.2114  0.5433 -0.4608
  131OSM    C4S14106   6.272   5.216   6.343 -0.0439 -0.1968  0.4905
  131OSM    H4S14107   6.248   5.162   6.436  1.5623 -1.8813 -0.0493
  131OSM    C5S14108   6.254   5.350   6.339 -0.4780 -0.0523 -0.4713
  131OSM    H5S14109   6.308   5.408   6.263 -0.6274  1.3133  0.4465
  131OSM    C6S14110   6.193   5.428   6.450  0.6171 -0.0966 -0.4714
  131OSM    H6S14111   6.093   5.455   6.412  1.1286  0.3310 -1.5404
  131OSM    H6T14112   6.230   5.533   6.460  1.3865 -0.2514 -1.5791
  131OSM    C7S14113   6.200   5.364   6.588 -0.4432 -0.3512  0.6993
  131OSM    H7S14114   6.308   5.346   6.604 -0.4820 -1.3664 -0.1068
  131OSM    H7T14115   6.154   5.264   6.604 -1.4460 -0.0517 -0.2711
  131OSM    C8S14116   6.167   5.447   6.707 -0.6732 -0.0793  0.1153
  131OSM    H8S14117   6.070   5.494   6.683 -0.1908  1.3133  0.8179
  131OSM    H8T14118   6.239   5.532   6.716 -1.2658  0.8830 -3.3318
  131OSM    C9S14119   6.183   5.369   6.842 -0.2403 -0.3874  0.1914
  131OSM    H9S14120   6.284   5.323   6.837 -0.0309  0.0774  0.0894
  131OSM    H9T14121   6.097   5.300   6.834 -1.0315  0.5259  0.6747
  131OSM   C10S14122   6.147   5.450   6.967 -1.0301 -0.1302 -0.9640
  131OSM   H10S14123   6.037   5.466   6.958 -1.0265  0.1658 -0.4752
  131OSM   H10T14124   6.198   5.549   6.954 -1.5734  0.4444  1.2022
  131OSM   C11S14125   6.186   5.372   7.092 -0.9393 -0.3034  0.4402
  131OSM   H11S14126   6.284   5.325   7.069  0.9375  3.0881  1.1467
  131OSM   H11T14127   6.118   5.285   7.105  0.9378 -1.3375  3.8383
  131OSM   C12S14128   6.204   5.458   7.222  0.1787 -0.0797  0.0371
  131OSM   H12S14129   6.120   5.530   7.234 -0.0958 -0.1580 -1.3197
  131OSM   H12T14130   6.294   5.519   7.198 -0.8556  0.1183 -3.7707
  131OSM   C13S14131   6.249   5.366   7.342  0.4245 -0.2307  0.3127
  131OSM   H13S14132   6.345   5.326   7.303  0.8554  1.0599  0.0212
  131OSM   H13T14133   6.181   5.281   7.364  1.2248 -0.8052  0.6012
  131OSM   C14S14134   6.293   5.441   7.465 -0.6893 -0.0058 -0.3242
  131OSM   H14S14135   6.204   5.471   7.525 -0.9852 -0.0145 -0.7504
  131OSM   H14T14136   6.347   5.530   7.425 -1.1579  0.1655 -0.5869
  131OSM   C15S14137   6.403   5.374   7.558 -0.3535  0.1915 -0.3254
  131OSM   H15S14138   6.482   5.332   7.492 -1.0212  0.6439 -1.4294
  131OSM   H15T14139   6.351   5.291   7.611  0.5131 -0.5645 -0.6607
  131OSM   C16S14140   6.451   5.473   7.665 -0.1919  0.3414 -0.2835
  131OSM   H16S14141   6.368   5.510   7.729 -0.3446  0.1550 -0.3770
  131OSM   H16T14142   6.494   5.562   7.614 -0.6835 -0.7066 -2.5768
  131OSM   C17S14143   6.569   5.418   7.744 -0.0695  0.2846  0.0964
  131OSM   H17S14144   6.639   5.368   7.674  1.5888  1.2384  1.0473
  131OSM   H17T14145   6.530   5.345   7.818 -0.7460 -0.2705 -0.8044
  131OSM   C18S14146   6.649   5.527   7.815  0.5721 -1.1002 -0.0497
  131OSM   H18S14147   6.704   5.585   7.738 -0.8052  0.7036  0.3027
  131OSM   H18T14148   6.728   5.488   7.884  1.3508  1.3206  0.4635
  131OSM   H18U14149   6.574   5.588   7.869  1.1753  1.2794 -1.8152
  131OSM    C1F14150   6.588   5.038   6.526  0.4868 -0.2334  0.0159
  131OSM     OF14151   6.693   5.090   6.489 -0.2777  0.2794 -0.5726
  131OSM    C2F14152   6.588   4.978   6.665 -0.5403 -0.6755 -0.1718
  131OSM    H2F14153   6.568   4.869   6.658 -0.3603 -0.8780  2.2984
  131OSM    H2G14154   6.499   5.017   6.718 -0.6982  0.6974 -1.4125
  131OSM    C3F14155   6.711   5.014   6.743  0.4035  0.0777 -0.2581
  131OSM    H3F14156   6.713   5.125   6.754 -1.8453  0.2863 -1.8306
  131OSM    H3G14157   6.805   4.992   6.688  0.5147  0.9630 -0.4363
  131OSM    C4F14158   6.705   4.958   6.885 -0.0352  0.0023  0.6582
  131OSM    H4F14159   6.692   4.848   6.875 -1.6192  0.0964  1.5429
  131OSM    H4G14160   6.615   5.003   6.933  0.3383  1.2993  0.1528
  131OSM    C5F14161   6.826   4.985   6.972  0.8374 -0.2490  0.1191
  131OSM    H5F14162   6.833   5.096   6.977 -0.8797 -0.0484 -1.5224
  131OSM    H5G14163   6.914   4.939   6.923  1.6131  1.8388 -0.5327
  131OSM    C6F14164   6.824   4.915   7.105  0.5358 -0.0585  0.2356
  131OSM    H6F14165   6.816   4.806   7.085  0.4659 -0.0672  0.3133
  131OSM    H6G14166   6.739   4.945   7.170  1.6407  0.5484  1.4144
  131OSM    C7F14167   6.959   4.954   7.177 -0.2519 -1.0502  0.2221
  131OSM    H7F14168   7.041   4.938   7.104 -0.4147  0.8506 -0.4256
  131OSM    H7G14169   6.978   4.893   7.267  2.7020  0.2517  0.5377
  131OSM    C8F14170   6.956   5.106   7.210 -0.0964  0.1582 -0.5003
  131OSM    H8F14171   6.973   5.165   7.118  1.4586  2.1722  1.0151
  131OSM    H8G14172   7.048   5.140   7.263 -0.1869 -0.6757  0.2059
  131OSM    C9F14173   6.835   5.165   7.277 -0.2441 -0.0558 -0.3040
  131OSM    H9F14174   6.761   5.198   7.203 -1.6463 -0.2492  0.9721
  131OSM   C10F14175   6.816   5.181   7.409  0.8176  0.2628 -0.6895
  131OSM   H10F14176   6.717   5.210   7.448  0.3986 -2.3970  0.3176
  131OSM   C11F14177   6.919   5.143   7.510 -0.0477 -0.4718  0.0321
  131OSM   H11F14178   6.968   5.233   7.551  0.5601 -1.0071  0.4981
  131OSM   H11G14179   7.009   5.091   7.469 -0.4237 -0.2595 -1.0645
  131OSM   C12F14180   6.863   5.054   7.628  0.1423  0.3419 -0.7045
  131OSM   H12F14181   6.844   4.951   7.590  1.0852 -0.5564  1.1744
  131OSM   H12G14182   6.759   5.084   7.655 -0.1084  0.4467 -1.7821
  131OSM   C13F14183   6.941   5.064   7.760 -0.3726  0.2980  0.0119
  131OSM   H13F14184   7.048   5.077   7.733 -0.5182 -0.8930 -1.1717
  131OSM   H13G14185   6.934   4.971   7.820  1.1775 -0.5882 -1.1265
  131OSM   C14F14186   6.894   5.182   7.850  0.4279  0.1419  0.6160
  131OSM   H14F14187   6.785   5.168   7.860  0.6204 -0.6726  1.6788
  131OSM   H14G14188   6.919   5.275   7.794 -1.0831  0.5853  0.6672
  131OSM   C15F14189   6.955   5.190   7.985  0.2053 -0.3016  0.2355
  131OSM   H15F14190   7.048   5.250   7.975 -0.2609  0.3474 -0.2349
  131OSM   H15G14191   6.993   5.088   8.008  0.2146  0.0024  1.6296
  131OSM   C16F14192   6.863   5.243   8.098  0.2552  0.0781 -0.1326
  131OSM   H16F14193   6.757   5.220   8.074  0.3413 -1.9719  1.3044
  131OSM   H16G14194   6.858   5.354   8.098  3.3449  0.2667  1.3128
  131OSM   C17F14195   6.899   5.203   8.245  0.1382 -0.3564 -0.0577
  131OSM   H17F14196   6.821   5.245   8.312  0.7285 -1.0851  1.1014
  131OSM   H17G14197   6.994   5.251   8.274 -0.8324 -0.9354  4.3730
  131OSM   C18F14198   6.893   5.052   8.258  0.5929  0.1721 -0.0792
  131OSM   H18F14199   6.894   5.009   8.361  0.3564  0.7990  0.1869
  131OSM   H18G14200   6.984   5.015   8.206  1.0036  1.6192 -0.4235
  131OSM   H18H14201   6.808   5.005   8.205 -0.3139  0.3591  1.1711
  132OSM      N14202   1.681   6.027   6.286  0.5384  0.7701 -0.9010
  132OSM    C1514203   1.670   5.895   6.218  0.6341 -0.6858  0.2437
  132OSM   H15A14204   1.748   5.822   6.239  0.4225 -1.0469 -0.2190
  132OSM   H15B14205   1.673   5.901   6.110 -0.2036  1.7273  0.3456
  132OSM   H15C14206   1.582   5.845   6.255 -0.4978  0.4089 -0.9488
  132OSM    C1414207   1.575   6.121   6.252 -0.5505 -0.2115  0.4609
  132OSM   H14A14208   1.585   6.215   6.304  0.7914 -0.9537  1.5791
  132OSM   H14B14209   1.481   6.083   6.289 -1.4539  0.1116 -1.4337
  132OSM   H14C14210   1.560   6.132   6.146  0.6366  2.1689  0.5230
  132OSM    C1314211   1.685   6.008   6.434  0.4268 -0.4310  0.4851
  132OSM   H13A14212   1.746   5.919   6.447  1.0048 -0.1092  0.0093
  132OSM   H13B14213   1.592   5.980   6.482  0.8979  0.6864  2.0912
  132OSM   H13C14214   1.735   6.091   6.482  2.1960 -0.0272 -1.9394
  132OSM    C1214215   1.820   6.080   6.248 -1.0732 -0.0909 -0.8117
  132OSM   H12A14216   1.821   6.113   6.145  0.2608  1.0000 -0.4765
  132OSM   H12B14217   1.890   5.998   6.255 -1.0804 -0.2005 -1.8873
  132OSM    C1114218   1.887   6.181   6.334  0.4796  0.6210 -0.2360
  132OSM   H11A14219   1.980   6.199   6.276 -0.6818  2.1579 -1.7104
  132OSM   H11B14220   1.928   6.138   6.427  1.0451 -0.1966 -0.8641
  132OSM      P14221   1.816   6.422   6.260  0.0864  0.1247  0.3479
  132OSM    O1314222   1.903   6.405   6.143 -0.2220  0.0602 -0.7706
  132OSM    O1414223   1.677   6.466   6.240  1.0221 -0.6975 -0.1294
  132OSM    O1114224   1.883   6.532   6.351 -0.3628 -0.5135  0.4904
  132OSM    O1214225   1.808   6.290   6.352 -0.3502  0.0145 -0.8554
  132OSM    C1S14226   1.806   6.589   6.465 -0.3065 -0.4998 -0.5916
  132OSM    H1S14227   1.735   6.515   6.506  0.6046 -1.0204  0.0639
  132OSM    H1T14228   1.745   6.673   6.426  0.5717  1.3637  1.9476
  132OSM     NF14229   1.836   6.648   6.694 -0.4723  0.2324 -1.0974
  132OSM    HNF14230   1.782   6.726   6.722  1.0855  1.3834 -1.2471
  132OSM    C2S14231   1.907   6.644   6.569  0.4592 -0.7290 -0.3324
  132OSM    H2S14232   1.992   6.573   6.579  0.1794 -0.8543  1.4390
  132OSM    C3S14233   1.973   6.775   6.523 -0.6392  0.1000 -0.4288
  132OSM    H3S14234   1.880   6.837   6.518 -0.0018  1.0956 -0.1735
  132OSM     O314235   2.027   6.768   6.387  0.0014  0.6834  0.2061
  132OSM    HO314236   2.025   6.675   6.366  2.1212  1.0381 -1.7899
  132OSM    C4S14237   2.063   6.843   6.623  0.1594 -0.3865 -0.1407
  132OSM    H4S14238   2.009   6.899   6.701 -2.8430 -0.2699 -2.2246
  132OSM    C5S14239   2.199   6.825   6.633 -0.1387  0.2913  0.4576
  132OSM    H5S14240   2.254   6.757   6.566  0.3909  0.2285  0.9509
  132OSM    C6S14241   2.291   6.890   6.736  0.6893  0.0532  1.7807
  132OSM    H6S14242   2.343   6.973   6.683 -0.5714  0.4497  1.1453
  132OSM    H6T14243   2.376   6.824   6.762 -0.1286 -0.8258  2.2125
  132OSM    C7S14244   2.235   6.935   6.872  0.5718 -0.1098  0.3907
  132OSM    H7S14245   2.181   6.846   6.911 -0.2290 -0.3412 -1.2253
  132OSM    H7T14246   2.160   7.016   6.860 -1.7888 -2.0524  1.7052
  132OSM    C8S14247   2.359   6.985   6.955 -0.2745 -0.3261  0.0850
  132OSM    H8S14248   2.397   7.080   6.910 -4.2750  1.6711  0.7515
  132OSM    H8T14249   2.442   6.911   6.956 -2.1501 -2.4936  0.0902
  132OSM    C9S14250   2.331   7.003   7.106  0.1608 -0.5205 -0.3828
  132OSM    H9S14251   2.420   7.046   7.158  0.5872 -0.4872 -1.1255
  132OSM    H9T14252   2.307   6.906   7.155 -0.4843  0.6088  1.5726
  132OSM   C10S14253   2.214   7.100   7.134  0.3029 -0.3072  0.0813
  132OSM   H10S14254   2.124   7.067   7.077 -1.2888 -0.6080  2.6782
  132OSM   H10T14255   2.239   7.202   7.100  1.1482  0.3562  2.6492
  132OSM   C11S14256   2.176   7.100   7.285  0.4460  0.0979  0.0446
  132OSM   H11S14257   2.102   7.178   7.312  0.1351 -0.9153  2.1612
  132OSM   H11T14258   2.261   7.130   7.350 -1.8416  2.2174  2.1223
  132OSM   C12S14259   2.109   6.976   7.342 -0.2383 -0.1403 -0.2024
  132OSM   H12S14260   2.172   6.885   7.332 -0.7496 -0.6078  0.8281
  132OSM   H12T14261   2.010   6.952   7.298  0.3876 -2.2129 -0.5337
  132OSM   C13S14262   2.095   6.983   7.491  0.6018 -0.0032 -0.0764
  132OSM   H13S14263   2.047   7.076   7.529  0.9595 -0.5777  1.8605
  132OSM   H13T14264   2.192   6.996   7.543  0.3232 -0.8529  0.6693
  132OSM   C14S14265   2.024   6.864   7.551 -1.3850  0.3748 -0.3658
  132OSM   H14S14266   2.102   6.784   7.544 -1.9029 -0.2024  0.4128
  132OSM   H14T14267   1.928   6.851   7.496 -3.0143  1.5990  2.1109
  132OSM   C15S14268   1.991   6.875   7.695 -0.4951  0.4253  0.6930
  132OSM   H15S14269   1.957   6.774   7.726  1.8112 -0.4666  0.4206
  132OSM   H15T14270   1.914   6.952   7.717  1.0548  1.7145  1.7688
  132OSM   C16S14271   2.115   6.903   7.773 -0.7203 -0.3292  1.0640
  132OSM   H16S14272   2.135   7.011   7.789 -2.7530  0.2360 -0.0410
  132OSM   H16T14273   2.213   6.857   7.745 -1.5772 -1.6014  0.1224
  132OSM   C17S14274   2.098   6.846   7.915 -0.2530 -0.0144 -0.1624
  132OSM   H17S14275   2.094   6.736   7.903 -0.2049 -0.1453  1.0245
  132OSM   H17T14276   2.005   6.883   7.963 -0.6606 -2.6756  1.1760
  132OSM   C18S14277   2.221   6.867   8.002 -0.1547 -0.2804  0.3118
  132OSM   H18S14278   2.249   6.970   8.035  1.6149 -0.3805 -0.8088
  132OSM   H18T14279   2.312   6.828   7.952  0.2016  1.6460 -0.5830
  132OSM   H18U14280   2.204   6.810   8.096  1.2515 -0.8342  0.2507
  132OSM    C1F14281   1.841   6.536   6.771 -0.3068  0.5174  0.4365
  132OSM     OF14282   1.903   6.435   6.739 -0.5916  0.1225 -0.5779
  132OSM    C2F14283   1.755   6.538   6.895  0.1222 -0.2677  0.4093
  132OSM    H2F14284   1.668   6.608   6.886  0.2223 -0.0853  0.8801
  132OSM    H2G14285   1.822   6.579   6.973  0.9064  2.2568 -1.5323
  132OSM    C3F14286   1.713   6.402   6.955  0.4347 -0.0368 -0.0131
  132OSM    H3F14287   1.803   6.340   6.974 -0.0029 -0.0712  2.1782
  132OSM    H3G14288   1.655   6.332   6.891  2.1924  0.0587 -1.7405
  132OSM    C4F14289   1.651   6.407   7.092  0.0830 -0.2231 -0.3188
  132OSM    H4F14290   1.545   6.440   7.087 -0.3280 -1.7692 -2.4471
  132OSM    H4G14291   1.705   6.485   7.150  1.0049 -1.3746  0.4123
  132OSM    C5F14292   1.663   6.274   7.169  0.1934 -0.1173 -0.5536
  132OSM    H5F14293   1.765   6.235   7.152  0.1938  0.1635 -1.2159
  132OSM    H5G14294   1.586   6.216   7.114  0.3611 -0.2969 -0.5986
  132OSM    C6F14295   1.615   6.281   7.315  0.3585 -1.0251  0.0170
  132OSM    H6F14296   1.509   6.313   7.315  1.2611  2.0605 -1.2455
  132OSM    H6G14297   1.669   6.351   7.382 -0.2045 -1.3541  0.8315
  132OSM    C7F14298   1.632   6.147   7.397 -0.2286  0.3770  0.7549
  132OSM    H7F14299   1.739   6.130   7.421  0.0233 -1.6797 -1.7559
  132OSM    H7G14300   1.594   6.067   7.331 -3.2025  1.8522  0.5789
  132OSM    C8F14301   1.564   6.156   7.541 -0.6957  0.2457 -0.5959
  132OSM    H8F14302   1.455   6.175   7.525 -1.6126 -2.4913  2.0192
  132OSM    H8G14303   1.602   6.249   7.589  0.3320 -0.9235  0.8958
  132OSM    C9F14304   1.600   6.052   7.634  0.0825  0.4250  0.5683
  132OSM    H9F14305   1.633   5.961   7.582 -1.1995  1.2555 -1.7650
  132OSM   C10F14306   1.618   6.063   7.766  0.5658  0.2167  0.2076
  132OSM   H10F14307   1.643   5.971   7.820  0.0091  0.3339  0.6753
  132OSM   C11F14308   1.579   6.189   7.847  0.1494  0.6255 -0.0749
  132OSM   H11F14309   1.538   6.273   7.787 -2.5076 -1.0993 -0.8020
  132OSM   H11G14310   1.661   6.226   7.912 -0.8882  1.0883  0.9999
  132OSM   C12F14311   1.481   6.142   7.964 -0.4495 -0.4788  0.5228
  132OSM   H12F14312   1.513   6.056   8.026 -0.9939 -1.4801 -0.5638
  132OSM   H12G14313   1.388   6.093   7.928 -0.8594 -1.1392  2.4409
  132OSM   C13F14314   1.447   6.262   8.056  0.1660  0.0239 -0.2364
  132OSM   H13F14315   1.399   6.323   7.977 -2.2676  0.2503  1.3518
  132OSM   H13G14316   1.539   6.318   8.084  0.5533 -1.1056  0.8326
  132OSM   C14F14317   1.330   6.243   8.154  0.3387  0.1017  0.0089
  132OSM   H14F14318   1.242   6.205   8.098 -0.4560 -2.7260  3.0366
  132OSM   H14G14319   1.294   6.342   8.189  1.5567 -0.1676  2.1033
  132OSM   C15F14320   1.372   6.162   8.275  0.4241  0.0828  0.2429
  132OSM   H15F14321   1.401   6.056   8.260  1.1534 -0.1061  2.7589
  132OSM   H15G14322   1.290   6.150   8.348  0.9576 -1.6232  0.5892
  132OSM   C16F14323   1.499   6.215   8.354  0.1199 -0.6010 -0.5991
  132OSM   H16F14324   1.590   6.234   8.294  1.1392 -1.3407  0.7030
  132OSM   H16G14325   1.532   6.142   8.431  1.4475 -1.6168 -2.1048
  132OSM   C17F14326   1.456   6.343   8.426 -0.5268  0.0709 -1.1216
  132OSM   H17F14327   1.379   6.305   8.496  0.9696 -1.5867 -0.3125
  132OSM   H17G14328   1.426   6.417   8.348 -0.5960 -1.6701 -2.8027
  132OSM   C18F14329   1.556   6.407   8.526  0.4981  0.0886  0.0993
  132OSM   H18F14330   1.508   6.490   8.584 -2.0564 -0.1254 -1.5872
  132OSM   H18G14331   1.644   6.450   8.474 -0.4716  1.9941 -0.0524
  132OSM   H18H14332   1.596   6.337   8.602 -0.3929  0.5975  1.0600
  133OSM      N14333   2.249   6.605   6.014  0.3960  0.8271 -0.4760
  133OSM    C1514334   2.317   6.716   5.941 -0.5409 -0.1212 -0.4398
  133OSM   H15A14335   2.309   6.699   5.835 -0.6284  1.7227 -0.7363
  133OSM   H15B14336   2.422   6.721   5.969 -0.8274 -1.2463  0.8800
  133OSM   H15C14337   2.272   6.811   5.964  1.1932  0.5581  0.2741
  133OSM    C1414338   2.105   6.634   6.008  0.1423  0.1286  0.3611
  133OSM   H14A14339   2.085   6.723   6.065 -0.9493  0.6977 -0.9113
  133OSM   H14B14340   2.042   6.563   6.061 -1.6659  0.3468 -1.4490
  133OSM   H14C14341   2.068   6.638   5.907 -2.0245 -2.3796  0.9973
  133OSM    C1314342   2.280   6.476   5.941  0.3851 -0.4949  0.3693
  133OSM   H13A14343   2.383   6.449   5.956  0.4169  0.0274  1.0975
  133OSM   H13B14344   2.272   6.488   5.833  2.3734  1.2007  0.3676
  133OSM   H13C14345   2.207   6.401   5.967 -0.8463  0.3378 -0.5892
  133OSM    C1214346   2.298   6.608   6.157 -0.8577  0.3135 -0.7424
  133OSM   H12A14347   2.288   6.709   6.191  1.0866 -0.3410  1.9304
  133OSM   H12B14348   2.406   6.605   6.158 -0.8375 -1.3061 -3.0518
  133OSM    C1114349   2.243   6.508   6.255  0.0950 -1.1960  0.6035
  133OSM   H11A14350   2.133   6.503   6.238  0.4420 -0.5634 -2.0193
  133OSM   H11B14351   2.261   6.532   6.361  0.6612  0.7706  0.0794
  133OSM      P14352   2.408   6.315   6.289 -0.4703 -0.1797 -0.1550
  133OSM    O1314353   2.414   6.170   6.261 -0.6158  0.3602  0.0537
  133OSM    O1414354   2.531   6.389   6.261  0.3432  0.0086  0.3411
  133OSM    O1114355   2.376   6.319   6.446  0.4881 -0.6377  0.1638
  133OSM    O1214356   2.287   6.381   6.213 -0.1217  0.1968  0.6412
  133OSM    C1S14357   2.258   6.262   6.498  0.0535  0.0544 -0.2783
  133OSM    H1S14358   2.246   6.156   6.469 -1.3530  0.0622  0.2615
  133OSM    H1T14359   2.170   6.321   6.464  0.2306  0.5981  0.2072
  133OSM     NF14360   2.122   6.242   6.713 -0.0457 -0.0113  0.0867
  133OSM    HNF14361   2.037   6.293   6.713  0.3559  0.8255  3.8998
  133OSM    C2S14362   2.246   6.287   6.650 -0.5747 -0.4037  0.6165
  133OSM    H2S14363   2.332   6.236   6.698 -0.6592 -0.1465  1.0506
  133OSM    C3S14364   2.261   6.448   6.672  0.1274  0.6358 -0.4763
  133OSM    H3S14365   2.172   6.507   6.641  0.6787  1.0412 -1.3134
  133OSM     O314366   2.364   6.514   6.602 -0.1183  0.1810  0.9316
  133OSM    HO314367   2.388   6.447   6.538 -1.1888 -0.3569  1.0836
  133OSM    C4S14368   2.277   6.478   6.821 -1.0500 -0.0890  0.0700
  133OSM    H4S14369   2.370   6.444   6.868 -0.0218  1.2614 -0.9408
  133OSM    C5S14370   2.194   6.550   6.901  0.8072  0.4462 -0.2080
  133OSM    H5S14371   2.111   6.598   6.847  1.8619  0.9908 -1.3517
  133OSM    C6S14372   2.216   6.569   7.047 -0.4856  0.0667 -0.0284
  133OSM    H6S14373   2.240   6.677   7.063 -2.5227  0.2971  1.7807
  133OSM    H6T14374   2.299   6.505   7.085 -1.2446 -1.1401 -0.3959
  133OSM    C7S14375   2.095   6.524   7.117 -0.3453 -0.8599 -0.5045
  133OSM    H7S14376   2.058   6.422   7.093 -0.4587 -1.3023  1.4835
  133OSM    H7T14377   2.011   6.590   7.086 -1.9987 -2.2876  0.8308
  133OSM    C8S14378   2.108   6.542   7.265  0.8372  0.5893 -0.1388
  133OSM    H8S14379   2.128   6.650   7.285 -0.6298  0.5861  1.5340
  133OSM    H8T14380   2.201   6.489   7.292 -0.2926 -0.6848  1.3351
  133OSM    C9S14381   2.001   6.472   7.342 -0.5559 -0.0640  0.4444
  133OSM    H9S14382   1.985   6.368   7.306 -0.5438 -0.5180  1.7452
  133OSM    H9T14383   1.899   6.516   7.328 -0.0039  1.0485 -0.1313
  133OSM   C10S14384   2.024   6.456   7.495 -0.5194  0.5427 -0.1214
  133OSM   H10S14385   2.033   6.562   7.528  1.7905 -0.2385  1.8840
  133OSM   H10T14386   2.119   6.406   7.525  0.2145  1.9348 -0.0900
  133OSM   C11S14387   1.910   6.383   7.557 -0.3045  0.4076 -0.0167
  133OSM   H11S14388   1.905   6.287   7.502 -0.5641  1.3222 -1.6370
  133OSM   H11T14389   1.816   6.437   7.532  0.8791  2.4206 -0.2555
  133OSM   C12S14390   1.925   6.346   7.706 -0.0981  0.5549 -0.6312
  133OSM   H12S14391   2.027   6.304   7.719 -0.5368  0.0003  1.1506
  133OSM   H12T14392   1.854   6.262   7.715 -1.3526  1.5980 -0.6038
  133OSM   C13S14393   1.879   6.460   7.799 -0.3704  0.4299 -0.3960
  133OSM   H13S14394   1.772   6.488   7.792 -0.7812 -1.3157 -1.4842
  133OSM   H13T14395   1.942   6.542   7.760  0.6569 -0.3141 -0.3343
  133OSM   C14S14396   1.893   6.425   7.950 -0.6114 -0.2750 -0.2128
  133OSM   H14S14397   1.994   6.391   7.978  0.2345  2.9547  0.8985
  133OSM   H14T14398   1.817   6.351   7.983 -2.5359  1.9565  0.5440
  133OSM   C15S14399   1.859   6.555   8.033  0.5345  0.3242 -0.7686
  133OSM   H15S14400   1.766   6.600   7.992 -0.2746  0.0191  0.6866
  133OSM   H15T14401   1.947   6.621   8.024  0.6885 -0.0227 -1.8715
  133OSM   C16S14402   1.839   6.526   8.183 -0.1129  0.1270  0.0302
  133OSM   H16S14403   1.757   6.451   8.181  1.2052 -1.3962  1.5286
  133OSM   H16T14404   1.792   6.611   8.238 -2.7212 -0.9899 -0.3899
  133OSM   C17S14405   1.965   6.482   8.254  0.6427 -0.0641  0.0306
  133OSM   H17S14406   1.965   6.532   8.353  0.0264  0.5720 -0.2870
  133OSM   H17T14407   2.062   6.516   8.212 -0.1883  0.7465 -1.2587
  133OSM   C18S14408   1.987   6.336   8.286  0.4327 -0.0907 -0.5731
  133OSM   H18S14409   2.080   6.318   8.344  0.5136 -0.1990 -0.7380
  133OSM   H18T14410   1.992   6.270   8.197 -0.7902  1.7204 -2.0281
  133OSM   H18U14411   1.899   6.295   8.341 -0.7789  1.9701 -0.9339
  133OSM    C1F14412   2.103   6.118   6.747 -0.0629  0.9283  0.3882
  133OSM     OF14413   2.193   6.041   6.761  0.2921 -0.0269  0.0271
  133OSM    C2F14414   1.957   6.083   6.762  0.3758 -0.1849  0.0346
  133OSM    H2F14415   1.917   6.033   6.671  0.0963  0.7512 -0.3565
  133OSM    H2G14416   1.903   6.179   6.773  0.2231 -0.2506 -0.1309
  133OSM    C3F14417   1.918   5.997   6.882 -0.9981  0.9703  0.5021
  133OSM    H3F14418   1.948   6.051   6.974 -0.4678 -0.6603  1.3117
  133OSM    H3G14419   1.973   5.901   6.869 -2.4766  0.1877 -0.0971
  133OSM    C4F14420   1.768   5.979   6.908 -0.5562  0.6228 -0.0794
  133OSM    H4F14421   1.727   5.934   6.815  2.5342 -1.8617 -0.3050
  133OSM    H4G14422   1.720   6.078   6.927 -2.8806 -0.3487 -0.7515
  133OSM    C5F14423   1.734   5.900   7.038  0.4665  0.9488 -0.4233
  133OSM    H5F14424   1.624   5.907   7.048  0.5103  1.1687 -0.0761
  133OSM    H5G14425   1.780   5.955   7.123  1.1864  1.8572 -1.3857
  133OSM    C6F14426   1.784   5.757   7.044 -0.5425 -0.3072 -0.0033
  133OSM    H6F14427   1.894   5.761   7.035 -0.4605  0.5475  1.2686
  133OSM    H6G14428   1.737   5.703   6.959  2.0236 -0.4415 -1.3746
  133OSM    C7F14429   1.730   5.683   7.171  0.0919  0.3954  0.2089
  133OSM    H7F14430   1.622   5.707   7.181 -0.2674 -0.8681 -0.5816
  133OSM    H7G14431   1.781   5.717   7.263  1.8766  0.2788 -0.7258
  133OSM    C8F14432   1.739   5.526   7.151  0.6580  0.0957  0.0940
  133OSM    H8F14433   1.826   5.499   7.088 -1.0299  1.2243 -2.8608
  133OSM    H8G14434   1.640   5.500   7.107 -0.2943  0.2725  2.0770
  133OSM    C9F14435   1.739   5.452   7.284 -0.5249  0.5333 -0.3119
  133OSM    H9F14436   1.835   5.445   7.336 -1.3799 -1.0448  1.0823
  133OSM   C10F14437   1.642   5.397   7.355  0.6574 -0.5221 -0.6541
  133OSM   H10F14438   1.687   5.352   7.444  0.2509  1.6806  0.6962
  133OSM   C11F14439   1.494   5.369   7.339  0.4537 -0.1423 -0.4002
  133OSM   H11F14440   1.481   5.267   7.297 -0.0481 -0.7631  1.2305
  133OSM   H11G14441   1.459   5.451   7.273  1.6462  1.6348  1.1211
  133OSM   C12F14442   1.402   5.364   7.464  0.2839  0.3214 -1.4911
  133OSM   H12F14443   1.348   5.458   7.442 -1.4607 -0.7666 -1.9891
  133OSM   H12G14444   1.461   5.388   7.555 -1.2104  2.6989 -1.1155
  133OSM   C13F14445   1.303   5.243   7.473 -0.4460 -0.4258 -0.6022
  133OSM   H13F14446   1.359   5.147   7.464 -0.4895 -0.7617  2.2651
  133OSM   H13G14447   1.229   5.260   7.392 -1.4848  2.3627  0.8829
  133OSM   C14F14448   1.229   5.235   7.608  0.5833  0.1426  0.2954
  133OSM   H14F14449   1.204   5.342   7.628  4.4245  1.4238 -1.2060
  133OSM   H14G14450   1.297   5.202   7.689 -0.0830 -0.4313  0.6180
  133OSM   C15F14451   1.113   5.132   7.610  0.2456 -1.1943 -0.2445
  133OSM   H15F14452   1.166   5.035   7.598  1.2195 -0.6510 -0.3437
  133OSM   H15G14453   1.043   5.148   7.525  0.8664 -3.9229 -1.3249
  133OSM   C16F14454   1.034   5.123   7.744 -0.4336  0.2844 -0.3894
  133OSM   H16F14455   0.974   5.030   7.731  1.3993 -0.8411 -0.9576
  133OSM   H16G14456   0.970   5.212   7.762  1.6502  1.4031  1.7627
  133OSM   C17F14457   1.121   5.127   7.867 -0.5477 -0.5566 -0.4458
  133OSM   H17F14458   1.186   5.215   7.884 -1.0535 -0.6259  2.0684
  133OSM   H17G14459   1.195   5.045   7.862 -1.1354 -1.1214 -0.0201
  133OSM   C18F14460   1.038   5.101   7.991 -0.4213  0.2710  0.3505
  133OSM   H18F14461   1.100   5.070   8.078 -0.5216 -2.1471 -0.4017
  133OSM   H18G14462   0.965   5.021   7.969 -0.6588  0.8010 -0.8854
  133OSM   H18H14463   0.982   5.191   8.023 -0.8475 -0.0538  0.5093
  134OSM      N14464   3.440   3.191   6.349 -0.3963 -0.4920  0.0242
  134OSM    C1514465   3.434   3.115   6.219  0.3724 -0.6731 -0.5373
  134OSM   H15A14466   3.459   3.177   6.134  2.2665 -1.6952 -0.7706
  134OSM   H15B14467   3.331   3.082   6.215  0.1551 -0.0155 -0.2605
  134OSM   H15C14468   3.499   3.028   6.220  1.2317 -0.0689 -2.2880
  134OSM    C1414469   3.590   3.239   6.357  0.1504  0.8604 -0.2260
  134OSM   H14A14470   3.603   3.268   6.460 -0.9176 -1.1174  0.5011
  134OSM   H14B14471   3.611   3.316   6.285  0.0076  1.9208  0.8546
  134OSM   H14C14472   3.655   3.158   6.328 -1.7302 -0.9871  0.5901
  134OSM    C1314473   3.353   3.309   6.355  0.3434 -0.0696 -0.1967
  134OSM   H13A14474   3.355   3.359   6.450  0.2394 -0.3715 -0.0367
  134OSM   H13B14475   3.251   3.276   6.344  0.7153 -1.6134  0.9396
  134OSM   H13C14476   3.380   3.384   6.281 -1.8850 -0.7521 -1.7399
  134OSM    C1214477   3.418   3.104   6.468  0.2460  0.2690 -0.2166
  134OSM   H12A14478   3.439   3.162   6.557 -2.5340  3.4199 -1.5076
  134OSM   H12B14479   3.484   3.019   6.472 -0.4920 -0.3355 -0.7245
  134OSM    C1114480   3.277   3.039   6.491 -0.0594  0.6285 -0.7314
  134OSM   H11A14481   3.201   3.119   6.503 -1.0555 -0.4953  0.8344
  134OSM   H11B14482   3.279   2.996   6.594  2.9807 -0.7816 -1.3192
  134OSM      P14483   3.305   2.802   6.387 -0.1678 -0.4770  0.1707
  134OSM    O1314484   3.288   2.766   6.247  0.2807  0.0142  0.7302
  134OSM    O1414485   3.443   2.804   6.435 -0.3948 -0.1618 -0.4062
  134OSM    O1114486   3.205   2.719   6.483  0.0003 -0.2275 -0.2404
  134OSM    O1214487   3.235   2.946   6.383 -0.1498 -0.3411 -0.3179
  134OSM    C1S14488   3.216   2.734   6.626  0.2061  1.1261  0.1481
  134OSM    H1S14489   3.152   2.816   6.666  1.4450  1.1769  2.1207
  134OSM    H1T14490   3.321   2.753   6.658  0.2184  1.0082  0.1795
  134OSM     NF14491   3.185   2.614   6.839  0.8116  0.1960  0.1625
  134OSM    HNF14492   3.248   2.547   6.875  1.1763  0.7692  0.6074
  134OSM    C2S14493   3.188   2.600   6.696  0.0844  0.1097 -0.1327
  134OSM    H2S14494   3.085   2.567   6.672 -0.2630  1.3010 -0.2721
  134OSM    C3S14495   3.282   2.479   6.642 -1.0295 -0.4914 -0.2258
  134OSM    H3S14496   3.388   2.508   6.659 -1.5585  1.5363 -0.2298
  134OSM     O314497   3.262   2.458   6.501  0.3877  0.1061 -0.1800
  134OSM    HO314498   3.224   2.542   6.476 -0.0670  0.5071  1.8212
  134OSM    C4S14499   3.242   2.359   6.719  0.5359 -0.7145 -0.7002
  134OSM    H4S14500   3.134   2.338   6.717  0.6462 -1.3075 -0.3970
  134OSM    C5S14501   3.320   2.284   6.803  0.4369  0.9581  0.7295
  134OSM    H5S14502   3.425   2.309   6.824  0.4250  0.9997  0.7396
  134OSM    C6S14503   3.267   2.175   6.890  0.1638 -0.0839  0.1003
  134OSM    H6S14504   3.312   2.089   6.835  1.2556  1.2209 -1.0889
  134OSM    H6T14505   3.156   2.181   6.892  0.1574 -0.4166  1.2795
  134OSM    C7S14506   3.307   2.165   7.032  0.6313 -0.4128  0.5001
  134OSM    H7S14507   3.410   2.199   7.056  0.9603 -0.2853 -1.0536
  134OSM    H7T14508   3.295   2.059   7.063  1.1535 -0.7923 -0.5553
  134OSM    C8S14509   3.217   2.263   7.118 -0.2572  0.0591  0.7047
  134OSM    H8S14510   3.114   2.223   7.132 -0.4218  0.8770  2.0065
  134OSM    H8T14511   3.187   2.351   7.057 -0.0335  0.0046  0.5163
  134OSM    C9S14512   3.265   2.304   7.253 -0.2647  0.0281 -0.0220
  134OSM    H9S14513   3.188   2.382   7.275 -1.6487 -2.0377  2.8044
  134OSM    H9T14514   3.366   2.347   7.244 -0.8899  1.2646 -1.2181
  134OSM   C10S14515   3.245   2.203   7.372  0.2151  0.5428  0.0144
  134OSM   H10S14516   3.315   2.116   7.368  2.3297  2.2248 -0.4788
  134OSM   H10T14517   3.140   2.166   7.370 -0.2922  1.9879 -0.6674
  134OSM   C11S14518   3.273   2.263   7.511  0.6142 -0.8298  0.8021
  134OSM   H11S14519   3.196   2.331   7.555  1.6036  0.7541  0.1215
  134OSM   H11T14520   3.361   2.329   7.499 -1.0367  1.2686 -0.2002
  134OSM   C12S14521   3.303   2.157   7.612 -0.0234 -0.3574 -0.1144
  134OSM   H12S14522   3.372   2.077   7.575 -1.6673 -1.8562  0.0049
  134OSM   H12T14523   3.200   2.119   7.632 -0.4160  0.5224 -0.4459
  134OSM   C13S14524   3.381   2.213   7.730 -0.2877 -0.4895  0.2747
  134OSM   H13S14525   3.337   2.314   7.747 -0.3815 -0.6376  0.9155
  134OSM   H13T14526   3.485   2.230   7.695 -1.6721 -0.6073 -4.1337
  134OSM   C14S14527   3.372   2.128   7.857 -0.4312  0.1100  0.1371
  134OSM   H14S14528   3.418   2.031   7.829  0.5679  0.6421 -0.1159
  134OSM   H14T14529   3.266   2.120   7.888 -0.3981 -0.9542  0.0007
  134OSM   C15S14530   3.445   2.190   7.983  0.3875 -0.2866  0.0792
  134OSM   H15S14531   3.400   2.290   8.004  1.9703  0.4243  0.1167
  134OSM   H15T14532   3.551   2.196   7.950  0.4956  4.0321  0.8724
  134OSM   C16S14533   3.433   2.103   8.109 -0.2877 -0.6557  0.4075
  134OSM   H16S14534   3.462   1.996   8.100  1.0028 -0.4002  1.3979
  134OSM   H16T14535   3.325   2.113   8.132 -0.0308  0.1612  1.2673
  134OSM   C17S14536   3.506   2.169   8.226 -0.3407 -0.0853  0.3425
  134OSM   H17S14537   3.454   2.265   8.244  2.4433  1.5056  0.1939
  134OSM   H17T14538   3.615   2.188   8.214  0.0782 -1.4453  1.7977
  134OSM   C18S14539   3.493   2.094   8.359  0.6102  0.0498 -0.0324
  134OSM   H18S14540   3.572   2.117   8.434 -1.8571  0.7899  2.4525
  134OSM   H18T14541   3.486   1.983   8.352  2.3946  0.0052 -1.3085
  134OSM   H18U14542   3.398   2.112   8.414 -1.5121  0.1901 -3.6196
  134OSM    C1F14543   3.103   2.692   6.915  0.0687 -0.5249 -1.1771
  134OSM     OF14544   3.015   2.760   6.863 -0.0184  0.1956 -0.5550
  134OSM    C2F14545   3.129   2.702   7.063 -0.3099 -0.3804  0.1884
  134OSM    H2F14546   3.199   2.787   7.080 -0.2254  0.0511 -2.1175
  134OSM    H2G14547   3.178   2.605   7.088 -1.8477 -0.4803  2.9475
  134OSM    C3F14548   3.006   2.723   7.149 -0.2655 -0.8201  0.6266
  134OSM    H3F14549   2.929   2.643   7.148  0.7124 -1.7668 -0.5898
  134OSM    H3G14550   2.953   2.816   7.118 -0.5910 -1.8070 -1.9166
  134OSM    C4F14551   3.035   2.735   7.299  0.3773 -0.3214 -0.7226
  134OSM    H4F14552   3.116   2.809   7.315 -1.0919  0.9318  1.1023
  134OSM    H4G14553   3.100   2.648   7.323  1.0306  1.0380  2.6004
  134OSM    C5F14554   2.925   2.776   7.393  0.5415 -0.5798 -0.3352
  134OSM    H5F14555   2.836   2.712   7.374 -0.5154  0.9506 -0.5963
  134OSM    H5G14556   2.882   2.870   7.352 -1.4243 -1.8032 -1.1695
  134OSM    C6F14557   2.970   2.785   7.543  0.6234  0.1029 -0.1041
  134OSM    H6F14558   3.069   2.833   7.556  0.9276 -1.1353  2.5431
  134OSM    H6G14559   2.975   2.680   7.578 -2.5790  0.0568  0.3764
  134OSM    C7F14560   2.864   2.844   7.632  0.3227 -0.4145 -0.3844
  134OSM    H7F14561   2.797   2.762   7.663 -2.9504  2.0954 -0.5910
  134OSM    H7G14562   2.797   2.914   7.578  0.0648 -0.6690 -0.3910
  134OSM    C8F14563   2.925   2.923   7.755 -0.0278  0.1120 -0.6292
  134OSM    H8F14564   2.986   3.005   7.713 -0.9841 -0.1727 -2.5995
  134OSM    H8G14565   2.994   2.852   7.807  1.5384  2.1177  0.1301
  134OSM    C9F14566   2.815   2.978   7.837 -0.6553  0.6728 -0.0988
  134OSM    H9F14567   2.716   2.932   7.829  0.2183 -1.3377  0.1990
  134OSM   C10F14568   2.832   3.084   7.919  0.3014 -0.7601 -0.7134
  134OSM   H10F14569   2.749   3.125   7.978  2.6841  2.5156  0.4827
  134OSM   C11F14570   2.965   3.151   7.946  1.0248 -0.5386  0.6098
  134OSM   H11F14571   2.950   3.254   7.988 -3.7908  0.2914 -2.7164
  134OSM   H11G14572   3.018   3.155   7.849 -0.1285 -0.7454 -0.0276
  134OSM   C12F14573   3.058   3.068   8.034  0.0179 -0.1554  0.2003
  134OSM   H12F14574   3.159   3.112   8.030  0.7449 -1.9536 -3.1937
  134OSM   H12G14575   3.068   2.962   8.003  0.8105 -0.8698  2.7827
  134OSM   C13F14576   3.008   3.067   8.177 -0.2125 -0.8452  0.1796
  134OSM   H13F14577   2.915   3.005   8.171 -0.4118 -0.5672  0.3702
  134OSM   H13G14578   2.989   3.170   8.213  2.1646  0.6647 -2.6843
  134OSM   C14F14579   3.108   3.005   8.274 -0.5287 -0.1828  1.2183
  134OSM   H14F14580   3.198   3.070   8.284  0.1705 -0.7660 -1.0734
  134OSM   H14G14581   3.141   2.903   8.246 -0.3585  0.2032 -0.0090
  134OSM   C15F14582   3.049   2.989   8.419 -0.0161  0.0083  0.3150
  134OSM   H15F14583   3.109   2.915   8.477  0.5580 -2.8493 -3.7550
  134OSM   H15G14584   2.949   2.941   8.409  0.5737 -0.9030 -1.2131
  134OSM   C16F14585   3.033   3.124   8.501 -0.2608  0.2635  0.6910
  134OSM   H16F14586   2.974   3.200   8.445  0.9946  1.0539  0.4000
  134OSM   H16G14587   3.132   3.173   8.513 -0.4457  0.7371  0.2690
  134OSM   C17F14588   2.982   3.105   8.645 -0.3270 -0.2476 -0.0618
  134OSM   H17F14589   3.061   3.042   8.692  0.7176  1.6032  0.7071
  134OSM   H17G14590   2.890   3.043   8.634 -0.0468 -0.5371 -0.8325
  134OSM   C18F14591   2.950   3.229   8.725 -0.4547 -0.2368 -0.6360
  134OSM   H18F14592   2.926   3.208   8.831  1.1801 -3.1151 -0.7824
  134OSM   H18G14593   2.862   3.279   8.680 -0.2116  0.9500  0.1826
  134OSM   H18H14594   3.044   3.287   8.717  0.0204 -1.0321 -0.8671
  135OSM      N14595   2.996   2.499   6.075  0.0345 -0.0373  0.3191
  135OSM    C1514596   3.065   2.621   6.019 -0.3169 -0.9747 -1.0280
  135OSM   H15A14597   3.115   2.672   6.100 -2.3680  0.3164 -0.5523
  135OSM   H15B14598   2.986   2.688   5.988  0.9271  0.8771 -0.3065
  135OSM   H15C14599   3.132   2.602   5.936  0.2228  0.5440 -0.9439
  135OSM    C1414600   2.912   2.429   5.976 -0.2621 -0.2833 -0.3796
  135OSM   H14A14601   2.983   2.384   5.908  0.3357  1.0265 -0.6250
  135OSM   H14B14602   2.859   2.494   5.909 -0.4459  0.9606  0.9486
  135OSM   H14C14603   2.848   2.356   6.023 -1.3467  1.2448  0.5553
  135OSM    C1314604   3.107   2.404   6.134 -0.3591  0.0458 -0.0585
  135OSM   H13A14605   3.059   2.322   6.187  0.1503 -1.6565 -2.1517
  135OSM   H13B14606   3.178   2.461   6.192  0.4981 -1.4623  0.4124
  135OSM   H13C14607   3.164   2.364   6.051  2.1289  2.1266  0.5743
  135OSM    C1214608   2.898   2.542   6.188  0.6777 -0.0733 -0.0230
  135OSM   H12A14609   2.861   2.458   6.245 -0.2968  0.8529  0.7140
  135OSM   H12B14610   2.811   2.579   6.136 -0.5168  0.9895  2.6487
  135OSM    C1114611   2.944   2.649   6.288  0.8122 -0.0616 -0.6702
  135OSM   H11A14612   3.046   2.624   6.324  0.7965  1.3228  0.3587
  135OSM   H11B14613   2.870   2.635   6.369  0.4232  1.7877 -0.6796
  135OSM      P14614   2.809   2.864   6.243 -0.0765  0.3187 -0.0927
  135OSM    O1314615   2.835   3.003   6.202 -0.8910  0.2509 -0.3962
  135OSM    O1414616   2.698   2.792   6.176 -0.1787  0.1516  0.4740
  135OSM    O1114617   2.788   2.861   6.396  0.1965  0.1723 -0.5348
  135OSM    O1214618   2.942   2.785   6.236 -0.2224  0.2402 -0.0986
  135OSM    C1S14619   2.875   2.929   6.482  0.6625 -0.0160 -0.3879
  135OSM    H1S14620   2.895   3.034   6.450 -0.6312  0.3491 -0.0228
  135OSM    H1T14621   2.976   2.882   6.484 -0.4655 -2.5456 -0.6131
  135OSM     NF14622   2.921   2.963   6.722  0.3910 -0.5718 -0.0654
  135OSM    HNF14623   2.952   2.882   6.771  1.0615 -1.3351 -1.7128
  135OSM    C2S14624   2.818   2.935   6.630 -0.8326 -0.7689 -0.4630
  135OSM    H2S14625   2.744   3.018   6.625 -0.0651  0.0838  1.7086
  135OSM    C3S14626   2.748   2.803   6.674 -0.5826 -0.3219  0.3433
  135OSM    H3S14627   2.825   2.723   6.671  2.8078  2.8270 -3.1184
  135OSM     O314628   2.646   2.771   6.582 -0.6386 -0.4319  0.3916
  135OSM    HO314629   2.693   2.772   6.499  0.2378 -0.3331  0.8801
  135OSM    C4S14630   2.685   2.833   6.807 -0.0237  0.0372  0.1360
  135OSM    H4S14631   2.653   2.936   6.829  1.4222  0.1441  1.8513
  135OSM    C5S14632   2.673   2.739   6.901  0.3348  0.0520  0.0875
  135OSM    H5S14633   2.707   2.635   6.889 -0.7844 -0.4991  1.5658
  135OSM    C6S14634   2.604   2.761   7.032 -0.2988 -0.2019 -0.2333
  135OSM    H6S14635   2.577   2.867   7.051 -0.1977  0.0145 -1.2650
  135OSM    H6T14636   2.678   2.725   7.106  0.5614  2.1246  0.0793
  135OSM    C7S14637   2.460   2.698   7.054 -1.1095 -0.3731 -0.3358
  135OSM    H7S14638   2.471   2.587   7.060 -2.2216 -0.5896 -1.8522
  135OSM    H7T14639   2.398   2.736   6.970 -2.5750 -0.0415  0.8816
  135OSM    C8S14640   2.392   2.731   7.183 -0.4760 -0.4896 -0.0503
  135OSM    H8S14641   2.295   2.678   7.193  0.5570 -2.2613  0.9580
  135OSM    H8T14642   2.374   2.838   7.204  1.0746 -0.3291  0.5270
  135OSM    C9S14643   2.475   2.673   7.308  0.0718 -0.0850 -0.5545
  135OSM    H9S14644   2.568   2.734   7.314  0.3839 -0.5859 -0.2728
  135OSM    H9T14645   2.500   2.568   7.283  0.7066 -0.2178  0.6184
  135OSM   C10S14646   2.400   2.686   7.437 -0.6043  0.6610  0.5683
  135OSM   H10S14647   2.308   2.624   7.436 -0.1246 -0.0760  1.3569
  135OSM   H10T14648   2.360   2.790   7.438 -2.3432  0.0243 -0.6909
  135OSM   C11S14649   2.495   2.660   7.549 -0.1968 -0.0571 -0.1005
  135OSM   H11S14650   2.577   2.735   7.548 -1.3864  1.2555 -1.2908
  135OSM   H11T14651   2.540   2.560   7.532 -2.1505 -1.3483  1.9757
  135OSM   C12S14652   2.428   2.650   7.689  0.2722  1.2038 -0.1941
  135OSM   H12S14653   2.348   2.573   7.697 -0.0757  1.6729  0.9094
  135OSM   H12T14654   2.379   2.745   7.717 -0.6559  0.5382  0.4747
  135OSM   C13S14655   2.535   2.623   7.791  0.9165 -0.2277 -0.2050
  135OSM   H13S14656   2.615   2.697   7.776 -0.1636  1.1545  0.7098
  135OSM   H13T14657   2.559   2.514   7.797 -0.9275 -0.5569  2.5461
  135OSM   C14S14658   2.482   2.634   7.933 -0.0459  0.3595  0.2090
  135OSM   H14S14659   2.403   2.557   7.945  1.5542 -1.3977 -0.3234
  135OSM   H14T14660   2.439   2.737   7.940 -1.7365 -0.3769  0.7793
  135OSM   C15S14661   2.601   2.619   8.029  0.6800  0.6932 -0.0170
  135OSM   H15S14662   2.689   2.684   8.006  0.1756  1.7152  0.9299
  135OSM   H15T14663   2.634   2.514   8.012 -2.2722 -0.3089  0.2427
  135OSM   C16S14664   2.554   2.636   8.175  0.1125 -0.8195 -0.0644
  135OSM   H16S14665   2.635   2.618   8.249  0.1958  1.3220  0.3824
  135OSM   H16T14666   2.485   2.550   8.186  0.7220 -1.3026  0.0332
  135OSM   C17S14667   2.504   2.774   8.214  0.5528 -0.6947 -0.3886
  135OSM   H17S14668   2.476   2.769   8.321 -1.6939  0.4915 -0.9116
  135OSM   H17T14669   2.409   2.794   8.161 -0.2051  0.9937  1.5510
  135OSM   C18S14670   2.599   2.889   8.190  0.6361  0.2066  0.5071
  135OSM   H18S14671   2.654   2.881   8.093  0.6842  2.0869  0.3660
  135OSM   H18T14672   2.662   2.888   8.281 -0.1635 -1.4322  1.0607
  135OSM   H18U14673   2.545   2.986   8.196 -1.1300 -0.6579 -1.1072
  135OSM    C1F14674   2.985   3.078   6.730 -0.0964 -0.6730  0.1891
  135OSM     OF14675   2.952   3.176   6.663 -0.6275  0.1555  0.2460
  135OSM    C2F14676   3.104   3.091   6.823 -0.6898 -0.4950 -0.6276
  135OSM    H2F14677   3.194   3.086   6.758  0.4342  0.8138  0.8056
  135OSM    H2G14678   3.106   3.009   6.899 -0.4323 -2.2166 -2.4461
  135OSM    C3F14679   3.102   3.234   6.891 -0.4798 -0.2421 -1.7888
  135OSM    H3F14680   3.066   3.310   6.819 -1.1619  0.4346 -0.7467
  135OSM    H3G14681   3.208   3.248   6.923 -0.3195 -2.3409 -1.3409
  135OSM    C4F14682   3.016   3.238   7.018 -0.8493  0.1946 -0.4684
  135OSM    H4F14683   2.917   3.191   7.006 -0.4915 -0.7473  0.1813
  135OSM    H4G14684   3.006   3.344   7.050 -0.2055  0.1344 -0.0336
  135OSM    C5F14685   3.078   3.166   7.136  0.4629 -0.0195  0.2064
  135OSM    H5F14686   3.181   3.201   7.156  1.4207 -1.5373 -1.8628
  135OSM    H5G14687   3.078   3.057   7.113 -1.0958  0.1665 -0.7647
  135OSM    C6F14688   3.006   3.180   7.273 -0.5130 -0.4667  0.3909
  135OSM    H6F14689   3.075   3.135   7.347  0.4814  0.8557  0.2863
  135OSM    H6G14690   2.911   3.122   7.269 -0.8501  0.2224 -2.0683
  135OSM    C7F14691   2.973   3.322   7.322  0.1108 -0.2906 -0.5092
  135OSM    H7F14692   2.896   3.356   7.250 -0.2695 -2.4650 -1.1717
  135OSM    H7G14693   3.066   3.382   7.314  0.5125 -0.7027  1.0120
  135OSM    C8F14694   2.914   3.318   7.456 -0.1103  0.0653  0.6525
  135OSM    H8F14695   2.989   3.260   7.513  0.9986  0.0680 -0.7906
  135OSM    H8G14696   2.816   3.265   7.461 -0.3119  0.5192  1.9076
  135OSM    C9F14697   2.899   3.459   7.500  0.7688  0.0256  0.0179
  135OSM    H9F14698   2.867   3.539   7.432  0.4020  0.4287  0.6568
  135OSM   C10F14699   2.928   3.506   7.617  0.1424  0.2829 -0.9528
  135OSM   H10F14700   2.932   3.616   7.619 -0.3991  0.2960 -0.6435
  135OSM   C11F14701   2.982   3.444   7.747  0.8631 -0.0938  0.5852
  135OSM   H11F14702   3.030   3.346   7.724 -1.1306 -0.7057 -1.1087
  135OSM   H11G14703   2.888   3.435   7.805  1.4154  4.7133  2.4730
  135OSM   C12F14704   3.082   3.545   7.813  0.4405  1.0396 -0.4737
  135OSM   H12F14705   3.043   3.649   7.809  0.7985  1.2565  1.1582
  135OSM   H12G14706   3.177   3.538   7.755  0.5865  1.1649 -0.2507
  135OSM   C13F14707   3.119   3.501   7.956  0.3261 -0.4487 -0.4395
  135OSM   H13F14708   3.121   3.390   7.960  0.8368 -0.4481 -0.6028
  135OSM   H13G14709   3.042   3.532   8.030 -1.0577 -0.7308 -1.7424
  135OSM   C14F14710   3.255   3.557   7.997  0.4604 -0.2028 -0.2046
  135OSM   H14F14711   3.256   3.668   7.990 -0.0331 -0.2116 -0.5139
  135OSM   H14G14712   3.330   3.520   7.924 -0.0799  2.3606 -2.1501
  135OSM   C15F14713   3.278   3.527   8.142  0.7013  0.4533  0.2791
  135OSM   H15F14714   3.275   3.418   8.162 -4.5262  0.0218 -1.9759
  135OSM   H15G14715   3.185   3.560   8.193  1.1615  0.0790  1.3608
  135OSM   C16F14716   3.405   3.591   8.195 -0.2785 -0.5208 -0.1631
  135OSM   H16F14717   3.420   3.686   8.139 -0.7179 -0.7812 -0.7201
  135OSM   H16G14718   3.492   3.527   8.169  0.8792  1.2127 -0.7205
  135OSM   C17F14719   3.391   3.620   8.346  0.1667 -0.5200  0.6270
  135OSM   H17F14720   3.299   3.681   8.357 -0.3007 -1.3145  1.1608
  135OSM   H17G14721   3.472   3.686   8.387 -1.7597  1.4408  1.3717
  135OSM   C18F14722   3.373   3.491   8.426 -1.2339  0.1620  0.1114
  135OSM   H18F14723   3.356   3.520   8.532 -1.4583 -0.1078  0.1508
  135OSM   H18G14724   3.470   3.439   8.415 -0.8065  1.0598 -0.3352
  135OSM   H18H14725   3.284   3.433   8.393  0.1549 -1.9023 -0.0661
  136OSM      N14726   1.093   3.776   5.588  0.7711 -0.1053  0.9201
  136OSM    C1514727   1.107   3.730   5.446 -0.3962  0.1621 -0.6021
  136OSM   H15A14728   1.026   3.760   5.380 -0.6684  0.0722 -0.3131
  136OSM   H15B14729   1.107   3.622   5.447  1.4325  0.1499 -0.9048
  136OSM   H15C14730   1.197   3.759   5.395 -0.0899 -0.1224 -0.2213
  136OSM    C1414731   1.210   3.724   5.667 -0.3936  0.3922  0.2749
  136OSM   H14A14732   1.200   3.739   5.774 -1.8465  1.5791 -0.0048
  136OSM   H14B14733   1.297   3.781   5.638 -0.5134 -0.0545 -0.9969
  136OSM   H14C14734   1.234   3.620   5.657  0.1283  0.6824 -1.5721
  136OSM    C1314735   1.100   3.924   5.604  0.8950  0.1221  0.4792
  136OSM   H13A14736   1.192   3.959   5.559  1.4675  1.4095  2.6073
  136OSM   H13B14737   1.092   3.964   5.704  0.8666  1.5485 -0.0919
  136OSM   H13C14738   1.014   3.960   5.551  2.3914  1.6342 -0.9911
  136OSM    C1214739   0.964   3.734   5.655  0.1537  0.1193  0.0587
  136OSM   H12A14740   0.944   3.630   5.632  2.6996 -0.3188 -0.3563
  136OSM   H12B14741   0.882   3.790   5.614  0.3344  0.4409  0.1318
  136OSM    C1114742   0.948   3.742   5.813 -0.2207 -0.4333  0.2274
  136OSM   H11A14743   1.002   3.654   5.855  1.2710  1.0786  1.6000
  136OSM   H11B14744   0.841   3.720   5.834 -0.0427  1.1777  3.0392
  136OSM      P14745   0.934   3.984   5.917  0.5069 -0.1856  0.1523
  136OSM    O1314746   1.028   4.094   5.890  0.0125  0.2385  0.4936
  136OSM    O1414747   0.809   3.983   5.835  0.3461 -0.5524  0.4115
  136OSM    O1114748   0.895   3.981   6.073 -0.4421 -0.2814 -0.9644
  136OSM    O1214749   1.007   3.854   5.879 -0.0009  0.1804 -0.2938
  136OSM    C1S14750   0.807   3.883   6.124 -0.4501 -0.7812  0.5380
  136OSM    H1S14751   0.846   3.779   6.117 -1.7437 -1.1126 -2.9689
  136OSM    H1T14752   0.712   3.877   6.066  1.4700 -0.0511 -2.8184
  136OSM     NF14753   0.742   3.800   6.341 -0.0511 -0.8150  0.2314
  136OSM    HNF14754   0.644   3.791   6.355 -0.5691  3.4855  0.0968
  136OSM    C2S14755   0.787   3.922   6.274  0.4918 -0.0905  0.5244
  136OSM    H2S14756   0.882   3.959   6.318  1.3975 -1.9713  0.1797
  136OSM    C3S14757   0.688   4.038   6.285 -0.0904 -0.0272  0.5394
  136OSM    H3S14758   0.587   4.007   6.251  0.3478 -1.5508  0.5536
  136OSM     O314759   0.716   4.150   6.200 -0.3353 -0.2007  0.7091
  136OSM    HO314760   0.777   4.110   6.138 -0.8933  0.1392 -0.0725
  136OSM    C4S14761   0.664   4.077   6.433 -0.1251  1.1915  0.3332
  136OSM    H4S14762   0.576   4.033   6.481 -0.2767 -0.9033 -1.7788
  136OSM    C5S14763   0.730   4.159   6.510  0.2625 -1.1731 -1.0946
  136OSM    H5S14764   0.833   4.188   6.484  0.3657 -0.9715 -0.4813
  136OSM    C6S14765   0.698   4.193   6.658  0.2299 -0.6809  0.1317
  136OSM    H6S14766   0.606   4.255   6.662 -1.8892 -3.7198 -0.6033
  136OSM    H6T14767   0.788   4.248   6.694  1.1574 -1.4797 -0.9098
  136OSM    C7S14768   0.690   4.071   6.757 -0.2860 -0.4155 -0.0480
  136OSM    H7S14769   0.777   4.003   6.754  1.5072  1.8500 -0.8314
  136OSM    H7T14770   0.619   3.998   6.712  0.2360 -2.8245  2.8688
  136OSM    C8S14771   0.648   4.129   6.893 -0.1434 -0.2315  0.3687
  136OSM    H8S14772   0.563   4.201   6.891  0.2740  0.3404  2.3149
  136OSM    H8T14773   0.741   4.180   6.924  0.4589 -1.6315  0.9078
  136OSM    C9S14774   0.596   4.023   7.004 -0.2401 -0.0786 -0.1215
  136OSM    H9S14775   0.654   3.928   6.994  0.3202  0.5728 -3.5943
  136OSM    H9T14776   0.489   4.004   6.982 -0.5793  1.9229 -0.2779
  136OSM   C10S14777   0.611   4.086   7.143 -0.0864  0.0076 -0.0202
  136OSM   H10S14778   0.539   4.170   7.150 -1.9812 -1.2922 -2.9633
  136OSM   H10T14779   0.713   4.126   7.162 -0.0968 -0.0228  0.0998
  136OSM   C11S14780   0.571   3.973   7.244 -0.4408 -0.6954 -0.3024
  136OSM   H11S14781   0.648   3.894   7.234  0.7340  0.4006 -0.0619
  136OSM   H11T14782   0.466   3.947   7.218  0.3021 -0.1477 -4.1489
  136OSM   C12S14783   0.581   4.021   7.395 -0.8390 -0.0470  0.8108
  136OSM   H12S14784   0.548   4.127   7.382 -3.1522 -0.8338  0.0972
  136OSM   H12T14785   0.686   4.019   7.431 -0.0929  1.4796 -1.1552
  136OSM   C13S14786   0.479   3.943   7.480 -0.2819  0.0869  0.2138
  136OSM   H13S14787   0.510   3.837   7.463 -0.1297 -0.0575  1.3418
  136OSM   H13T14788   0.375   3.954   7.443 -1.3143 -1.9289  2.4105
  136OSM   C14S14789   0.493   3.970   7.628  0.4565 -0.3542  1.2344
  136OSM   H14S14790   0.485   4.079   7.649  1.4087  0.0257 -0.2470
  136OSM   H14T14791   0.597   3.939   7.653  0.8423  0.8598  1.1847
  136OSM   C15S14792   0.396   3.888   7.711  1.0800  0.1394  0.8479
  136OSM   H15S14793   0.405   3.779   7.696 -1.0589  0.1589 -0.8557
  136OSM   H15T14794   0.290   3.912   7.688  0.3325 -1.0867  2.9295
  136OSM   C16S14795   0.422   3.914   7.865 -0.0159  0.3295  0.5946
  136OSM   H16S14796   0.380   4.013   7.890 -1.1858 -0.2419  0.9014
  136OSM   H16T14797   0.530   3.905   7.893 -0.2673 -0.3337  1.3778
  136OSM   C17S14798   0.351   3.814   7.951 -0.4814  0.6879 -0.7133
  136OSM   H17S14799   0.386   3.712   7.922 -0.3007  0.9545 -1.4316
  136OSM   H17T14800   0.243   3.826   7.932 -0.6182 -0.4676 -0.7325
  136OSM   C18S14801   0.386   3.831   8.103  0.3871 -0.7389  0.4657
  136OSM   H18S14802   0.311   3.775   8.162 -0.0876 -1.3595 -0.7130
  136OSM   H18T14803   0.384   3.936   8.139 -0.0408 -0.2456 -0.9825
  136OSM   H18U14804   0.491   3.795   8.111  0.1195 -1.4172  0.9714
  136OSM    C1F14805   0.838   3.710   6.374 -0.1265 -0.6108  0.7858
  136OSM     OF14806   0.957   3.723   6.338  0.0449 -0.2134  0.5206
  136OSM    C2F14807   0.797   3.595   6.466  0.0371 -0.2654  0.6758
  136OSM    H2F14808   0.813   3.498   6.414 -3.4872 -0.0295 -1.0091
  136OSM    H2G14809   0.687   3.612   6.469  0.1166  0.6429 -1.1116
  136OSM    C3F14810   0.856   3.600   6.612 -0.7763 -0.2233 -0.4173
  136OSM    H3F14811   0.824   3.693   6.663 -0.8740 -1.0451  1.0342
  136OSM    H3G14812   0.965   3.584   6.600 -1.0836 -1.6480 -1.3471
  136OSM    C4F14813   0.795   3.483   6.687 -0.3774 -0.5641 -0.0931
  136OSM    H4F14814   0.799   3.400   6.614  0.3956 -1.4775  0.9768
  136OSM    H4G14815   0.689   3.501   6.714  0.2578  0.8822  1.5674
  136OSM    C5F14816   0.877   3.449   6.816 -0.3670  0.1362  0.0104
  136OSM    H5F14817   0.815   3.365   6.855 -1.9826  0.8994 -0.8687
  136OSM    H5G14818   0.868   3.535   6.885 -0.8512  0.6999 -0.7388
  136OSM    C6F14819   1.027   3.417   6.810 -0.4201 -0.2137  1.0536
  136OSM    H6F14820   1.064   3.382   6.711  1.0847 -1.3910  2.0170
  136OSM    H6G14821   1.038   3.325   6.870  2.4886 -1.6839 -1.6033
  136OSM    C7F14822   1.121   3.527   6.853 -0.1537  0.2869 -0.0676
  136OSM    H7F14823   1.101   3.625   6.805  0.8373 -1.1745 -3.5458
  136OSM    H7G14824   1.221   3.491   6.822  0.0535 -0.5071  1.4685
  136OSM    C8F14825   1.116   3.539   7.006 -0.4657  0.0600 -0.0578
  136OSM    H8F14826   1.012   3.545   7.044 -0.5240 -0.4196 -0.1405
  136OSM    H8G14827   1.187   3.621   7.032 -1.9247  0.8744  1.4006
  136OSM    C9F14828   1.174   3.417   7.068 -0.4704  0.1679 -0.0130
  136OSM    H9F14829   1.244   3.353   7.012 -1.5255 -2.3043  1.4200
  136OSM   C10F14830   1.150   3.383   7.193  0.1729  0.1752 -0.6429
  136OSM   H10F14831   1.203   3.297   7.235 -1.7673 -0.2755  0.9523
  136OSM   C11F14832   1.070   3.468   7.290  0.3377  0.5664 -0.0456
  136OSM   H11F14833   0.967   3.434   7.266  0.6258 -0.7577  0.5568
  136OSM   H11G14834   1.070   3.577   7.269  1.4708  0.7691  0.9752
  136OSM   C12F14835   1.094   3.441   7.436  0.1842 -0.5553  0.0281
  136OSM   H12F14836   1.036   3.511   7.500  0.6118 -0.0630 -0.1198
  136OSM   H12G14837   1.201   3.465   7.450  0.2904 -0.6230 -0.6711
  136OSM   C13F14838   1.054   3.299   7.486 -0.5871  0.2165  0.6391
  136OSM   H13F14839   1.109   3.215   7.438 -0.1628  0.8150  0.0721
  136OSM   H13G14840   0.948   3.287   7.457 -0.7459 -2.2380  2.0717
  136OSM   C14F14841   1.079   3.291   7.638 -0.2052 -0.2091  1.2594
  136OSM   H14F14842   1.064   3.388   7.689 -1.1197 -0.9397  2.3827
  136OSM   H14G14843   1.190   3.282   7.645 -0.2419 -0.4372  1.5411
  136OSM   C15F14844   0.996   3.186   7.707  0.1003 -0.3697  0.3777
  136OSM   H15F14845   1.025   3.087   7.666 -3.1046 -0.5010 -1.7505
  136OSM   H15G14846   0.887   3.207   7.703  0.0906 -0.6922 -1.6219
  136OSM   C16F14847   1.033   3.187   7.856 -0.0960  0.1565 -0.1319
  136OSM   H16F14848   1.036   3.293   7.891 -1.0183  0.2636 -0.3769
  136OSM   H16G14849   1.140   3.156   7.866 -0.6384 -1.5271  0.5658
  136OSM   C17F14850   0.958   3.087   7.942  0.1912 -0.3670 -0.0234
  136OSM   H17F14851   0.968   2.991   7.888 -2.5283 -0.8388  0.2607
  136OSM   H17G14852   0.851   3.118   7.948  0.3057 -0.4244  4.0853
  136OSM   C18F14853   1.015   3.076   8.091  0.6967  0.5019 -0.1441
  136OSM   H18F14854   0.982   2.980   8.137  0.1129  1.1559  0.8340
  136OSM   H18G14855   0.984   3.158   8.160 -2.6819 -0.7317 -0.1133
  136OSM   H18H14856   1.125   3.085   8.083  0.8877  0.4964  2.1711
  137OSM      N14857   4.185   2.144   6.359 -0.2138 -0.1306  0.9028
  137OSM    C1514858   4.243   2.215   6.473  0.7630 -0.2797  0.1442
  137OSM   H15A14859   4.211   2.317   6.458  0.5816 -0.0071  2.2210
  137OSM   H15B14860   4.350   2.221   6.460  0.4557 -0.8733 -3.0706
  137OSM   H15C14861   4.206   2.176   6.567 -1.3108 -1.1811 -1.0129
  137OSM    C1414862   4.184   2.231   6.236  0.1676 -0.0826 -0.0004
  137OSM   H14A14863   4.126   2.179   6.162 -0.9144  0.4976  0.4292
  137OSM   H14B14864   4.283   2.249   6.196 -0.6768  1.9583 -1.2786
  137OSM   H14C14865   4.132   2.325   6.247 -0.3565 -0.2869 -0.6969
  137OSM    C1314866   4.277   2.027   6.314 -0.0109 -0.4198 -0.1686
  137OSM   H13A14867   4.220   1.958   6.253 -4.0266 -0.5885  3.5182
  137OSM   H13B14868   4.318   1.975   6.399 -0.4455  1.3554  1.1563
  137OSM   H13C14869   4.362   2.067   6.261 -0.3547  1.0668  0.3715
  137OSM    C1214870   4.047   2.095   6.403  0.3921  0.3985  0.0429
  137OSM   H12A14871   3.991   2.181   6.436  0.4692 -0.0984  1.4917
  137OSM   H12B14872   4.056   2.034   6.491  3.9231  1.3225  0.4062
  137OSM    C1114873   3.965   2.009   6.296  0.9811 -0.2485 -0.3129
  137OSM   H11A14874   3.961   2.068   6.201  2.2335  0.6436  0.1662
  137OSM   H11B14875   3.859   2.006   6.329  1.5475 -2.9172  1.4410
  137OSM      P14876   3.979   1.761   6.360 -0.2640  0.4383  0.0906
  137OSM    O1314877   3.846   1.726   6.311 -0.6827  0.0948 -0.4152
  137OSM    O1414878   4.085   1.659   6.329 -0.5901  0.1745  0.3024
  137OSM    O1114879   3.972   1.793   6.519  0.2699 -0.5810  0.3602
  137OSM    O1214880   4.028   1.881   6.277 -0.0324 -0.8251  0.2440
  137OSM    C1S14881   4.077   1.819   6.614 -0.3320 -0.1422  0.8188
  137OSM    H1S14882   4.134   1.908   6.583  0.4639 -0.4531  1.3735
  137OSM    H1T14883   4.158   1.744   6.601 -1.4483 -0.7834 -3.0871
  137OSM     NF14884   4.095   1.942   6.832  0.3786  0.0469 -0.2428
  137OSM    HNF14885   4.169   1.917   6.895  1.2912  0.4155 -1.1658
  137OSM    C2S14886   4.026   1.838   6.760  0.3594  0.6964  0.3461
  137OSM    H2S14887   3.921   1.875   6.751  0.5038  0.6812 -1.5117
  137OSM    C3S14888   4.027   1.693   6.823 -0.1120 -0.1023 -0.2660
  137OSM    H3S14889   4.123   1.638   6.811  0.3967  1.2813 -2.8092
  137OSM     O314890   3.924   1.617   6.751  0.4018  0.1794  0.0696
  137OSM    HO314891   3.878   1.678   6.692  0.5222 -0.8871 -1.1524
  137OSM    C4S14892   3.991   1.690   6.970  0.6114  0.3876  0.1001
  137OSM    H4S14893   3.888   1.660   6.997  0.8125 -0.0661  0.3606
  137OSM    C5S14894   4.081   1.708   7.071  0.1170 -0.2976 -0.0702
  137OSM    H5S14895   4.187   1.703   7.040 -0.5124  0.4859 -2.4617
  137OSM    C6S14896   4.052   1.717   7.217 -0.3721 -0.2810 -0.4636
  137OSM    H6S14897   3.946   1.749   7.231 -0.3044  0.1760 -0.9899
  137OSM    H6T14898   4.114   1.793   7.269 -0.6110  1.0853 -2.1291
  137OSM    C7S14899   4.050   1.578   7.290  0.2635 -0.1174 -0.4823
  137OSM    H7S14900   4.154   1.539   7.294  0.4740  0.4075 -0.7825
  137OSM    H7T14901   3.984   1.514   7.228  0.2241 -0.3645 -0.1875
  137OSM    C8S14902   4.011   1.589   7.438 -0.1475  0.3778  1.0346
  137OSM    H8S14903   3.902   1.608   7.443 -0.5239 -1.9162  2.2619
  137OSM    H8T14904   4.063   1.682   7.469  2.2312 -1.2510  2.0878
  137OSM    C9S14905   4.060   1.470   7.529 -0.0883  0.1340  0.5104
  137OSM    H9S14906   4.168   1.454   7.504 -0.4910  0.4288 -1.4714
  137OSM    H9T14907   4.013   1.373   7.499  1.9466 -1.2108  1.5205
  137OSM   C10S14908   4.025   1.508   7.672  0.3800 -0.8284 -0.2393
  137OSM   H10S14909   3.914   1.513   7.671  0.3130 -1.8517  1.1076
  137OSM   H10T14910   4.068   1.608   7.694 -1.0879 -0.4593  1.0277
  137OSM   C11S14911   4.076   1.402   7.770 -0.4599 -0.2542  0.2517
  137OSM   H11S14912   4.178   1.376   7.736 -0.7645  1.9773 -2.6311
  137OSM   H11T14913   4.014   1.310   7.766 -1.0785  0.0915  1.4589
  137OSM   C12S14914   4.085   1.462   7.910  0.2963 -0.3255  0.3133
  137OSM   H12S14915   3.993   1.509   7.951 -0.1051 -1.4106  0.6736
  137OSM   H12T14916   4.155   1.548   7.899 -0.2395 -0.2223 -2.9763
  137OSM   C13S14917   4.140   1.379   8.019 -0.4410 -0.0542 -0.3439
  137OSM   H13S14918   4.241   1.343   7.989 -0.2665 -0.7429  1.0151
  137OSM   H13T14919   4.078   1.290   8.043  0.8024 -0.9579 -0.4229
  137OSM   C14S14920   4.173   1.465   8.141 -0.5245  0.1758 -0.2717
  137OSM   H14S14921   4.085   1.526   8.169 -0.3766 -0.4673  1.6485
  137OSM   H14T14922   4.264   1.528   8.131 -0.1322 -0.9323 -4.5300
  137OSM   C15S14923   4.204   1.375   8.264 -0.0883 -0.2071 -0.1161
  137OSM   H15S14924   4.248   1.281   8.225 -1.6369 -0.6718 -0.7707
  137OSM   H15T14925   4.108   1.352   8.315  0.1472 -1.1206 -0.0934
  137OSM   C16S14926   4.325   1.427   8.342 -0.5843  0.1402 -0.0138
  137OSM   H16S14927   4.422   1.432   8.288  0.3808 -4.1219  1.1396
  137OSM   H16T14928   4.338   1.359   8.429  0.5949  0.0245 -0.2679
  137OSM   C17S14929   4.303   1.567   8.414 -0.0236  0.4886  0.4459
  137OSM   H17S14930   4.222   1.553   8.489 -1.7469 -2.9624 -1.8944
  137OSM   H17T14931   4.279   1.638   8.332 -0.8825 -1.1149 -0.7251
  137OSM   C18S14932   4.435   1.613   8.476 -0.1961  0.0637 -0.2499
  137OSM   H18S14933   4.458   1.553   8.566 -2.7333 -2.6107 -1.3092
  137OSM   H18T14934   4.411   1.717   8.508 -0.4443  0.7038 -2.4590
  137OSM   H18U14935   4.524   1.609   8.411 -1.3493 -1.5437 -1.7685
  137OSM    C1F14936   4.075   2.069   6.807  0.3504 -0.3210  0.5193
  137OSM     OF14937   3.981   2.103   6.735  0.2397  0.6938  0.4817
  137OSM    C2F14938   4.171   2.170   6.857  0.6676  0.1996  0.0052
  137OSM    H2F14939   4.216   2.221   6.769 -1.8837 -0.5052 -1.7388
  137OSM    H2G14940   4.256   2.130   6.917  1.1965 -0.7239 -1.3408
  137OSM    C3F14941   4.108   2.289   6.939  0.1126  0.1910  0.1813
  137OSM    H3F14942   4.015   2.323   6.889  0.1080 -0.0332  0.0348
  137OSM    H3G14943   4.186   2.367   6.939 -0.0109  0.3180  0.8091
  137OSM    C4F14944   4.072   2.252   7.079  0.6488  0.1881 -0.0476
  137OSM    H4F14945   4.163   2.218   7.133 -0.2991 -0.8138  0.9511
  137OSM    H4G14946   3.990   2.177   7.070  0.1926  0.9821 -3.1700
  137OSM    C5F14947   4.026   2.387   7.154 -0.4277  0.2093 -0.1310
  137OSM    H5F14948   3.936   2.432   7.108 -0.4631  0.3022  0.0301
  137OSM    H5G14949   4.107   2.463   7.161  1.3596 -1.7566  1.4695
  137OSM    C6F14950   3.977   2.354   7.294 -1.0075 -0.5006 -0.2680
  137OSM    H6F14951   4.048   2.281   7.339 -3.5890 -1.7384  1.9390
  137OSM    H6G14952   3.889   2.287   7.290  0.4733 -2.4820 -0.9957
  137OSM    C7F14953   3.941   2.474   7.381  0.1741 -0.4143 -0.4007
  137OSM    H7F14954   3.862   2.528   7.324 -0.2232  1.9777  2.3082
  137OSM    H7G14955   4.029   2.539   7.401 -0.6300 -0.3604  3.2373
  137OSM    C8F14956   3.897   2.433   7.521 -0.8694  0.1761 -0.3003
  137OSM    H8F14957   3.974   2.365   7.565 -1.8281 -2.0653 -2.0194
  137OSM    H8G14958   3.809   2.366   7.518  0.5770 -1.7014 -2.1285
  137OSM    C9F14959   3.875   2.550   7.611 -0.8589  0.5186 -1.1332
  137OSM    H9F14960   3.962   2.616   7.616 -0.8207  0.5272 -1.7890
  137OSM   C10F14961   3.763   2.581   7.682  0.3993  0.4715 -0.2902
  137OSM   H10F14962   3.772   2.671   7.745  2.1259  0.3439 -0.3058
  137OSM   C11F14963   3.635   2.503   7.695 -0.8362  0.2221 -0.4240
  137OSM   H11F14964   3.648   2.400   7.655  0.8575  0.2932 -0.0940
  137OSM   H11G14965   3.546   2.553   7.651  0.6316  2.0586 -1.3779
  137OSM   C12F14966   3.597   2.494   7.849 -0.6718 -0.2667  0.2879
  137OSM   H12F14967   3.671   2.437   7.910 -0.1721  1.2177  1.0786
  137OSM   H12G14968   3.501   2.438   7.851  0.7700 -3.0448 -2.7985
  137OSM   C13F14969   3.578   2.630   7.922  0.1024  0.1105 -0.0147
  137OSM   H13F14970   3.520   2.696   7.855  0.5222 -0.1862 -0.6827
  137OSM   H13G14971   3.678   2.675   7.941 -0.2710  0.4708  1.1070
  137OSM   C14F14972   3.483   2.616   8.044  0.3252 -0.0308  0.0167
  137OSM   H14F14973   3.533   2.544   8.113 -1.7029 -0.6515  0.8784
  137OSM   H14G14974   3.394   2.561   8.006  0.3519  0.6307 -1.0074
  137OSM   C15F14975   3.456   2.745   8.120  0.2150 -0.4304  0.3960
  137OSM   H15F14976   3.352   2.736   8.158  0.3068  2.5492  1.4903
  137OSM   H15G14977   3.465   2.835   8.056  0.0976 -0.3378  0.5105
  137OSM   C16F14978   3.546   2.766   8.250  0.3118 -0.5184 -0.3865
  137OSM   H16F14979   3.652   2.755   8.219 -0.1423 -2.5823 -1.2320
  137OSM   H16G14980   3.520   2.685   8.322 -2.2703  1.3955  0.9616
  137OSM   C17F14981   3.521   2.907   8.320  0.1900 -0.9756  0.7307
  137OSM   H17F14982   3.420   2.946   8.297  1.5931  0.6992 -2.9798
  137OSM   H17G14983   3.586   2.978   8.265  0.1535 -1.7691 -0.3525
  137OSM   C18F14984   3.548   2.915   8.471 -0.0020 -0.5887 -0.9734
  137OSM   H18F14985   3.563   3.019   8.505 -0.3351 -0.5711 -0.8804
  137OSM   H18G14986   3.649   2.871   8.485 -0.1075 -0.7517 -0.7043
  137OSM   H18H14987   3.472   2.859   8.530 -0.2429 -0.3197 -1.0293
  138OSM      N14988   5.168   4.289   6.095 -0.3213  0.8128  0.5333
  138OSM    C1514989   5.315   4.322   6.061  0.6785 -0.0578  0.1602
  138OSM   H15A14990   5.374   4.326   6.152 -1.5344  0.1114  1.6205
  138OSM   H15B14991   5.326   4.415   6.007  0.0736  0.0643  0.2426
  138OSM   H15C14992   5.349   4.237   6.004  0.3616 -1.3578  1.8845
  138OSM    C1414993   5.085   4.294   5.968 -0.0418 -0.8173  0.2585
  138OSM   H14A14994   5.098   4.386   5.913  2.3627 -1.2479  0.0235
  138OSM   H14B14995   4.982   4.286   5.996 -0.3893  1.4261 -0.2361
  138OSM   H14C14996   5.119   4.212   5.907 -1.1171 -1.4217  0.4644
  138OSM    C1314997   5.167   4.151   6.147  0.0927  0.6743 -0.5155
  138OSM   H13A14998   5.237   4.142   6.229 -0.1516 -0.8153 -0.4567
  138OSM   H13B14999   5.193   4.083   6.068  1.7862  0.3981  0.2596
  138OSM   H13C15000   5.079   4.116   6.198  1.5493 -1.8612  0.3566
  138OSM    C1215001   5.114   4.388   6.201 -0.2255 -0.4471 -0.2716
  138OSM   H12A15002   5.105   4.484   6.152 -1.0641  0.3519  1.3914
  138OSM   H12B15003   5.186   4.391   6.281  0.8785 -0.2232 -1.2542
  138OSM    C1115004   4.984   4.366   6.268  0.1717 -0.0548 -0.3279
  138OSM   H11A15005   4.971   4.438   6.352 -0.3305  0.3595 -0.7615
  138OSM   H11B15006   4.987   4.267   6.318  1.2694  0.9797  1.7447
  138OSM      P15007   4.816   4.524   6.148 -0.1374  0.0766  0.3380
  138OSM    O1315008   4.923   4.628   6.148 -0.1261  0.2919  0.2398
  138OSM    O1415009   4.732   4.519   6.021 -0.2021  0.2450  0.0401
  138OSM    O1115010   4.713   4.565   6.257  0.8279 -0.6146 -0.1558
  138OSM    O1215011   4.880   4.381   6.178 -0.1666 -0.4019 -0.1067
  138OSM    C1S15012   4.668   4.464   6.354 -0.6988  0.3092  0.1676
  138OSM    H1S15013   4.739   4.382   6.379  0.8048  0.5049 -3.1432
  138OSM    H1T15014   4.568   4.426   6.327 -0.3825 -0.1681 -0.3511
  138OSM     NF15015   4.627   4.434   6.589  0.3917  0.6970  0.2023
  138OSM    HNF15016   4.540   4.390   6.608  0.9918 -0.5890  0.0741
  138OSM    C2S15017   4.630   4.537   6.483 -1.2327 -0.4172 -0.1060
  138OSM    H2S15018   4.702   4.617   6.510 -1.4887  0.6956 -2.5632
  138OSM    C3S15019   4.490   4.612   6.460 -0.1320 -0.3052 -0.9981
  138OSM    H3S15020   4.427   4.521   6.448  0.5428 -1.0432  0.8464
  138OSM     O315021   4.468   4.704   6.349 -0.0863  0.3380 -0.0714
  138OSM    HO315022   4.530   4.679   6.280 -0.6589  1.3278 -0.9770
  138OSM    C4S15023   4.440   4.674   6.593  0.4402 -0.5340  0.6782
  138OSM    H4S15024   4.356   4.619   6.639  1.1874 -2.0087  0.3185
  138OSM    C5S15025   4.481   4.786   6.662  0.5875 -0.6682  0.5973
  138OSM    H5S15026   4.571   4.833   6.619  0.6952 -2.5320 -1.3113
  138OSM    C6S15027   4.424   4.823   6.796 -0.7553 -0.0122 -0.8970
  138OSM    H6S15028   4.315   4.847   6.797 -0.9611 -0.8943  1.4315
  138OSM    H6T15029   4.478   4.913   6.830 -0.7067 -0.7203  0.9795
  138OSM    C7S15030   4.444   4.722   6.917 -0.1701 -0.1113  0.8151
  138OSM    H7S15031   4.398   4.622   6.898  1.9485 -0.8503 -0.5368
  138OSM    H7T15032   4.402   4.770   7.008  1.0232  0.3008  1.1542
  138OSM    C8S15033   4.593   4.695   6.936  0.6537 -0.3340  0.4373
  138OSM    H8S15034   4.639   4.795   6.947 -1.0931  0.6658 -0.9236
  138OSM    H8T15035   4.640   4.640   6.852  0.9489 -0.0368  0.4050
  138OSM    C9S15036   4.632   4.619   7.060 -0.5598  0.0436 -0.4340
  138OSM    H9S15037   4.741   4.601   7.048  0.1589  5.0568 -2.9449
  138OSM    H9T15038   4.583   4.520   7.062  3.4074 -2.0256  0.0461
  138OSM   C10S15039   4.615   4.710   7.187 -0.5836 -0.1590 -0.5229
  138OSM   H10S15040   4.505   4.719   7.205 -0.8075 -1.2755 -1.2690
  138OSM   H10T15041   4.655   4.812   7.169 -0.9805  0.1263  0.2093
  138OSM   C11S15042   4.698   4.653   7.302  0.0215 -0.6508  0.2000
  138OSM   H11S15043   4.807   4.677   7.296 -0.3908  1.5495  0.9775
  138OSM   H11T15044   4.674   4.545   7.298 -0.7419 -0.4325 -1.8259
  138OSM   C12S15045   4.646   4.704   7.442  0.4900  1.1055 -0.0926
  138OSM   H12S15046   4.536   4.704   7.461  0.1158  1.6298 -2.1198
  138OSM   H12T15047   4.680   4.809   7.436  2.4108  0.4759 -0.6412
  138OSM   C13S15048   4.722   4.635   7.554  0.2510 -0.0942 -0.5242
  138OSM   H13S15049   4.825   4.626   7.515 -0.0607  1.2883 -1.6986
  138OSM   H13T15050   4.676   4.535   7.562  1.5799 -0.5863  1.5240
  138OSM   C14S15051   4.716   4.711   7.682  0.3532 -0.5520  0.7052
  138OSM   H14S15052   4.615   4.731   7.722 -1.0074 -2.0645 -1.8224
  138OSM   H14T15053   4.773   4.805   7.668 -2.2933  1.1403  0.9822
  138OSM   C15S15054   4.797   4.620   7.786  0.1109 -0.0121  0.1895
  138OSM   H15S15055   4.899   4.598   7.749 -0.2028  0.6700 -1.1005
  138OSM   H15T15056   4.752   4.518   7.787 -2.5248  1.1053  1.7043
  138OSM   C16S15057   4.792   4.675   7.927  0.8426 -0.0529 -0.4550
  138OSM   H16S15058   4.688   4.705   7.952  0.8405 -0.9475  0.6368
  138OSM   H16T15059   4.848   4.771   7.939  0.8838  0.2653 -2.9274
  138OSM   C17S15060   4.829   4.572   8.030  0.0006  0.3047  0.2753
  138OSM   H17S15061   4.939   4.582   8.038 -0.2062  1.1501  2.4418
  138OSM   H17T15062   4.804   4.466   8.011  1.3041 -0.0280  0.4208
  138OSM   C18S15063   4.766   4.613   8.169  0.5895  0.2125  0.7969
  138OSM   H18S15064   4.784   4.529   8.239 -0.3395 -1.3184 -0.7906
  138OSM   H18T15065   4.656   4.629   8.168  0.3321 -1.5397 -0.2841
  138OSM   H18U15066   4.804   4.707   8.216 -2.8695  1.2835  1.6243
  138OSM    C1F15067   4.727   4.385   6.662 -0.8764 -0.6055  0.1711
  138OSM     OF15068   4.834   4.435   6.646 -0.1476  0.1686  0.3803
  138OSM    C2F15069   4.700   4.280   6.758 -0.1423  0.2108 -0.5941
  138OSM    H2F15070   4.727   4.177   6.726 -0.5139 -0.0948  0.0719
  138OSM    H2G15071   4.591   4.263   6.773 -0.0916  0.8682  0.5822
  138OSM    C3F15072   4.758   4.313   6.896  0.0390  0.4762 -1.0401
  138OSM    H3F15073   4.722   4.412   6.933  0.8938 -0.2636  1.9070
  138OSM    H3G15074   4.868   4.307   6.887  0.2744 -3.3301  2.9845
  138OSM    C4F15075   4.720   4.211   7.007  0.3742 -0.6676  0.0450
  138OSM    H4F15076   4.773   4.116   6.986 -0.4052 -1.0690 -0.1230
  138OSM    H4G15077   4.613   4.180   7.007  0.3336 -0.5300 -0.5026
  138OSM    C5F15078   4.764   4.260   7.149  0.1097 -0.1620  0.1262
  138OSM    H5F15079   4.709   4.354   7.171 -1.8120 -1.3020  0.3301
  138OSM    H5G15080   4.873   4.276   7.156  0.3104 -0.1793 -2.6317
  138OSM    C6F15081   4.743   4.166   7.266 -0.7107 -0.4906 -0.2533
  138OSM    H6F15082   4.814   4.080   7.258  4.0785  3.0849  1.1449
  138OSM    H6G15083   4.639   4.127   7.270 -1.5573  1.6347 -1.1492
  138OSM    C7F15084   4.772   4.239   7.405 -0.4497  0.4104  0.2345
  138OSM    H7F15085   4.703   4.326   7.407  0.5915  1.2412  0.2159
  138OSM    H7G15086   4.873   4.286   7.402  0.0024 -0.5005  0.6658
  138OSM    C8F15087   4.760   4.145   7.525 -0.3186 -0.2950  0.7355
  138OSM    H8F15088   4.671   4.079   7.517  0.1095 -0.7902  0.0856
  138OSM    H8G15089   4.741   4.200   7.620 -1.0930  0.9906 -0.1356
  138OSM    C9F15090   4.884   4.061   7.549  0.3119 -0.7426 -0.0472
  138OSM    H9F15091   4.925   4.023   7.454  1.3060  0.4787 -0.1136
  138OSM   C10F15092   4.942   4.031   7.664 -0.0035 -0.6328  1.1389
  138OSM   H10F15093   5.031   3.966   7.660  0.0622 -0.4751 -0.4570
  138OSM   C11F15094   4.904   4.071   7.812  0.0471  1.2759 -0.3867
  138OSM   H11F15095   4.799   4.093   7.841 -0.5659  2.1005 -3.0451
  138OSM   H11G15096   4.961   4.165   7.829  0.9113  1.0949 -2.1969
  138OSM   C12F15097   4.948   3.961   7.909 -0.2514 -0.7869 -1.0514
  138OSM   H12F15098   5.055   3.939   7.889 -0.2458 -1.4696 -0.2918
  138OSM   H12G15099   4.883   3.871   7.899  0.0234 -1.0943 -0.1206
  138OSM   C13F15100   4.959   4.017   8.053  0.2720  0.9859  0.1622
  138OSM   H13F15101   4.860   4.060   8.080  1.5335  2.5280  2.5017
  138OSM   H13G15102   5.037   4.096   8.061  1.9941 -0.4649 -1.5960
  138OSM   C14F15103   4.977   3.899   8.159 -0.3695 -0.0216  1.0479
  138OSM   H14F15104   5.074   3.846   8.152 -0.4137  0.0534 -0.1784
  138OSM   H14G15105   4.903   3.822   8.129  0.5959 -1.0753  1.3751
  138OSM   C15F15106   4.948   3.955   8.299 -0.0242 -0.0497 -0.7378
  138OSM   H15F15107   4.838   3.970   8.305 -0.2590 -1.9262 -0.0235
  138OSM   H15G15108   5.014   4.041   8.319 -2.1142  1.4061  0.0136
  138OSM   C16F15109   4.988   3.849   8.408 -0.5682 -0.1445 -0.0022
  138OSM   H16F15110   4.998   3.898   8.507  1.9986  1.0089 -0.7858
  138OSM   H16G15111   5.085   3.803   8.381  0.6140  2.0109  0.4807
  138OSM   C17F15112   4.878   3.744   8.413 -0.5326  0.2376  0.3935
  138OSM   H17F15113   4.880   3.698   8.312  2.6693  0.5025  0.2826
  138OSM   H17G15114   4.783   3.801   8.420 -1.6864 -1.7171  1.0743
  138OSM   C18F15115   4.891   3.643   8.525 -0.0571 -0.3283 -0.5511
  138OSM   H18F15116   4.816   3.561   8.518  0.0228 -0.4913  0.4269
  138OSM   H18G15117   4.854   3.693   8.617  1.3203  2.0827 -1.2563
  138OSM   H18H15118   4.994   3.609   8.547  0.5352  2.1144  0.6283
  139OSM      N15119   3.749   4.628   5.963 -0.1835  0.0544  0.5916
  139OSM    C1515120   3.851   4.553   6.035 -0.4161 -0.4962 -0.1609
  139OSM   H15A15121   3.820   4.461   6.081 -0.3505 -1.4147 -1.9176
  139OSM   H15B15122   3.893   4.608   6.119 -3.2959  0.2363  0.8391
  139OSM   H15C15123   3.928   4.524   5.965 -0.9488 -0.4085 -0.7807
  139OSM    C1415124   3.793   4.734   5.873 -0.2486  0.7216 -0.6485
  139OSM   H14A15125   3.865   4.694   5.804 -0.8378 -2.9414  0.7376
  139OSM   H14B15126   3.847   4.810   5.928  1.0614 -1.6734  1.5263
  139OSM   H14C15127   3.709   4.777   5.820 -1.1773 -1.0506 -0.6572
  139OSM    C1315128   3.681   4.522   5.877  0.6355  0.4057  0.5241
  139OSM   H13A15129   3.591   4.558   5.830  0.8192  0.3086  0.0905
  139OSM   H13B15130   3.662   4.429   5.927 -2.1184  0.0237 -1.1556
  139OSM   H13C15131   3.739   4.497   5.789 -0.3640  0.9446 -0.3063
  139OSM    C1215132   3.646   4.682   6.062 -0.8111 -0.1320  0.5585
  139OSM   H12A15133   3.608   4.591   6.105  2.1360 -2.0265 -0.6579
  139OSM   H12B15134   3.564   4.728   6.009 -0.0124 -0.6586 -1.2006
  139OSM    C1115135   3.690   4.779   6.175 -0.1710  0.7322  0.0231
  139OSM   H11A15136   3.771   4.741   6.240  0.7167  0.9412 -0.9603
  139OSM   H11B15137   3.604   4.792   6.245  0.0237 -0.4316  0.4906
  139OSM      P15138   3.648   5.026   6.097  0.1213 -0.2241  0.1906
  139OSM    O1315139   3.730   5.142   6.055  1.4568  0.1670  0.4310
  139OSM    O1415140   3.529   4.985   6.016  0.1717 -0.2537 -0.2761
  139OSM    O1115141   3.599   5.071   6.238  0.2207 -0.1560  0.0106
  139OSM    O1215142   3.741   4.903   6.125 -0.5284 -0.1754  0.5623
  139OSM    C1S15143   3.695   5.089   6.342  0.1062 -0.1103  0.4792
  139OSM    H1S15144   3.767   5.172   6.325  1.0668 -1.3963 -1.9484
  139OSM    H1T15145   3.749   4.993   6.354 -0.1031 -0.4103 -0.9468
  139OSM     NF15146   3.721   5.144   6.581 -0.6180  0.1722 -0.0597
  139OSM    HNF15147   3.778   5.080   6.632 -0.8997 -0.2608 -0.2901
  139OSM    C2S15148   3.625   5.100   6.482 -0.2330  0.0492  0.3715
  139OSM    H2S15149   3.545   5.176   6.467 -0.8654 -0.9881 -1.7836
  139OSM    C3S15150   3.541   4.972   6.521 -0.3436 -0.4934 -0.2226
  139OSM    H3S15151   3.615   4.889   6.534  0.6148  0.5880  1.3250
  139OSM     O315152   3.444   4.932   6.434  0.0218 -0.0291  0.2715
  139OSM    HO315153   3.469   4.982   6.356  0.8940  1.7414  1.6444
  139OSM    C4S15154   3.476   5.005   6.655 -0.6744 -0.2458  0.5980
  139OSM    H4S15155   3.411   5.093   6.663 -1.9801 -1.1104 -0.2436
  139OSM    C5S15156   3.488   4.935   6.770 -0.7108  1.1570  0.7894
  139OSM    H5S15157   3.561   4.853   6.771  1.6262  3.0688 -2.3864
  139OSM    C6S15158   3.424   4.953   6.901  0.4379 -0.3458 -0.1756
  139OSM    H6S15159   3.349   4.872   6.916 -0.8243  0.3028 -2.7879
  139OSM    H6T15160   3.369   5.049   6.905  1.6333  0.3353  0.3115
  139OSM    C7S15161   3.537   4.960   7.011 -0.2884 -0.0466  0.7073
  139OSM    H7S15162   3.593   5.055   6.994 -1.4708  1.1012  2.9847
  139OSM    H7T15163   3.604   4.872   7.004  0.9767  1.0056 -0.6599
  139OSM    C8S15164   3.485   4.973   7.155  0.4122 -0.5956  0.8447
  139OSM    H8S15165   3.424   4.886   7.187 -2.8045  1.6228  1.0239
  139OSM    H8T15166   3.411   5.056   7.155  1.9004  0.7546 -0.6981
  139OSM    C9S15167   3.603   4.978   7.254 -0.3338  0.2325  0.1108
  139OSM    H9S15168   3.645   5.079   7.236 -0.2107  0.1367 -0.1371
  139OSM    H9T15169   3.678   4.901   7.226 -0.9916 -1.1013  1.9242
  139OSM   C10S15170   3.570   4.959   7.403 -0.0115 -0.6959  0.2305
  139OSM   H10S15171   3.501   5.043   7.426  0.5945 -0.1328  0.0008
  139OSM   H10T15172   3.664   4.969   7.461 -0.0651  1.4079 -0.0145
  139OSM   C11S15173   3.507   4.827   7.433 -0.4150  0.7680  0.1267
  139OSM   H11S15174   3.572   4.749   7.388  0.3110  1.8363 -0.7126
  139OSM   H11T15175   3.403   4.816   7.394 -0.7187 -2.1030  1.5960
  139OSM   C12S15176   3.486   4.814   7.588  0.5787 -0.0617 -0.8798
  139OSM   H12S15177   3.419   4.730   7.617  1.6438  0.0547  2.0933
  139OSM   H12T15178   3.438   4.909   7.617 -0.2777 -0.5705 -0.6102
  139OSM   C13S15179   3.615   4.802   7.672  0.6048 -0.1809 -0.1212
  139OSM   H13S15180   3.694   4.874   7.641 -0.3488  0.1932 -1.7803
  139OSM   H13T15181   3.666   4.704   7.669  0.9710 -0.0214  0.7153
  139OSM   C14S15182   3.587   4.818   7.833 -0.7512  0.0226  0.1246
  139OSM   H14S15183   3.683   4.798   7.884  0.8486  2.4338 -1.8832
  139OSM   H14T15184   3.522   4.730   7.855  2.2883 -2.7971 -1.8334
  139OSM   C15S15185   3.522   4.947   7.887 -0.1650 -0.0863 -0.6217
  139OSM   H15S15186   3.433   4.965   7.822  0.8450  1.0752 -1.7338
  139OSM   H15T15187   3.582   5.041   7.884 -0.5797  0.1881 -0.4557
  139OSM   C16S15188   3.481   4.932   8.028 -0.4126 -0.0406  0.2850
  139OSM   H16S15189   3.567   4.894   8.087 -0.1039 -0.0352 -0.1627
  139OSM   H16T15190   3.395   4.861   8.033 -1.8873  1.6217 -0.7707
  139OSM   C17S15191   3.426   5.067   8.090 -0.7810  0.1759  0.2553
  139OSM   H17S15192   3.330   5.072   8.034 -2.3808 -3.1386  2.5363
  139OSM   H17T15193   3.488   5.153   8.058 -0.6727 -0.5241 -1.4650
  139OSM   C18S15194   3.399   5.069   8.243 -0.4593 -0.0115  0.5493
  139OSM   H18S15195   3.307   5.011   8.266 -1.1494  1.5447  1.8782
  139OSM   H18T15196   3.395   5.176   8.275 -0.0339  0.5387 -1.2019
  139OSM   H18U15197   3.477   5.007   8.293  0.7323  1.1247  0.1385
  139OSM    C1F15198   3.777   5.265   6.580 -0.0146 -0.4056  0.0445
  139OSM     OF15199   3.732   5.342   6.494  0.0406  0.1285  0.2601
  139OSM    C2F15200   3.899   5.301   6.669 -0.2599  0.5600 -0.1861
  139OSM    H2F15201   3.995   5.266   6.625  0.9700  1.0041  2.0719
  139OSM    H2G15202   3.882   5.246   6.764 -3.2390  2.3864  0.3880
  139OSM    C3F15203   3.927   5.449   6.684 -0.4397 -1.1659  0.4837
  139OSM    H3F15204   3.836   5.497   6.726 -1.8847 -1.6088 -2.0681
  139OSM    H3G15205   3.946   5.500   6.588 -0.3629  0.8432  1.5509
  139OSM    C4F15206   4.043   5.485   6.780 -0.0734 -0.0282  0.5788
  139OSM    H4F15207   4.052   5.595   6.763 -2.4288  0.0854 -0.1244
  139OSM    H4G15208   4.144   5.448   6.754 -0.6271 -1.6220  0.6717
  139OSM    C5F15209   4.011   5.461   6.929 -0.4087  0.4770 -0.6173
  139OSM    H5F15210   4.004   5.353   6.955 -2.1121  0.8735  0.6359
  139OSM    H5G15211   3.910   5.505   6.945 -0.9697 -1.1069  0.3528
  139OSM    C6F15212   4.110   5.524   7.030 -0.2208  0.0799  0.7622
  139OSM    H6F15213   4.062   5.616   7.070  0.4727 -0.1349  2.1017
  139OSM    H6G15214   4.209   5.545   6.984  0.0988 -1.1031  0.8851
  139OSM    C7F15215   4.143   5.432   7.148  0.1861 -0.0518 -0.1747
  139OSM    H7F15216   4.224   5.362   7.121  0.2350 -0.0238 -0.1030
  139OSM    H7G15217   4.059   5.370   7.183  0.7249 -0.1168  1.0354
  139OSM    C8F15218   4.209   5.508   7.268  0.2947 -0.7999  0.0524
  139OSM    H8F15219   4.263   5.584   7.207 -0.0412 -1.0337 -0.5367
  139OSM    H8G15220   4.283   5.446   7.323 -0.9372 -1.1359  1.3504
  139OSM    C9F15221   4.117   5.576   7.359  0.3349 -0.2648  1.0334
  139OSM    H9F15222   4.061   5.652   7.303 -0.4280 -2.1684 -0.8440
  139OSM   C10F15223   4.096   5.562   7.489  0.1418  0.7412  0.7703
  139OSM   H10F15224   4.017   5.622   7.535  0.0793  1.3013 -0.0642
  139OSM   C11F15225   4.178   5.464   7.573 -0.6328  0.1992  0.0659
  139OSM   H11F15226   4.259   5.425   7.508 -0.2586 -2.0988  1.8102
  139OSM   H11G15227   4.114   5.377   7.602  0.9328 -1.1906 -0.5515
  139OSM   C12F15228   4.252   5.516   7.699  0.2386 -0.2934  0.7446
  139OSM   H12F15229   4.205   5.604   7.748  0.5253 -1.0726  2.4600
  139OSM   H12G15230   4.348   5.560   7.666  0.5777  0.7302  3.0189
  139OSM   C13F15231   4.273   5.409   7.808  0.0090 -0.3661 -0.3708
  139OSM   H13F15232   4.367   5.423   7.866 -1.3961  0.6558  1.7275
  139OSM   H13G15233   4.280   5.305   7.769 -1.6002  1.1127 -5.0023
  139OSM   C14F15234   4.160   5.409   7.904 -0.1133  0.0098 -0.2293
  139OSM   H14F15235   4.079   5.352   7.854  2.1870 -2.0939 -1.6655
  139OSM   H14G15236   4.117   5.511   7.914  1.2305  0.8267 -2.4470
  139OSM   C15F15237   4.189   5.360   8.051 -0.4119 -0.7095  0.2024
  139OSM   H15F15238   4.218   5.255   8.032  3.3609  0.1261  0.9640
  139OSM   H15G15239   4.099   5.354   8.115 -1.2241 -0.5305 -0.9125
  139OSM   C16F15240   4.300   5.420   8.133  0.5452 -0.6856 -0.1935
  139OSM   H16F15241   4.392   5.401   8.074 -0.9283 -1.2636 -2.3832
  139OSM   H16G15242   4.304   5.370   8.232  0.3326  1.0043  0.6990
  139OSM   C17F15243   4.285   5.567   8.156  0.0901 -0.3356  0.6013
  139OSM   H17F15244   4.284   5.616   8.056  0.8206 -1.7524 -0.1199
  139OSM   H17G15245   4.374   5.607   8.208  1.7411 -0.6558 -1.8911
  139OSM   C18F15246   4.155   5.614   8.221  0.0123 -0.4275 -1.1252
  139OSM   H18F15247   4.144   5.572   8.323  1.7749  0.2500 -0.6340
  139OSM   H18G15248   4.072   5.580   8.156 -0.6881 -0.9711  0.0433
  139OSM   H18H15249   4.148   5.725   8.228  1.5154 -0.3228 -1.1339
  140OSM      N15250   3.866   0.374   6.123 -0.3533 -0.1123 -0.0184
  140OSM    C1515251   3.908   0.291   6.017  0.3075  0.4405  0.3695
  140OSM   H15A15252   3.917   0.191   6.056  0.2230 -0.6694 -2.3603
  140OSM   H15B15253   4.008   0.317   5.985 -0.1229 -1.1808 -2.4910
  140OSM   H15C15254   3.841   0.300   5.932  0.9088 -0.8865 -0.2498
  140OSM    C1415255   3.854   0.515   6.078 -0.2196  0.3082 -0.1286
  140OSM   H14A15256   3.942   0.551   6.026 -0.2007  2.2677  1.2385
  140OSM   H14B15257   3.833   0.579   6.162 -0.5230 -1.1606  0.9159
  140OSM   H14C15258   3.767   0.522   6.015  0.9868 -1.4186 -2.0733
  140OSM    C1315259   3.733   0.321   6.165  0.3084 -0.0241 -0.8879
  140OSM   H13A15260   3.738   0.235   6.231 -2.3308  1.1543  0.9492
  140OSM   H13B15261   3.674   0.295   6.079 -0.8643 -2.7063  0.6429
  140OSM   H13C15262   3.674   0.391   6.222  0.8223 -0.8472  0.6871
  140OSM    C1215263   3.966   0.349   6.241 -0.8373  0.3491 -0.0468
  140OSM   H12A15264   3.926   0.396   6.329 -0.8080 -0.2417  0.2877
  140OSM   H12B15265   4.065   0.386   6.220 -0.0758 -1.4531  0.2137
  140OSM    C1115266   3.980   0.198   6.284 -0.5962 -0.9085  0.8057
  140OSM   H11A15267   3.893   0.129   6.290  0.9740 -3.0511 -0.3186
  140OSM   H11B15268   4.033   0.204   6.381 -0.8029  0.1650  0.8555
  140OSM      P15269   4.217   0.138   6.181  0.1955  0.9141  0.3212
  140OSM    O1315270   4.261   0.045   6.070  0.0317 -0.0233  0.0540
  140OSM    O1415271   4.252   0.282   6.173 -0.3467  0.4728 -0.1713
  140OSM    O1115272   4.277   0.070   6.311  0.2265  0.3371  0.8082
  140OSM    O1215273   4.068   0.124   6.196 -0.3014  0.6758  0.7763
  140OSM    C1S15274   4.403   0.090   6.363  0.2516  0.4731 -0.4404
  140OSM    H1S15275   4.465   0.157   6.300  1.9095 -0.2874  0.3462
  140OSM    H1T15276   4.456  -0.008   6.359 -0.7888 -0.0224 -2.8391
  140OSM     NF15277   4.551   0.146   6.559 -0.3263  0.4617  0.2228
  140OSM    HNF15278   4.582   0.082   6.629  3.2131 -2.5124 -3.7503
  140OSM    C2S15279   4.416   0.128   6.518 -0.4226 -0.1723 -0.2435
  140OSM    H2S15280   4.362   0.224   6.527 -1.2825 -0.7174  0.5996
  140OSM    C3S15281   4.343   0.023   6.607 -0.3959  0.9279  1.3156
  140OSM    H3S15282   4.403  -0.068   6.583 -1.5380  1.2029 -3.0656
  140OSM     O315283   4.212   0.002   6.554  0.1175 -0.0288 -0.2877
  140OSM    HO315284   4.231   0.027   6.464  1.3723  0.5230  0.1305
  140OSM    C4S15285   4.339   0.057   6.751  0.7970 -0.1963 -0.2585
  140OSM    H4S15286   4.268   0.137   6.777  0.0811 -0.1424 -2.3232
  140OSM    C5S15287   4.422   0.004   6.845 -0.4267 -0.7137  0.4013
  140OSM    H5S15288   4.490  -0.074   6.807 -0.7421  0.0868 -1.8729
  140OSM    C6S15289   4.414   0.024   6.995 -0.3783 -0.1006  0.1117
  140OSM    H6S15290   4.363   0.120   7.020 -0.5370 -0.7269  2.3475
  140OSM    H6T15291   4.512   0.044   7.045 -0.4642  0.2987  0.1180
  140OSM    C7S15292   4.327  -0.082   7.054  0.5960  0.0103  0.9840
  140OSM    H7S15293   4.369  -0.185   7.051 -1.5017 -0.9414  2.4475
  140OSM    H7T15294   4.231  -0.089   6.998 -0.2753  0.9863  2.3232
  140OSM    C8S15295   4.286  -0.057   7.200  0.3851 -0.4559  0.3240
  140OSM    H8S15296   4.181  -0.088   7.218 -0.4691  2.9668  1.7410
  140OSM    H8T15297   4.274   0.052   7.217  0.4512 -0.8465  3.1543
  140OSM    C9S15298   4.383  -0.098   7.322  0.5635 -0.5132  0.2021
  140OSM    H9S15299   4.489  -0.067   7.315  0.6183 -0.6528  0.3978
  140OSM    H9T15300   4.388  -0.209   7.329 -1.3372 -0.7427 -1.5290
  140OSM   C10S15301   4.334  -0.044   7.465  0.8341 -0.3079  1.6972
  140OSM   H10S15302   4.228  -0.071   7.487 -0.9599  1.6552 -3.7744
  140OSM   H10T15303   4.338   0.067   7.465 -1.8601 -0.1218 -2.1225
  140OSM   C11S15304   4.417  -0.090   7.590  0.3083  0.0505  0.6785
  140OSM   H11S15305   4.513  -0.039   7.568  1.4400 -2.5847 -0.8703
  140OSM   H11T15306   4.445  -0.197   7.579  1.8837  0.4368  0.8944
  140OSM   C12S15307   4.357  -0.067   7.724  0.1647 -0.6455 -0.3655
  140OSM   H12S15308   4.284  -0.149   7.741  0.4366 -0.8905 -0.3854
  140OSM   H12T15309   4.303   0.030   7.733 -1.4727 -1.3834 -1.8369
  140OSM   C13S15310   4.472  -0.071   7.827  0.2777 -0.5996 -0.1878
  140OSM   H13S15311   4.535   0.021   7.834  1.4485 -1.2903 -1.4505
  140OSM   H13T15312   4.551  -0.146   7.806  0.5236 -0.0049 -1.4489
  140OSM   C14S15313   4.412  -0.095   7.970 -1.1426  0.8392  0.3653
  140OSM   H14S15314   4.388  -0.203   7.983 -1.8106  0.8830 -0.4224
  140OSM   H14T15315   4.311  -0.047   7.968 -1.8007 -0.4569  1.5845
  140OSM   C15S15316   4.502  -0.048   8.082  0.3336  0.5756 -0.4736
  140OSM   H15S15317   4.550   0.047   8.050  0.5266  0.4569 -0.5411
  140OSM   H15T15318   4.588  -0.116   8.103  0.2804 -0.1681 -2.5406
  140OSM   C16S15319   4.431  -0.015   8.214  0.1202 -0.0687 -0.7702
  140OSM   H16S15320   4.372  -0.097   8.261 -2.3444  1.3159 -1.4089
  140OSM   H16T15321   4.352   0.058   8.186  0.4417 -0.3462 -2.4105
  140OSM   C17S15322   4.525   0.042   8.323  0.2246 -0.5205 -0.8160
  140OSM   H17S15323   4.583   0.124   8.277  0.0338 -1.1176 -2.1476
  140OSM   H17T15324   4.603  -0.028   8.359  1.2224  0.6574 -0.6701
  140OSM   C18S15325   4.446   0.107   8.441  0.5617 -0.3054 -0.6167
  140OSM   H18S15326   4.390   0.203   8.429  1.9754  0.5339 -0.6690
  140OSM   H18T15327   4.514   0.121   8.528  0.5250  1.0612 -0.7983
  140OSM   H18U15328   4.360   0.043   8.468  0.9879 -1.1019 -1.1196
  140OSM    C1F15329   4.634   0.243   6.511  0.9108 -0.5290 -0.0259
  140OSM     OF15330   4.600   0.325   6.431  0.3356 -0.3333 -0.2505
  140OSM    C2F15331   4.771   0.250   6.570  0.1684 -0.0651 -0.1017
  140OSM    H2F15332   4.799   0.358   6.573  1.5336 -0.4145  0.2224
  140OSM    H2G15333   4.842   0.200   6.501 -0.8524 -0.6300 -0.7569
  140OSM    C3F15334   4.782   0.205   6.717  0.2109 -0.2773  0.3889
  140OSM    H3F15335   4.885   0.216   6.756  0.9702 -2.5911 -0.8347
  140OSM    H3G15336   4.770   0.094   6.721  0.5740 -0.3741 -0.9651
  140OSM    C4F15337   4.700   0.285   6.817 -0.6191 -0.0889 -0.1953
  140OSM    H4F15338   4.593   0.276   6.787 -0.3610  0.4299 -1.3100
  140OSM    H4G15339   4.734   0.391   6.814 -1.0021  0.0339 -0.2720
  140OSM    C5F15340   4.698   0.227   6.964  0.0606 -1.0944 -0.3564
  140OSM    H5F15341   4.664   0.121   6.957 -2.8311 -0.0648 -3.2329
  140OSM    H5G15342   4.629   0.289   7.024  0.3018 -1.7497  0.6082
  140OSM    C6F15343   4.832   0.237   7.049  0.0834 -0.6180  0.0178
  140OSM    H6F15344   4.853   0.345   7.065 -1.5579 -0.4340  1.1690
  140OSM    H6G15345   4.927   0.203   7.004  0.6834  0.4646  0.4421
  140OSM    C7F15346   4.824   0.162   7.179 -0.2450 -0.3216  0.0794
  140OSM    H7F15347   4.925   0.160   7.226  1.4242  2.5185 -3.1989
  140OSM    H7G15348   4.793   0.056   7.163  1.5057 -0.8860  0.3199
  140OSM    C8F15349   4.730   0.214   7.286 -0.2413  0.6328 -0.1888
  140OSM    H8F15350   4.745   0.139   7.367 -0.1124  0.7320 -0.1209
  140OSM    H8G15351   4.624   0.200   7.255  0.2865 -0.3873 -1.5934
  140OSM    C9F15352   4.764   0.352   7.328  0.2130  0.5831  0.2803
  140OSM    H9F15353   4.783   0.423   7.247 -0.4403 -1.0390 -1.3149
  140OSM   C10F15354   4.763   0.397   7.456 -0.0305 -0.4113  0.6271
  140OSM   H10F15355   4.779   0.504   7.473  0.8184 -0.6623  1.4105
  140OSM   C11F15356   4.729   0.327   7.582 -0.3161 -0.3384 -0.1898
  140OSM   H11F15357   4.642   0.260   7.570 -1.0977  0.5217  0.5378
  140OSM   H11G15358   4.695   0.413   7.645 -2.3074 -1.0107 -0.3231
  140OSM   C12F15359   4.853   0.251   7.639  0.4840  0.4097 -0.3751
  140OSM   H12F15360   4.932   0.323   7.669  1.9581 -1.1453 -0.4329
  140OSM   H12G15361   4.882   0.194   7.547 -0.6218 -1.3227  0.3194
  140OSM   C13F15362   4.818   0.143   7.757  0.0185 -0.0965 -0.7040
  140OSM   H13F15363   4.745   0.068   7.718 -1.1050 -0.1009  1.3348
  140OSM   H13G15364   4.776   0.195   7.846  1.4513  1.2187 -0.7773
  140OSM   C14F15365   4.936   0.062   7.812 -0.6333  0.9512 -0.1353
  140OSM   H14F15366   5.013   0.131   7.853 -1.1694  1.1821  0.4818
  140OSM   H14G15367   4.994  -0.001   7.741 -1.0861 -1.4487  1.5407
  140OSM   C15F15368   4.889  -0.031   7.930 -0.3494 -0.2396 -0.7927
  140OSM   H15F15369   4.800  -0.080   7.884 -1.9098  1.8758 -0.0892
  140OSM   H15G15370   4.855   0.024   8.021 -0.1207 -0.5433 -0.5215
  140OSM   C16F15371   4.992  -0.141   7.965  0.4200 -0.4303  0.1212
  140OSM   H16F15372   5.035  -0.206   7.886 -0.1628 -0.0287 -0.5441
  140OSM   H16G15373   4.930  -0.214   8.020 -2.0883 -0.6583 -2.8320
  140OSM   C17F15374   5.106  -0.089   8.057  0.2402 -0.0617 -0.7286
  140OSM   H17F15375   5.060  -0.073   8.157  1.9240 -1.4756  0.3135
  140OSM   H17G15376   5.144   0.005   8.013 -0.7873  0.0001 -1.4802
  140OSM   C18F15377   5.211  -0.193   8.078  0.0344  0.7013 -0.2439
  140OSM   H18F15378   5.169  -0.286   8.122 -0.6244 -0.0332 -2.3507
  140OSM   H18G15379   5.288  -0.150   8.145  0.3081 -1.0172  0.5639
  140OSM   H18H15380   5.265  -0.227   7.987  0.8303 -2.5636  1.3604
  141OSM      N15381   2.822   1.308   6.214  0.5743 -0.2369 -0.1235
  141OSM    C1515382   2.847   1.387   6.084  0.1886 -0.1494  0.5681
  141OSM   H15A15383   2.915   1.328   6.025  0.2909 -1.3597  1.8788
  141OSM   H15B15384   2.908   1.472   6.113  0.1515 -0.0432  0.3361
  141OSM   H15C15385   2.759   1.420   6.031  1.3795  2.2712 -0.0039
  141OSM    C1415386   2.716   1.386   6.287 -0.3266  0.4415  0.2127
  141OSM   H14A15387   2.694   1.337   6.381  0.9051 -1.7158 -0.5652
  141OSM   H14B15388   2.623   1.385   6.233 -0.4835 -1.2513  0.4767
  141OSM   H14C15389   2.749   1.483   6.320  0.6406 -0.2883  1.4980
  141OSM    C1315390   2.759   1.171   6.177 -0.2263  0.4524  0.2152
  141OSM   H13A15391   2.729   1.124   6.270  2.1703 -2.3999 -0.3737
  141OSM   H13B15392   2.835   1.111   6.129 -1.1189 -0.9666  0.5384
  141OSM   H13C15393   2.680   1.174   6.104  1.2229 -1.5788 -1.5318
  141OSM    C1215394   2.941   1.298   6.301 -0.9321 -1.0068 -0.3767
  141OSM   H12A15395   3.020   1.241   6.255  0.3471 -0.2094  0.8027
  141OSM   H12B15396   2.916   1.229   6.380  0.8785  1.0273  2.0688
  141OSM    C1115397   3.007   1.427   6.365 -0.3967  0.7209  1.0234
  141OSM   H11A15398   3.081   1.402   6.444 -1.9225 -1.0133  1.9304
  141OSM   H11B15399   2.919   1.473   6.414 -1.3473 -1.1942  1.1465
  141OSM      P15400   3.061   1.657   6.259  0.0121  0.0024  0.0944
  141OSM    O1315401   3.163   1.717   6.171  0.6351 -0.2717 -0.5461
  141OSM    O1415402   2.917   1.689   6.226 -0.3841  0.7187  0.1587
  141OSM    O1115403   3.095   1.687   6.407  0.5023 -0.1463 -0.3240
  141OSM    O1215404   3.070   1.503   6.259 -0.1564 -0.2513  0.2032
  141OSM    C1S15405   3.219   1.682   6.469  0.3500  0.3539 -0.0779
  141OSM    H1S15406   3.281   1.759   6.420 -3.9939  2.6314 -2.2883
  141OSM    H1T15407   3.252   1.576   6.465  1.9940  0.7249  2.5017
  141OSM     NF15408   3.366   1.740   6.664 -0.5516 -0.0474 -0.1493
  141OSM    HNF15409   3.414   1.676   6.724 -0.6501 -1.3012 -1.3820
  141OSM    C2S15410   3.228   1.723   6.617 -0.4973  0.5576  0.1653
  141OSM    H2S15411   3.172   1.818   6.630 -2.1968 -0.4573  0.3886
  141OSM    C3S15412   3.137   1.617   6.691  0.6368 -0.3099  0.2696
  141OSM    H3S15413   3.183   1.516   6.685  0.0416 -0.5475 -0.3866
  141OSM     O315414   3.003   1.603   6.646 -0.6322 -1.0603 -0.3324
  141OSM    HO315415   3.014   1.642   6.558  1.4015  0.7555  0.6568
  141OSM    C4S15416   3.142   1.660   6.840  0.3996 -0.1291  0.0949
  141OSM    H4S15417   3.209   1.606   6.909 -0.5635 -2.0703 -0.4706
  141OSM    C5S15418   3.079   1.762   6.888  0.8934 -0.6182 -0.0738
  141OSM    H5S15419   3.010   1.814   6.820  0.0158 -1.5190  0.1111
  141OSM    C6S15420   3.078   1.803   7.031  0.5477  0.1464  0.7545
  141OSM    H6S15421   3.078   1.913   7.046  2.0883  0.4378 -1.1199
  141OSM    H6T15422   3.164   1.763   7.088  0.6844 -2.6037 -1.2641
  141OSM    C7S15423   2.950   1.749   7.094  0.2301  0.0572  0.3815
  141OSM    H7S15424   2.945   1.638   7.086  0.5685  0.0886 -0.3193
  141OSM    H7T15425   2.868   1.790   7.032  1.4423  0.8805 -0.7172
  141OSM    C8S15426   2.933   1.786   7.239  0.2101  0.3138 -0.1742
  141OSM    H8S15427   3.005   1.722   7.294  0.0952  0.4302  0.1129
  141OSM    H8T15428   2.826   1.771   7.264  0.5733 -1.2798  0.5127
  141OSM    C9S15429   2.968   1.935   7.267  1.3253 -0.6253  0.3078
  141OSM    H9S15430   2.911   1.996   7.194 -0.1638 -1.4298  0.7722
  141OSM    H9T15431   3.078   1.949   7.263  1.3056 -0.7759 -0.9000
  141OSM   C10S15432   2.921   1.977   7.406  0.1360  0.0888 -0.1346
  141OSM   H10S15433   2.814   1.953   7.418  0.8543 -1.4936  4.0852
  141OSM   H10T15434   2.943   2.085   7.426 -1.0017  0.6556 -1.8750
  141OSM   C11S15435   2.984   1.902   7.525  0.5753 -0.1931 -0.0649
  141OSM   H11S15436   3.095   1.901   7.512  0.8119  0.7065  1.7818
  141OSM   H11T15437   2.955   1.796   7.508 -1.5717  0.2532  0.6629
  141OSM   C12S15438   2.939   1.960   7.660  0.3727 -0.0313 -0.3640
  141OSM   H12S15439   2.829   1.970   7.670  0.7733  2.1117  2.4127
  141OSM   H12T15440   2.986   2.060   7.672 -1.2891  0.5526  1.5655
  141OSM   C13S15441   2.989   1.877   7.781  0.1560 -0.8695  1.0824
  141OSM   H13S15442   3.089   1.839   7.752  0.3693  0.6191 -0.1488
  141OSM   H13T15443   2.917   1.792   7.789  0.6827 -1.5593 -1.1760
  141OSM   C14S15444   2.989   1.947   7.918  0.2490 -0.1145  0.2326
  141OSM   H14S15445   2.894   1.999   7.943 -0.4817 -0.2762 -2.0556
  141OSM   H14T15446   3.065   2.028   7.917  0.5951 -0.4369  0.3230
  141OSM   C15S15447   3.025   1.858   8.033  0.2511  0.1585  0.4324
  141OSM   H15S15448   3.124   1.814   8.010  0.0356  1.3385 -3.0243
  141OSM   H15T15449   2.944   1.783   8.024  0.8557 -0.3600 -0.7175
  141OSM   C16S15450   3.017   1.917   8.172  0.5042 -0.2337 -0.0528
  141OSM   H16S15451   2.910   1.914   8.201  0.7558 -0.4588  0.8875
  141OSM   H16T15452   3.055   2.021   8.167 -0.9137  0.3136  0.3439
  141OSM   C17S15453   3.106   1.839   8.274  0.2158 -0.3053  0.1627
  141OSM   H17S15454   3.204   1.811   8.230  0.7728  0.0175  1.1713
  141OSM   H17T15455   3.058   1.742   8.302  1.4245 -1.4384 -1.5804
  141OSM   C18S15456   3.122   1.913   8.411 -0.0759 -0.1236  0.1870
  141OSM   H18S15457   3.125   1.834   8.490 -1.4937 -2.0610 -1.6105
  141OSM   H18T15458   3.043   1.982   8.447 -1.1402 -1.4100  0.3923
  141OSM   H18U15459   3.220   1.962   8.428 -0.5402  0.8332  0.1453
  141OSM    C1F15460   3.436   1.837   6.622 -0.3787 -0.5319 -0.2283
  141OSM     OF15461   3.389   1.931   6.557  0.1292  0.8289 -0.4559
  141OSM    C2F15462   3.586   1.828   6.636  0.0104 -0.1009 -0.2661
  141OSM    H2F15463   3.634   1.832   6.536 -2.1905 -0.6591 -1.3679
  141OSM    H2G15464   3.614   1.731   6.681 -1.7016 -1.2975 -1.7371
  141OSM    C3F15465   3.643   1.936   6.737  0.1679  0.1976 -0.1008
  141OSM    H3F15466   3.583   2.029   6.725  2.0095  1.5535  0.8250
  141OSM    H3G15467   3.745   1.963   6.703  1.3928 -0.1936  3.0562
  141OSM    C4F15468   3.640   1.901   6.883  0.2050 -0.4202  0.5184
  141OSM    H4F15469   3.717   1.822   6.894  1.8671  1.3375  1.6007
  141OSM    H4G15470   3.537   1.863   6.900 -0.5209  2.2199  2.1756
  141OSM    C5F15471   3.667   2.023   6.968  0.0628 -0.7760  0.4095
  141OSM    H5F15472   3.585   2.095   6.947 -0.5483 -0.8445  2.4773
  141OSM    H5G15473   3.763   2.072   6.941  0.2669  0.0480  2.5293
  141OSM    C6F15474   3.668   1.990   7.115 -0.1214  0.2894  1.0980
  141OSM    H6F15475   3.767   1.942   7.130  0.1339  0.0847 -1.1320
  141OSM    H6G15476   3.582   1.922   7.130 -0.4524  0.7672  1.3651
  141OSM    C7F15477   3.673   2.110   7.215 -0.5442 -0.1357 -0.1709
  141OSM    H7F15478   3.573   2.159   7.225  0.6469  2.4105 -0.3375
  141OSM    H7G15479   3.745   2.185   7.176  0.5466 -0.9298  0.2868
  141OSM    C8F15480   3.733   2.074   7.354 -0.4291 -0.1906 -0.1759
  141OSM    H8F15481   3.731   2.168   7.412 -2.9563  1.1236 -2.2639
  141OSM    H8G15482   3.843   2.061   7.352 -0.1596  1.4126  2.2762
  141OSM    C9F15483   3.663   1.966   7.437 -0.1097  0.0255 -0.4449
  141OSM    H9F15484   3.577   1.923   7.384  0.9063  1.4190 -3.3418
  141OSM   C10F15485   3.708   1.909   7.548  0.8396  0.7664  0.3764
  141OSM   H10F15486   3.664   1.811   7.574 -1.9154  1.3351 -1.8723
  141OSM   C11F15487   3.831   1.952   7.615 -0.0879  0.0320  0.1945
  141OSM   H11F15488   3.897   1.996   7.537 -0.9521 -0.2200 -0.6915
  141OSM   H11G15489   3.888   1.862   7.647  0.3601  0.4594  0.6177
  141OSM   C12F15490   3.815   2.057   7.728  0.1704 -0.4360  0.3275
  141OSM   H12F15491   3.772   2.149   7.682  1.3274 -0.3716 -0.6482
  141OSM   H12G15492   3.920   2.081   7.755  0.8199 -2.2039 -0.4773
  141OSM   C13F15493   3.745   2.013   7.853 -0.7617  0.4509  0.1327
  141OSM   H13F15494   3.636   1.999   7.839 -0.2285 -1.8843 -2.2041
  141OSM   H13G15495   3.761   2.095   7.926  2.6203 -0.1025  0.0747
  141OSM   C14F15496   3.800   1.888   7.918  0.2396  0.0377 -0.3135
  141OSM   H14F15497   3.911   1.882   7.922  0.2493  0.3119 -0.2180
  141OSM   H14G15498   3.760   1.804   7.857  1.1070 -0.3802 -0.3104
  141OSM   C15F15499   3.750   1.862   8.055 -0.4199 -0.2537 -0.3557
  141OSM   H15F15500   3.639   1.865   8.055 -0.5428 -3.3541  0.3959
  141OSM   H15G15501   3.790   1.944   8.119  0.9586 -1.0221 -0.2153
  141OSM   C16F15502   3.805   1.725   8.103  0.0864  0.0537 -0.2047
  141OSM   H16F15503   3.914   1.741   8.117  0.1733 -0.4996 -0.2554
  141OSM   H16G15504   3.785   1.644   8.030 -2.7729  0.4534  0.1002
  141OSM   C17F15505   3.747   1.678   8.237 -0.0305 -0.2783  0.7095
  141OSM   H17F15506   3.637   1.668   8.238  0.0096 -0.6925  0.9751
  141OSM   H17G15507   3.756   1.770   8.298  0.4675  0.1159  0.0481
  141OSM   C18F15508   3.821   1.564   8.300 -0.5436  0.8265  0.0926
  141OSM   H18F15509   3.815   1.473   8.237 -0.6814  0.0117  1.2730
  141OSM   H18G15510   3.778   1.538   8.398 -0.0626  3.8456  1.1470
  141OSM   H18H15511   3.929   1.589   8.303 -0.2357 -0.5482  0.7776
  142OSM      N15512   3.902   3.568   5.992 -0.3626  0.7750 -0.2625
  142OSM    C1515513   3.819   3.697   5.990  0.1262  0.6977 -0.0997
  142OSM   H15A15514   3.718   3.673   5.958 -0.9594  1.3344  2.6669
  142OSM   H15B15515   3.867   3.778   5.937  0.5036 -0.1071 -0.9930
  142OSM   H15C15516   3.816   3.735   6.091  0.0748 -0.2365  0.2478
  142OSM    C1415517   3.907   3.512   5.851  0.1330  1.1433 -0.4304
  142OSM   H14A15518   3.979   3.562   5.787  0.3541  0.8771 -0.3878
  142OSM   H14B15519   3.811   3.526   5.802 -0.1634  0.5322 -0.0218
  142OSM   H14C15520   3.930   3.407   5.844 -1.2110  0.7178  1.2500
  142OSM    C1315521   4.042   3.596   6.037 -0.7234 -0.1766  0.3670
  142OSM   H13A15522   4.082   3.679   5.981 -1.4233 -0.0133  0.0953
  142OSM   H13B15523   4.114   3.517   6.031 -1.9622 -1.6438  3.5043
  142OSM   H13C15524   4.041   3.627   6.141 -3.9700 -0.3656  0.4510
  142OSM    C1215525   3.851   3.468   6.091 -0.3416 -0.9964 -0.4114
  142OSM   H12A15526   3.907   3.376   6.091  1.0375 -0.3296  4.3117
  142OSM   H12B15527   3.749   3.443   6.067 -0.9144  1.0164 -0.2016
  142OSM    C1115528   3.858   3.520   6.243  0.0307  0.6057  0.0080
  142OSM   H11A15529   3.959   3.556   6.268  0.5444 -2.2544  2.3598
  142OSM   H11B15530   3.838   3.430   6.305  0.6818  1.8568  2.0591
  142OSM      P15531   3.610   3.610   6.279 -0.1258  0.3282 -0.3784
  142OSM    O1315532   3.552   3.741   6.255 -0.1685 -0.1335  0.2216
  142OSM    O1415533   3.571   3.507   6.178  0.0356 -0.1328 -0.0880
  142OSM    O1115534   3.581   3.563   6.425  0.1442 -0.1315 -0.1716
  142OSM    O1215535   3.768   3.619   6.268 -0.0651  0.3882  0.4600
  142OSM    C1S15536   3.663   3.617   6.537 -0.3346  0.6158 -0.2808
  142OSM    H1S15537   3.682   3.723   6.512  0.7261  0.4575 -0.1664
  142OSM    H1T15538   3.761   3.566   6.545  1.3018  3.5842 -0.6830
  142OSM     NF15539   3.651   3.703   6.777  0.2052  0.0866 -0.1364
  142OSM    HNF15540   3.700   3.650   6.846  0.1749  0.3484  0.0900
  142OSM    C2S15541   3.591   3.615   6.677  0.4380 -0.4643 -0.2657
  142OSM    H2S15542   3.489   3.658   6.667 -0.6127 -2.1884  2.4244
  142OSM    C3S15543   3.567   3.466   6.721  0.1894 -0.2961  0.1445
  142OSM    H3S15544   3.667   3.423   6.746  1.9670  2.6539 -1.6370
  142OSM     O315545   3.516   3.378   6.619 -0.3560  0.2787  0.3631
  142OSM    HO315546   3.537   3.428   6.540  2.3294 -1.9050 -0.3563
  142OSM    C4S15547   3.483   3.462   6.845 -0.1708 -0.4671 -0.0875
  142OSM    H4S15548   3.392   3.521   6.830 -0.2836 -0.6605 -0.1641
  142OSM    C5S15549   3.517   3.407   6.964  0.7679  0.4490 -0.0106
  142OSM    H5S15550   3.614   3.357   6.973 -0.7222 -3.2961 -3.2044
  142OSM    C6S15551   3.446   3.420   7.095 -0.3276  0.0547 -0.6395
  142OSM    H6S15552   3.407   3.320   7.124 -0.3318  0.0009 -0.8314
  142OSM    H6T15553   3.357   3.487   7.088 -0.3418  0.1438  0.2344
  142OSM    C7S15554   3.532   3.490   7.202 -0.1959 -0.2856 -0.2927
  142OSM    H7S15555   3.550   3.593   7.165 -0.5685  0.4504  1.5163
  142OSM    H7T15556   3.626   3.433   7.218  0.5311  0.9239 -0.1548
  142OSM    C8S15557   3.469   3.489   7.340 -0.2751  0.0425  0.5164
  142OSM    H8S15558   3.443   3.381   7.352 -1.6306  0.2271 -0.6066
  142OSM    H8T15559   3.364   3.526   7.343 -0.3111  0.2059 -1.9121
  142OSM    C9S15560   3.558   3.545   7.451 -0.0840  0.5480 -0.6696
  142OSM    H9S15561   3.494   3.590   7.530  0.5597 -0.3322  0.3776
  142OSM    H9T15562   3.615   3.620   7.392 -1.4041  1.8462 -0.3077
  142OSM   C10S15563   3.643   3.442   7.517 -0.0629 -0.1660  0.3759
  142OSM   H10S15564   3.718   3.404   7.445  0.7078 -0.3131  1.2578
  142OSM   H10T15565   3.577   3.354   7.537 -1.1288  0.5311 -0.0156
  142OSM   C11S15566   3.700   3.486   7.653 -0.2339  0.6773 -0.3486
  142OSM   H11S15567   3.773   3.568   7.640  0.7803 -0.1735 -0.0765
  142OSM   H11T15568   3.754   3.401   7.700 -2.6915  0.3866  2.0519
  142OSM   C12S15569   3.593   3.517   7.757 -0.2371 -0.0190  0.0280
  142OSM   H12S15570   3.513   3.441   7.742 -0.2275 -0.0524  0.1415
  142OSM   H12T15571   3.554   3.621   7.755 -2.1316 -0.6676  1.1928
  142OSM   C13S15572   3.649   3.501   7.904 -0.6356  0.3743 -0.0241
  142OSM   H13S15573   3.663   3.397   7.941 -0.1767  0.7761  0.9386
  142OSM   H13T15574   3.579   3.559   7.968 -2.6112  1.6835 -3.2519
  142OSM   C14S15575   3.777   3.583   7.924  0.2079  0.6561  0.0953
  142OSM   H14S15576   3.753   3.679   7.874  3.3861  1.1742 -0.5656
  142OSM   H14T15577   3.870   3.529   7.895 -0.0151 -0.0337  0.6565
  142OSM   C15S15578   3.793   3.629   8.074  0.5524  0.2182 -0.6819
  142OSM   H15S15579   3.692   3.654   8.114 -0.4285 -1.3679 -2.1202
  142OSM   H15T15580   3.861   3.718   8.075  1.0715 -0.1820 -0.1190
  142OSM   C16S15581   3.852   3.518   8.169 -0.2851  0.2570  0.1762
  142OSM   H16S15582   3.939   3.553   8.229 -0.3895  1.7430 -0.5043
  142OSM   H16T15583   3.901   3.450   8.096 -1.6188 -1.0340  0.4692
  142OSM   C17S15584   3.751   3.453   8.268 -0.2859  0.0944  0.0497
  142OSM   H17S15585   3.675   3.391   8.214  0.1809 -0.6992  0.2915
  142OSM   H17T15586   3.699   3.537   8.318  0.0015 -1.1749  2.5523
  142OSM   C18S15587   3.814   3.360   8.365 -0.5307  0.0902 -0.0220
  142OSM   H18S15588   3.903   3.308   8.325 -1.2796 -0.5354 -0.8934
  142OSM   H18T15589   3.740   3.282   8.391 -0.1459 -0.6466 -1.1355
  142OSM   H18U15590   3.843   3.408   8.461 -1.4382  4.1000 -1.6173
  142OSM    C1F15591   3.651   3.833   6.761  0.1479 -0.2007 -0.5954
  142OSM     OF15592   3.586   3.883   6.670  0.2969 -0.4320 -0.1224
  142OSM    C2F15593   3.744   3.912   6.855  0.7178 -0.1807  0.2879
  142OSM    H2F15594   3.849   3.906   6.818  1.1641 -0.0857  1.5294
  142OSM    H2G15595   3.742   3.863   6.955  0.5795 -2.4221 -0.7876
  142OSM    C3F15596   3.700   4.059   6.862 -0.3166 -0.1725  0.7332
  142OSM    H3F15597   3.594   4.073   6.891 -0.7303 -0.4381 -0.6240
  142OSM    H3G15598   3.710   4.104   6.760 -1.6604  1.1664  1.1675
  142OSM    C4F15599   3.795   4.142   6.950  1.1404 -0.1625 -0.4969
  142OSM    H4F15600   3.792   4.247   6.914 -1.3838 -0.3113 -0.7806
  142OSM    H4G15601   3.899   4.106   6.933  1.6837  0.4163  1.5326
  142OSM    C5F15602   3.777   4.124   7.101  0.3369  1.0958  0.4937
  142OSM    H5F15603   3.765   4.014   7.115 -1.5682  0.7618 -3.1018
  142OSM    H5G15604   3.683   4.172   7.135  1.1130  1.8363  1.6122
  142OSM    C6F15605   3.885   4.170   7.198 -0.2028  0.1944 -0.2373
  142OSM    H6F15606   3.908   4.279   7.195  0.1801  0.1028 -0.6211
  142OSM    H6G15607   3.980   4.116   7.177  0.5502  1.8563 -1.1805
  142OSM    C7F15608   3.851   4.144   7.345  0.1595  0.4700 -0.5396
  142OSM    H7F15609   3.932   4.083   7.392  0.2624  0.9514 -0.0937
  142OSM    H7G15610   3.754   4.089   7.352 -0.8479  2.0274 -1.7976
  142OSM    C8F15611   3.841   4.277   7.417 -0.0598  0.4725  0.4240
  142OSM    H8F15612   3.753   4.334   7.381 -2.0761 -2.8594 -0.1581
  142OSM    H8G15613   3.934   4.332   7.392  0.1097 -0.3935 -0.9286
  142OSM    C9F15614   3.826   4.254   7.560 -0.1770 -0.4147  0.1894
  142OSM    H9F15615   3.904   4.187   7.600 -1.6282 -0.8154  2.4806
  142OSM   C10F15616   3.732   4.289   7.646  0.0417  0.5685 -0.2366
  142OSM   H10F15617   3.743   4.257   7.750 -1.2084 -1.5998 -0.7595
  142OSM   C11F15618   3.609   4.375   7.613  0.1839 -0.1675 -0.5583
  142OSM   H11F15619   3.580   4.386   7.506 -0.5247  1.1298 -0.2499
  142OSM   H11G15620   3.640   4.479   7.640  0.3803 -0.5627  0.7639
  142OSM   C12F15621   3.486   4.339   7.702 -1.2221  0.2277  0.7969
  142OSM   H12F15622   3.512   4.303   7.804 -0.5764 -1.9446 -0.0948
  142OSM   H12G15623   3.436   4.257   7.646  0.6967 -0.0353 -0.5959
  142OSM   C13F15624   3.392   4.457   7.701 -1.0351  0.7709 -0.1746
  142OSM   H13F15625   3.375   4.474   7.593 -2.7658 -0.0346 -0.0617
  142OSM   H13G15626   3.442   4.548   7.741  1.1744 -1.2184  1.7774
  142OSM   C14F15627   3.255   4.422   7.749 -0.3458  0.1501  0.1173
  142OSM   H14F15628   3.236   4.315   7.727  0.9108 -0.0641  0.0270
  142OSM   H14G15629   3.176   4.479   7.698  0.8290  1.0733 -0.6939
  142OSM   C15F15630   3.234   4.453   7.905  0.0242 -0.1307 -0.0784
  142OSM   H15F15631   3.124   4.445   7.913 -0.4173  2.3616 -2.8140
  142OSM   H15G15632   3.266   4.558   7.920  2.1588 -0.9004  1.0784
  142OSM   C16F15633   3.304   4.354   8.005  1.5922  0.1613 -0.0693
  142OSM   H16F15634   3.410   4.345   7.975  1.0076  1.1340 -2.6006
  142OSM   H16G15635   3.261   4.252   7.993  1.3621  0.4288 -1.6344
  142OSM   C17F15636   3.292   4.399   8.149 -0.1866 -0.5933  0.0151
  142OSM   H17F15637   3.183   4.415   8.164 -0.0788  1.4760 -1.3031
  142OSM   H17G15638   3.339   4.498   8.166 -0.1352 -0.0333 -3.2148
  142OSM   C18F15639   3.346   4.291   8.250 -0.0018  0.0377 -0.3898
  142OSM   H18F15640   3.278   4.203   8.251 -0.2808  0.2575  0.3387
  142OSM   H18G15641   3.320   4.339   8.347  0.7844  0.1775 -0.2489
  142OSM   H18H15642   3.449   4.255   8.228 -0.2722 -0.6886 -0.4966
  143OSM      N15643   5.850   0.001   5.961 -0.2937 -0.7089  0.0741
  143OSM    C1515644   5.829   0.084   5.834 -0.8421  0.8798 -0.6790
  143OSM   H15A15645   5.903   0.163   5.838 -0.3635  0.3516  2.1925
  143OSM   H15B15646   5.727   0.117   5.827 -1.1952 -0.0811 -0.0763
  143OSM   H15C15647   5.849   0.020   5.750 -1.3289 -1.3357  0.8608
  143OSM    C1415648   5.773  -0.121   5.936  0.5469 -0.1396 -0.1719
  143OSM   H14A15649   5.667  -0.100   5.933  0.7527  0.6872 -2.4277
  143OSM   H14B15650   5.786  -0.196   6.013 -0.0653 -0.4817 -0.3990
  143OSM   H14C15651   5.802  -0.164   5.842  0.4982  2.0763 -1.2367
  143OSM    C1315652   5.992  -0.020   5.973  0.0296 -0.1818  0.2043
  143OSM   H13A15653   6.039   0.071   6.007  1.8929 -1.2572  0.5400
  143OSM   H13B15654   6.027  -0.036   5.872 -0.4457  1.6397 -0.2569
  143OSM   H13C15655   6.026  -0.105   6.031  3.2202 -0.5327 -2.0769
  143OSM    C1215656   5.803   0.062   6.093 -0.0191 -0.0302 -0.0721
  143OSM   H12A15657   5.699   0.086   6.074  1.0602  3.5434 -1.8880
  143OSM   H12B15658   5.852   0.158   6.099  0.1119 -0.1278  0.3981
  143OSM    C1115659   5.820  -0.011   6.228  0.0443  0.0479  0.3546
  143OSM   H11A15660   5.787   0.062   6.305  1.4914  0.1523  0.8846
  143OSM   H11B15661   5.930  -0.022   6.228  0.0349 -0.1943  2.1936
  143OSM      P15662   5.601  -0.161   6.261  0.1206  0.4049  0.2981
  143OSM    O1315663   5.526  -0.039   6.221 -0.0845 -0.0739  0.3791
  143OSM    O1415664   5.556  -0.283   6.201  0.2846 -0.0322 -0.0828
  143OSM    O1115665   5.573  -0.184   6.418 -0.1285 -0.0408  0.4164
  143OSM    O1215666   5.754  -0.135   6.249 -0.6566  0.3235 -0.7539
  143OSM    C1S15667   5.652  -0.280   6.480  0.6832 -0.2346  0.1233
  143OSM    H1S15668   5.756  -0.240   6.485  1.0146 -1.1570  0.6724
  143OSM    H1T15669   5.660  -0.378   6.428 -2.5141  0.1024 -1.1286
  143OSM     NF15670   5.669  -0.435   6.682 -0.3590  0.1498  0.5980
  143OSM    HNF15671   5.608  -0.509   6.705  1.4198 -1.5491 -0.0030
  143OSM    C2S15672   5.597  -0.320   6.626  0.0409 -0.4931  0.6376
  143OSM    H2S15673   5.613  -0.235   6.695  1.2712 -2.0451  2.3176
  143OSM    C3S15674   5.443  -0.342   6.625 -0.6663  0.4019 -0.0523
  143OSM    H3S15675   5.420  -0.436   6.570 -0.8624  0.3137  0.1787
  143OSM     O315676   5.369  -0.244   6.554  0.3477 -0.0520 -0.1277
  143OSM    HO315677   5.435  -0.194   6.503 -0.2512  0.8232 -0.0602
  143OSM    C4S15678   5.395  -0.360   6.768  0.2636  0.1838 -0.3698
  143OSM    H4S15679   5.410  -0.465   6.800 -1.0675  0.5987  1.7402
  143OSM    C5S15680   5.349  -0.269   6.856 -1.0166  0.6413  0.1978
  143OSM    H5S15681   5.334  -0.166   6.823  1.1082  0.5184 -1.3209
  143OSM    C6S15682   5.299  -0.293   6.997 -0.6107  0.4562 -0.2127
  143OSM    H6S15683   5.191  -0.316   7.002 -1.0712  2.3838 -0.8678
  143OSM    H6T15684   5.316  -0.199   7.054  0.5163  1.1553 -1.6737
  143OSM    C7S15685   5.364  -0.411   7.075 -0.0526 -0.5524 -0.9814
  143OSM    H7S15686   5.474  -0.393   7.082 -0.6725  3.3171 -0.4040
  143OSM    H7T15687   5.344  -0.504   7.017  0.7428 -2.0507  1.0656
  143OSM    C8S15688   5.294  -0.440   7.214  0.2378 -0.4435  0.0779
  143OSM    H8S15689   5.186  -0.463   7.205 -0.3243  1.7241  0.9419
  143OSM    H8T15690   5.323  -0.362   7.288  0.1275 -2.4971  2.3349
  143OSM    C9S15691   5.349  -0.574   7.275 -0.1349  0.2627 -0.9482
  143OSM    H9S15692   5.458  -0.560   7.257 -0.1942  0.3252 -1.2748
  143OSM    H9T15693   5.326  -0.657   7.204  1.1475  0.5217 -1.6888
  143OSM   C10S15694   5.310  -0.599   7.414  0.1458 -0.0518  0.0611
  143OSM   H10S15695   5.355  -0.515   7.471  0.2480 -0.9476  1.3214
  143OSM   H10T15696   5.348  -0.691   7.463  0.3655  0.7490  1.4482
  143OSM   C11S15697   5.153  -0.599   7.439 -0.2886  0.3081  0.2696
  143OSM   H11S15698   5.098  -0.668   7.372  0.9159 -1.9823  1.5868
  143OSM   H11T15699   5.122  -0.493   7.423 -0.9820  0.6516  3.4880
  143OSM   C12S15700   5.116  -0.651   7.582  0.0912 -0.1482  0.0740
  143OSM   H12S15701   5.181  -0.741   7.582 -1.1797 -1.0725  0.3449
  143OSM   H12T15702   5.010  -0.682   7.596  0.1361 -0.1556  0.4052
  143OSM   C13S15703   5.150  -0.554   7.693  0.5672  0.9919  0.8738
  143OSM   H13S15704   5.067  -0.491   7.733 -0.8037  1.0345 -1.8947
  143OSM   H13T15705   5.226  -0.483   7.652  1.6909 -1.2909 -1.1253
  143OSM   C14S15706   5.219  -0.635   7.812 -0.0062 -0.2700  0.1883
  143OSM   H14S15707   5.228  -0.558   7.891  3.3078 -0.5160  0.0975
  143OSM   H14T15708   5.319  -0.670   7.781 -0.3115 -1.0757  0.1104
  143OSM   C15S15709   5.133  -0.752   7.861 -0.0678  0.7054  0.0329
  143OSM   H15S15710   5.138  -0.837   7.789 -1.2991 -0.3966  1.2417
  143OSM   H15T15711   5.027  -0.719   7.870 -0.2226 -0.1676  1.5084
  143OSM   C16S15712   5.186  -0.807   7.992  0.4818  0.0045 -0.4424
  143OSM   H16S15713   5.136  -0.760   8.079  2.0510  1.5415 -0.3629
  143OSM   H16T15714   5.296  -0.810   8.006  0.8738  0.5189 -3.1953
  143OSM   C17S15715   5.145  -0.954   8.013  0.4174  0.3990 -0.0846
  143OSM   H17S15716   5.199  -1.016   7.938  0.1921 -0.4605  0.4669
  143OSM   H17T15717   5.038  -0.971   7.991 -0.4335  2.4851  2.2002
  143OSM   C18S15718   5.162  -1.011   8.155 -0.1024 -0.0450 -0.2481
  143OSM   H18S15719   5.271  -1.015   8.177 -0.6003 -2.0931  1.9729
  143OSM   H18T15720   5.122  -1.114   8.154  0.2817 -0.2044  0.4394
  143OSM   H18U15721   5.112  -0.960   8.240 -1.1078  1.6412 -1.8098
  143OSM    C1F15722   5.805  -0.441   6.694  0.5803  0.2196  0.1791
  143OSM     OF15723   5.866  -0.336   6.686 -0.2345 -0.0638  0.1785
  143OSM    C2F15724   5.875  -0.573   6.720 -0.3837  0.7588 -1.1618
  143OSM    H2F15725   5.959  -0.593   6.650  0.2465 -1.3127  0.1727
  143OSM    H2G15726   5.796  -0.651   6.714 -0.6436  0.4836  4.0041
  143OSM    C3F15727   5.917  -0.581   6.873  0.0546  0.1310 -0.6297
  143OSM    H3F15728   5.982  -0.491   6.886  2.3314 -1.4543 -0.7077
  143OSM    H3G15729   5.982  -0.670   6.886  1.5207  0.8120 -3.0523
  143OSM    C4F15730   5.807  -0.588   6.976  0.0532  0.0313 -0.0260
  143OSM    H4F15731   5.761  -0.689   6.973  1.6598 -0.6743 -1.9631
  143OSM    H4G15732   5.733  -0.512   6.944  2.8197  2.7770 -0.1501
  143OSM    C5F15733   5.864  -0.560   7.113 -0.1521  0.3433  0.5237
  143OSM    H5F15734   5.889  -0.452   7.117  0.5508  0.1752  0.8601
  143OSM    H5G15735   5.950  -0.629   7.126 -0.2827 -0.4638 -2.4673
  143OSM    C6F15736   5.758  -0.575   7.226  0.0985 -0.2463  0.3451
  143OSM    H6F15737   5.710  -0.674   7.207 -0.4338  0.0328  0.2215
  143OSM    H6G15738   5.684  -0.495   7.205  0.4246  0.6043  2.3892
  143OSM    C7F15739   5.797  -0.553   7.372  0.7699  0.1775  0.2473
  143OSM    H7F15740   5.837  -0.450   7.387 -0.9126  0.6046  2.0185
  143OSM    H7G15741   5.872  -0.633   7.393 -0.9575 -1.4387  0.3764
  143OSM    C8F15742   5.678  -0.545   7.469  0.1838  0.4514  0.5865
  143OSM    H8F15743   5.629  -0.645   7.473  1.6096 -0.2459  0.7757
  143OSM    H8G15744   5.610  -0.480   7.410  1.4995 -0.7239 -2.3101
  143OSM    C9F15745   5.700  -0.489   7.609 -0.4734 -0.1643 -0.3152
  143OSM    H9F15746   5.636  -0.400   7.619  1.8895  1.6366 -1.0895
  143OSM   C10F15747   5.758  -0.551   7.715  0.1184  0.1393  0.5769
  143OSM   H10F15748   5.762  -0.494   7.809  1.8872  1.7657 -0.4654
  143OSM   C11F15749   5.835  -0.685   7.719  0.2588  0.1446 -0.5740
  143OSM   H11F15750   5.879  -0.719   7.622 -0.8546 -1.4292 -0.5538
  143OSM   H11G15751   5.751  -0.756   7.735  0.9816 -0.8957 -1.2522
  143OSM   C12F15752   5.944  -0.696   7.822 -0.4347  0.1055  0.1687
  143OSM   H12F15753   6.013  -0.609   7.825 -1.6089  1.0243  2.4646
  143OSM   H12G15754   6.006  -0.787   7.809 -2.0949 -1.2397  1.4695
  143OSM   C13F15755   5.887  -0.705   7.968 -0.6386 -0.4182 -0.4331
  143OSM   H13F15756   5.822  -0.795   7.975 -1.1338 -0.1784 -1.7204
  143OSM   H13G15757   5.815  -0.623   7.992 -0.1835 -0.4333  1.0283
  143OSM   C14F15758   6.010  -0.698   8.069  0.4186  0.0477 -0.0170
  143OSM   H14F15759   6.105  -0.726   8.020  0.4331  0.7691 -0.3985
  143OSM   H14G15760   5.986  -0.745   8.167  1.2525  2.0475  1.1868
  143OSM   C15F15761   6.032  -0.555   8.123 -0.0925  0.0204 -0.4357
  143OSM   H15F15762   5.971  -0.536   8.214  1.5205 -1.7064  1.0371
  143OSM   H15G15763   6.006  -0.481   8.044  0.0769 -0.5990 -1.0845
  143OSM   C16F15764   6.182  -0.537   8.145 -1.1361  0.3404  0.6452
  143OSM   H16F15765   6.233  -0.562   8.049 -1.8421  2.8625 -0.4259
  143OSM   H16G15766   6.216  -0.612   8.220 -0.8501  1.0501  1.2276
  143OSM   C17F15767   6.218  -0.394   8.185 -0.1339 -0.2087 -0.0329
  143OSM   H17F15768   6.157  -0.314   8.137  1.4319  1.7274  1.1225
  143OSM   H17G15769   6.324  -0.379   8.157 -0.0348  1.0763  1.0114
  143OSM   C18F15770   6.208  -0.367   8.331  0.1869 -1.0538 -0.0967
  143OSM   H18F15771   6.289  -0.418   8.388  0.1643  0.7883  1.6145
  143OSM   H18G15772   6.115  -0.407   8.375  0.2212 -1.3383 -0.2787
  143OSM   H18H15773   6.223  -0.260   8.354  1.3644 -0.9948 -1.0603
  144OSM      N15774   3.734   5.573   6.129 -0.3312 -0.0620 -0.8189
  144OSM    C1515775   3.660   5.442   6.127  0.1282  0.1747  0.2023
  144OSM   H15A15776   3.727   5.360   6.107  1.3077  0.9988  0.7641
  144OSM   H15B15777   3.576   5.455   6.060  1.7081 -2.6631 -2.5051
  144OSM   H15C15778   3.619   5.422   6.225  1.2585 -1.9540  0.2737
  144OSM    C1415779   3.628   5.683   6.151  0.1398  0.1749  0.1458
  144OSM   H14A15780   3.573   5.669   6.243  1.1726  0.0448  0.7456
  144OSM   H14B15781   3.561   5.675   6.066  0.0540  0.0559  0.2259
  144OSM   H14C15782   3.672   5.782   6.150 -0.4019  0.4167 -0.6261
  144OSM    C1315783   3.837   5.568   6.232 -0.1156 -0.0166  0.2343
  144OSM   H13A15784   3.906   5.485   6.223 -0.2173 -0.0993  0.2113
  144OSM   H13B15785   3.794   5.554   6.330  1.3671  1.6471  1.1433
  144OSM   H13C15786   3.896   5.658   6.234 -0.2090  0.0577 -0.3022
  144OSM    C1215787   3.795   5.601   5.992  0.4280 -0.1255  0.5771
  144OSM   H12A15788   3.712   5.603   5.923  1.2127  0.8506 -0.3453
  144OSM   H12B15789   3.857   5.517   5.966  0.4238 -0.0909  0.4588
  144OSM    C1115790   3.870   5.730   5.972 -0.0592  0.2440 -0.2204
  144OSM   H11A15791   3.804   5.818   5.990  0.5854  0.3460  1.7194
  144OSM   H11B15792   3.905   5.736   5.866 -1.2364 -2.1623 -0.7806
  144OSM      P15793   4.119   5.680   6.035 -0.1089 -0.1357 -0.3246
  144OSM    O1315794   4.102   5.553   5.956 -0.7541 -0.3068  0.3012
  144OSM    O1415795   4.212   5.786   5.979  0.0893  1.0078  0.0421
  144OSM    O1115796   4.168   5.645   6.181 -0.3864  0.1487  0.5948
  144OSM    O1215797   3.979   5.746   6.066  0.3344 -0.2321 -0.1119
  144OSM    C1S15798   4.163   5.738   6.289 -0.2294  0.8065 -0.0143
  144OSM    H1S15799   4.060   5.777   6.302  0.1105  1.1691  1.6619
  144OSM    H1T15800   4.230   5.819   6.254  1.6366 -0.5146  0.4473
  144OSM     NF15801   4.231   5.778   6.521  0.1536 -0.3405 -0.3139
  144OSM    HNF15802   4.320   5.820   6.540 -0.5669  0.7833  0.6469
  144OSM    C2S15803   4.214   5.681   6.417 -0.1152 -0.0448 -1.3709
  144OSM    H2S15804   4.146   5.602   6.457  1.7593 -1.0642 -0.0974
  144OSM    C3S15805   4.349   5.599   6.396 -0.1897 -0.1677  0.5893
  144OSM    H3S15806   4.441   5.657   6.373 -1.7769  1.4072 -2.1225
  144OSM     O315807   4.350   5.494   6.300  0.0772 -0.7915 -0.3784
  144OSM    HO315808   4.268   5.501   6.251 -1.0177 -2.7211  1.1326
  144OSM    C4S15809   4.375   5.536   6.527  0.3391  0.0429 -0.3070
  144OSM    H4S15810   4.453   5.579   6.591  0.4250 -0.7293  0.1057
  144OSM    C5S15811   4.324   5.412   6.568  0.1918 -0.4013  0.6753
  144OSM    H5S15812   4.245   5.363   6.508  1.1154 -0.4723 -0.4841
  144OSM    C6S15813   4.361   5.339   6.698 -0.0408 -0.5259  0.3914
  144OSM    H6S15814   4.297   5.252   6.725 -0.7641 -0.0964  0.0658
  144OSM    H6T15815   4.354   5.404   6.788 -0.4133  0.6388 -0.4666
  144OSM    C7S15816   4.504   5.283   6.685  0.0978  0.9834  0.1472
  144OSM    H7S15817   4.581   5.363   6.681  0.9665  0.0827 -2.6345
  144OSM    H7T15818   4.522   5.221   6.594 -1.1935  1.5730 -0.5347
  144OSM    C8S15819   4.533   5.194   6.804  0.4910  0.6178  0.2313
  144OSM    H8S15820   4.644   5.188   6.809  0.4246  0.1925  1.5161
  144OSM    H8T15821   4.490   5.096   6.774  0.0307  0.9775 -0.2958
  144OSM    C9S15822   4.484   5.229   6.942 -0.0213 -0.4673  0.0400
  144OSM    H9S15823   4.374   5.243   6.944 -0.1400 -1.4095  0.1406
  144OSM    H9T15824   4.538   5.326   6.954 -1.5382  0.7206 -2.3586
  144OSM   C10S15825   4.519   5.135   7.051  0.1622  0.1356 -0.2929
  144OSM   H10S15826   4.621   5.095   7.029  0.3238 -0.2628  1.1269
  144OSM   H10T15827   4.454   5.045   7.058  0.3243  0.1148  1.2756
  144OSM   C11S15828   4.534   5.187   7.192 -0.4497  0.1373  0.4450
  144OSM   H11S15829   4.437   5.226   7.229  0.9292  2.1525  2.0863
  144OSM   H11T15830   4.610   5.268   7.200  0.7881 -1.0079  0.5277
  144OSM   C12S15831   4.580   5.077   7.286 -0.1738  0.2791 -0.5093
  144OSM   H12S15832   4.683   5.042   7.265  0.5068  1.0740  1.4086
  144OSM   H12T15833   4.512   4.989   7.290  1.6673 -1.1700 -0.2801
  144OSM   C13S15834   4.576   5.141   7.424  0.6753 -0.0936 -0.1350
  144OSM   H13S15835   4.475   5.186   7.438  0.2007 -1.0441 -0.5193
  144OSM   H13T15836   4.649   5.225   7.430 -1.6850  1.9699  0.4927
  144OSM   C14S15837   4.583   5.045   7.537  0.3159 -0.0444 -0.0534
  144OSM   H14S15838   4.688   5.010   7.548 -0.0320 -0.0015  4.4053
  144OSM   H14T15839   4.520   4.956   7.517 -2.9373  2.5771 -2.1175
  144OSM   C15S15840   4.544   5.097   7.673  0.0361 -0.7269 -0.2754
  144OSM   H15S15841   4.434   5.111   7.670  0.1241  0.0600  0.0616
  144OSM   H15T15842   4.581   5.200   7.693  1.3190 -1.4658  1.3482
  144OSM   C16S15843   4.573   5.005   7.793  0.8873 -0.5190  1.0274
  144OSM   H16S15844   4.679   4.973   7.784  0.8978 -0.9410  2.5409
  144OSM   H16T15845   4.516   4.910   7.791 -0.2263  0.1624 -1.8506
  144OSM   C17S15846   4.562   5.083   7.924 -0.1120  0.5043 -0.9231
  144OSM   H17S15847   4.462   5.132   7.928 -0.9689 -1.2802 -0.3656
  144OSM   H17T15848   4.626   5.174   7.923 -0.3273  0.6538 -2.3167
  144OSM   C18S15849   4.588   4.998   8.050 -0.2188  0.6520  0.2549
  144OSM   H18S15850   4.561   4.890   8.039  0.1463  0.3729  1.9511
  144OSM   H18T15851   4.520   5.023   8.134  0.5158 -0.9438  1.3572
  144OSM   H18U15852   4.694   5.002   8.083  0.2713  2.9174 -1.5021
  144OSM    C1F15853   4.126   5.839   6.573 -0.1594 -0.4940  0.7477
  144OSM     OF15854   4.015   5.806   6.544  0.3492  0.4380 -0.3246
  144OSM    C2F15855   4.154   5.956   6.667 -0.4035  0.5867 -0.0127
  144OSM    H2F15856   4.177   6.037   6.594  2.4577 -0.0565  0.0896
  144OSM    H2G15857   4.245   5.936   6.728 -1.8382 -1.9345  1.3674
  144OSM    C3F15858   4.030   5.999   6.752 -0.6452  0.4450  0.2483
  144OSM    H3F15859   3.942   6.015   6.686 -0.2493 -0.4966 -0.5031
  144OSM    H3G15860   4.060   6.093   6.804  1.2108  0.5399 -0.9528
  144OSM    C4F15861   4.002   5.892   6.859 -0.3663  0.0759  0.3109
  144OSM    H4F15862   4.086   5.867   6.928 -0.1018 -0.0521 -0.0531
  144OSM    H4G15863   3.974   5.797   6.810  2.2446  0.2342 -1.5984
  144OSM    C5F15864   3.886   5.929   6.954 -0.4729 -0.0360 -0.4285
  144OSM    H5F15865   3.792   5.926   6.894 -0.5372 -0.5526 -0.2994
  144OSM    H5G15866   3.906   6.033   6.989 -1.8349  0.1326 -0.1065
  144OSM    C6F15867   3.883   5.825   7.066  0.0980 -0.0694 -0.0657
  144OSM    H6F15868   3.984   5.820   7.113  1.6532 -1.6729 -3.3387
  144OSM    H6G15869   3.857   5.727   7.021 -0.2960  0.1323 -0.2865
  144OSM    C7F15870   3.774   5.859   7.172  0.2686 -0.1310 -0.3460
  144OSM    H7F15871   3.749   5.765   7.226 -1.2282  1.1562  1.2178
  144OSM    H7G15872   3.686   5.886   7.110  1.2980 -0.3497 -1.9242
  144OSM    C8F15873   3.822   5.963   7.266 -0.3414 -0.1110 -0.2802
  144OSM    H8F15874   3.841   6.060   7.215 -0.1479  0.5415  0.9993
  144OSM    H8G15875   3.921   5.924   7.299 -0.0545  0.4967 -0.4179
  144OSM    C9F15876   3.722   5.990   7.379  0.8822 -0.8105  0.6967
  144OSM    H9F15877   3.647   6.068   7.358 -0.1447 -1.5867  1.4401
  144OSM   C10F15878   3.735   5.943   7.507 -0.0749  0.3455 -0.0471
  144OSM   H10F15879   3.660   5.974   7.582 -0.6912  0.7595 -0.8228
  144OSM   C11F15880   3.850   5.856   7.561  0.9622 -0.3305  0.1450
  144OSM   H11F15881   3.951   5.903   7.560  1.3529 -1.1119  1.8826
  144OSM   H11G15882   3.873   5.765   7.502 -1.3279 -0.2626 -0.8883
  144OSM   C12F15883   3.824   5.801   7.696 -0.0341 -0.4210  0.3314
  144OSM   H12F15884   3.905   5.727   7.714  0.5910 -0.0787 -1.0497
  144OSM   H12G15885   3.731   5.739   7.697 -0.2079 -0.1561  1.4812
  144OSM   C13F15886   3.846   5.905   7.802 -0.1005 -0.6523  0.4318
  144OSM   H13F15887   3.773   5.989   7.804  2.7659  1.9440 -1.0600
  144OSM   H13G15888   3.938   5.959   7.771 -0.7131 -0.6004 -1.3585
  144OSM   C14F15889   3.850   5.846   7.945  0.6297 -0.1452 -0.1755
  144OSM   H14F15890   3.938   5.779   7.948  0.8090  0.1122  0.3376
  144OSM   H14G15891   3.752   5.794   7.952  0.5895 -0.1317 -0.6216
  144OSM   C15F15892   3.863   5.957   8.050 -0.1596  0.2472  0.0572
  144OSM   H15F15893   3.779   6.029   8.051 -0.9714 -0.7197  2.6314
  144OSM   H15G15894   3.947   6.015   8.007 -0.0240 -1.0052 -1.4282
  144OSM   C16F15895   3.885   5.896   8.188 -0.0328 -0.4566 -0.2430
  144OSM   H16F15896   3.988   5.861   8.206  0.5229  1.5860  0.7192
  144OSM   H16G15897   3.812   5.813   8.196  0.5583 -1.2140 -2.4268
  144OSM   C17F15898   3.855   5.992   8.306 -0.0278 -0.2223  0.2977
  144OSM   H17F15899   3.753   6.033   8.288  0.6632  1.1957 -0.4796
  144OSM   H17G15900   3.926   6.076   8.293  1.7087 -1.4876  1.3447
  144OSM   C18F15901   3.877   5.929   8.446 -0.2221 -0.0536 -0.8662
  144OSM   H18F15902   3.842   6.006   8.519 -1.7844 -0.0650 -1.5891
  144OSM   H18G15903   3.980   5.909   8.483 -0.2802 -0.5605 -0.9818
  144OSM   H18H15904   3.817   5.836   8.456 -0.5713  0.1214 -1.3145
  145SAPE     N15905   3.199   6.284  10.932  0.0921 -0.9205  0.1378
  145SAPE   HN115906   3.287   6.338  10.938 -0.5804  0.1148  1.0311
  145SAPE   HN215907   3.183   6.234  11.022 -0.4673  0.0645  0.6012
  145SAPE   HN315908   3.206   6.207  10.864 -1.8618 -1.2202  0.2212
  145SAPE   C1215909   3.084   6.372  10.886 -0.8411  0.4633  0.1813
  145SAPE  H12A15910   3.086   6.389  10.776  0.5477  2.6867  0.5189
  145SAPE  H12B15911   3.094   6.466  10.944  2.9621  1.6288 -2.1813
  145SAPE   C1115912   2.959   6.296  10.919  0.6524  0.5366 -0.1989
  145SAPE  H11A15913   2.871   6.357  10.888  0.2687  0.6228  1.0469
  145SAPE  H11B15914   2.953   6.285  11.029  0.2962 -1.3537 -0.3844
  145SAPE     P15915   2.898   6.113  10.724  0.5657  0.1431 -0.2672
  145SAPE   O1315916   2.935   5.970  10.705 -0.4378  0.0233  0.0333
  145SAPE   O1415917   2.755   6.149  10.713 -0.3607  0.2837 -0.0186
  145SAPE   O1215918   2.950   6.159  10.863 -0.1348  0.0413  0.4439
  145SAPE   O1115919   2.972   6.193  10.618 -0.0698  0.6454  0.9004
  145SAPE    C115920   3.111   6.189  10.577 -0.3330 -0.5461 -0.5019
  145SAPE    HA15921   3.161   6.271  10.632 -5.0225  3.8538 -2.3328
  145SAPE    HB15922   3.161   6.093  10.603 -1.4021 -0.8168  0.6159
  145SAPE    C215923   3.123   6.224  10.429  0.3571 -0.1744 -0.3237
  145SAPE    HS15924   3.230   6.242  10.408  0.0699  1.5652 -0.3171
  145SAPE   O2115925   3.049   6.337  10.390  0.1343 -0.1701  0.0714
  145SAPE   C2115926   3.109   6.451  10.424 -0.6011 -0.6245  0.0559
  145SAPE   O2215927   3.201   6.465  10.502 -0.0037 -0.1668 -0.1022
  145SAPE   C2215928   3.043   6.576  10.359 -0.3168 -0.6757  0.0752
  145SAPE   H2R15929   2.957   6.544  10.296 -0.0541 -0.5949 -0.3270
  145SAPE   H2S15930   3.005   6.629  10.449 -0.6249 -0.9219  0.0896
  145SAPE    C315931   3.095   6.101  10.346 -0.3345 -0.0874 -0.2198
  145SAPE    HX15932   3.000   6.063  10.389 -0.7886 -0.0036 -1.1268
  145SAPE    HY15933   3.177   6.030  10.367 -1.6690 -1.2852  1.1248
  145SAPE   O3115934   3.089   6.125  10.205 -0.1101  0.5163 -0.6940
  145SAPE   C3115935   3.175   6.191  10.136  0.2004 -0.9742  0.2147
  145SAPE   O3215936   3.284   6.235  10.176 -0.2190  0.0972  0.1669
  145SAPE   C3215937   3.114   6.223  10.006  0.6643  1.0940  0.5519
  145SAPE   H2X15938   3.061   6.320  10.019  0.8634  1.3313 -0.3482
  145SAPE   H2Y15939   3.035   6.151   9.975  2.8919 -1.1060 -0.1744
  145SAPE   C2315940   3.146   6.655  10.285 -0.2233  0.2100 -0.2769
  145SAPE   H3R15941   3.234   6.685  10.346 -0.3513 -0.5323  0.2761
  145SAPE   H3S15942   3.103   6.748  10.243  0.5277  1.1928  1.1064
  145SAPE   C2415943   3.199   6.575  10.164 -0.1963 -0.5890  0.0260
  145SAPE   H4R15944   3.111   6.535  10.111  0.1904 -2.0202  0.4555
  145SAPE   H4S15945   3.261   6.485  10.184  1.8508  0.3817 -1.7524
  145SAPE   C2515946   3.284   6.661  10.063 -0.6476  0.9670 -0.5448
  145SAPE   H5R15947   3.246   6.649   9.960 -1.8882  2.2313 -0.2477
  145SAPE   C2615948   3.389   6.737  10.082 -0.3683 -0.2887 -0.5592
  145SAPE   H6R15949   3.447   6.784  10.001  0.3175  0.4008  0.3153
  145SAPE   C2715950   3.457   6.754  10.218  0.1621  0.9359  0.2480
  145SAPE   H7R15951   3.464   6.656  10.269  3.0171  0.1427 -1.5774
  145SAPE   H7S15952   3.390   6.819  10.280 -2.3584  0.2218 -1.6629
  145SAPE   C2815953   3.594   6.818  10.238 -0.3181 -0.7856 -0.0551
  145SAPE   H8R15954   3.665   6.742  10.274  1.3024  0.1754 -1.1301
  145SAPE   C2915955   3.623   6.947  10.227 -0.4904  0.4900  0.3905
  145SAPE   H9R15956   3.726   6.982  10.245 -0.5192 -0.7563  3.3041
  145SAPE  C21015957   3.538   7.057  10.180  0.1240  0.0843 -0.5122
  145SAPE  H10R15958   3.429   7.038  10.188 -0.2112  1.6800 -1.0487
  145SAPE  H10S15959   3.564   7.055  10.072  3.2432 -0.3655  0.1996
  145SAPE  C21115960   3.566   7.193  10.233  0.5723  0.9458 -0.6325
  145SAPE  H11R15961   3.600   7.186  10.338  0.1861  0.0010 -0.5633
  145SAPE  C21215962   3.560   7.312  10.178 -0.6322 -0.0274  0.4053
  145SAPE  H12R15963   3.612   7.392  10.232 -0.8640 -0.6405  1.5607
  145SAPE  C21315964   3.521   7.343  10.037 -0.1602 -0.5355 -0.1997
  145SAPE  H13R15965   3.510   7.257   9.968 -1.7561 -0.8371  0.4186
  145SAPE  H13S15966   3.603   7.400   9.987 -1.1309  1.3040  0.2462
  145SAPE  C21415967   3.398   7.429  10.031  0.3245 -0.2029  0.0603
  145SAPE  H14R15968   3.389   7.507  10.108  2.4341  0.0448  0.0835
  145SAPE  C21515969   3.291   7.416   9.947 -0.0287 -0.4541 -0.3615
  145SAPE  H15R15970   3.200   7.479   9.951 -0.6401 -1.3698  0.5864
  145SAPE  C21615971   3.279   7.299   9.849  0.4364 -0.6496  0.8741
  145SAPE  H16R15972   3.174   7.263   9.842 -1.0923  3.9635 -2.3218
  145SAPE  H16S15973   3.343   7.215   9.883 -0.6698 -1.6165  0.5814
  145SAPE  C21715974   3.315   7.324   9.707 -0.2599  0.3578  0.6944
  145SAPE  H17R15975   3.251   7.400   9.658  0.8181 -0.0003 -1.3148
  145SAPE  H17S15976   3.295   7.227   9.657  0.8465  0.2095  0.5352
  145SAPE  C21815977   3.459   7.365   9.685  0.6827  0.2452 -0.1166
  145SAPE  H18R15978   3.526   7.291   9.734 -1.8593 -1.2986  1.1191
  145SAPE  H18S15979   3.480   7.468   9.720  1.3717  0.1693 -0.3004
  145SAPE  C21915980   3.493   7.359   9.538  0.2297 -0.4960 -0.3086
  145SAPE  H19R15981   3.447   7.273   9.485 -1.3924  0.1070  0.0776
  145SAPE  H19S15982   3.602   7.339   9.539  0.5534  1.1181 -1.5314
  145SAPE  C22015983   3.460   7.481   9.455 -0.8243  0.6806  0.0879
  145SAPE  H20R15984   3.510   7.471   9.356  2.0479  1.8360  1.3410
  145SAPE  H20S15985   3.495   7.575   9.504 -2.1104 -0.5130  3.4450
  145SAPE  H20T15986   3.351   7.488   9.436 -0.7258  0.1978 -0.6720
  145SAPE   C3315987   3.220   6.251   9.896  0.4448 -0.1654  0.2445
  145SAPE   H3X15988   3.284   6.337   9.925  0.6623  0.5213 -2.2120
  145SAPE   H3Y15989   3.176   6.268   9.796 -0.6745  1.3801  0.9722
  145SAPE   C3415990   3.315   6.133   9.865  0.9637  0.0578  0.4342
  145SAPE   H4X15991   3.270   6.032   9.872  0.6629  0.0813 -0.9887
  145SAPE   H4Y15992   3.392   6.138   9.945  0.0286  0.7398  1.3051
  145SAPE   C3515993   3.400   6.142   9.729 -0.4898  0.0578 -0.3231
  145SAPE   H5X15994   3.488   6.074   9.740  0.3381  1.3076  0.9543
  145SAPE   H5Y15995   3.445   6.243   9.720 -0.6173 -0.0377 -2.2375
  145SAPE   C3615996   3.332   6.094   9.600  0.7310 -0.4227  0.2327
  145SAPE   H6X15997   3.240   6.156   9.592  0.6213 -0.7910 -1.8529
  145SAPE   H6Y15998   3.297   5.989   9.612  0.1137 -0.4015 -1.2593
  145SAPE   C3715999   3.419   6.114   9.465 -0.1565 -0.2392  0.2732
  145SAPE   H7X16000   3.519   6.069   9.485 -0.0442  0.7006  1.9908
  145SAPE   H7Y16001   3.446   6.222   9.461  1.8941 -0.7971 -1.9158
  145SAPE   C3816002   3.348   6.086   9.340  0.3227  0.9215 -0.1117
  145SAPE   H8X16003   3.319   5.979   9.335  0.4375  0.9165 -0.7701
  145SAPE   H8Y16004   3.417   6.096   9.254  1.4983 -0.4470  0.6565
  145SAPE   C3916005   3.220   6.167   9.319 -0.7313 -0.2363  0.3164
  145SAPE   H9X16006   3.260   6.269   9.300  0.0943 -0.0122  3.0325
  145SAPE   H9Y16007   3.177   6.179   9.420 -0.9324  1.2942  0.0715
  145SAPE  C31016008   3.113   6.117   9.220 -0.8025  0.1719  0.0612
  145SAPE  H10X16009   3.026   6.185   9.212 -0.7193  0.7551  3.6374
  145SAPE  H10Y16010   3.085   6.021   9.269 -1.2731  1.1459  1.7122
  145SAPE  C31116011   3.163   6.078   9.077  0.4591 -0.4501  0.3988
  145SAPE  H11X16012   3.078   6.031   9.022  0.5057  1.6676 -1.5420
  145SAPE  H11Y16013   3.251   6.010   9.075  1.1262  0.4198 -0.2350
  145SAPE  C31216014   3.220   6.210   9.008  0.4545  0.3789 -0.0391
  145SAPE  H12X16015   3.253   6.185   8.905  2.3879 -3.0740  1.3291
  145SAPE  H12Y16016   3.310   6.245   9.063  0.3818 -0.2127  0.4712
  145SAPE  C31316017   3.119   6.330   9.015  0.4443 -0.1774  1.0515
  145SAPE  H13X16018   3.114   6.364   9.121 -0.7080 -1.1144  1.3027
  145SAPE  H13Y16019   3.019   6.312   8.969 -0.3439  1.9395  1.8457
  145SAPE  C31416020   3.185   6.458   8.966  0.2743  0.0262 -0.3924
  145SAPE  H14X16021   3.198   6.448   8.856 -2.3059  1.2295 -0.8408
  145SAPE  H14Y16022   3.283   6.469   9.016  0.5308 -3.5148  0.0200
  145SAPE  C31516023   3.097   6.579   8.998  0.3785  0.0468 -0.5477
  145SAPE  H15X16024   3.002   6.567   8.941  0.3323 -2.4459 -0.0011
  145SAPE  H15Y16025   3.144   6.670   8.955 -0.8318  1.7530  1.6292
  145SAPE  C31616026   3.065   6.601   9.145  0.0267 -0.1317  0.2878
  145SAPE  H16X16027   3.155   6.618   9.209  1.1391 -1.2923 -0.9434
  145SAPE  H16Y16028   3.008   6.509   9.168 -2.2873  1.6389  1.8682
  145SAPE  C31716029   2.968   6.718   9.176  0.4488  0.1962  0.5038
  145SAPE  H17X16030   2.887   6.718   9.100  0.7487 -1.7795  0.1609
  145SAPE  H17Y16031   3.024   6.814   9.176  3.5081 -1.5434  1.3415
  145SAPE  C31816032   2.899   6.690   9.310  0.1046 -0.0343 -0.0270
  145SAPE  H18X16033   2.851   6.784   9.343  1.3786  0.1429  1.3820
  145SAPE  H18Y16034   2.980   6.672   9.384 -1.3680  1.1884  1.9496
  145SAPE  H18Z16035   2.827   6.605   9.314  0.2775 -0.1175  2.9897
  146SAPE     N16036   2.409   0.625  10.821 -0.2799  0.4167  0.1471
  146SAPE   HN116037   2.351   0.559  10.876  0.7947 -2.9020 -2.4937
  146SAPE   HN216038   2.494   0.648  10.877 -0.0818  1.7335 -0.6647
  146SAPE   HN316039   2.357   0.712  10.798 -2.7849 -0.5549  2.0445
  146SAPE   C1216040   2.410   0.543  10.691  0.2594 -0.4536 -0.4593
  146SAPE  H12A16041   2.472   0.452  10.705 -0.7692 -1.1522 -0.4124
  146SAPE  H12B16042   2.457   0.603  10.610  0.9001  3.0000  2.3450
  146SAPE   C1116043   2.275   0.494  10.643 -0.3169  0.1319  0.4922
  146SAPE  H11A16044   2.237   0.418  10.715  0.9066 -0.9721 -0.0110
  146SAPE  H11B16045   2.283   0.446  10.543  1.9583  1.3496  0.0620
  146SAPE     P16046   2.032   0.578  10.636 -0.4441 -0.0491 -0.3681
  146SAPE   O1316047   2.013   0.440  10.584  0.3258 -0.3548 -0.5012
  146SAPE   O1416048   1.978   0.612  10.770  0.2447 -0.2835  0.3600
  146SAPE   O1216049   2.189   0.613  10.637  0.1523 -0.5245  0.0508
  146SAPE   O1116050   1.977   0.675  10.527 -0.0409 -0.3322 -0.0336
  146SAPE    C116051   2.024   0.810  10.528  0.2227  0.3567 -0.8667
  146SAPE    HA16052   1.937   0.872  10.558 -0.4549 -0.8251 -0.3557
  146SAPE    HB16053   2.098   0.823  10.610 -0.0885 -2.3940 -0.1001
  146SAPE    C216054   2.104   0.840  10.400 -0.2697  0.4772  0.8022
  146SAPE    HS16055   2.112   0.951  10.396  1.7068  0.3129 -0.0859
  146SAPE   O2116056   2.046   0.793  10.276  0.0521 -0.0454  0.0761
  146SAPE   C2116057   1.921   0.838  10.249  0.0118  0.0589  0.3771
  146SAPE   O2216058   1.861   0.920  10.318  0.6407  0.1323  0.0107
  146SAPE   C2216059   1.859   0.762  10.125  0.2827  0.0136 -0.7519
  146SAPE   H2R16060   1.858   0.656  10.157  3.3584  0.6136  1.5122
  146SAPE   H2S16061   1.752   0.794  10.125  0.6858  1.4292 -0.8835
  146SAPE    C316062   2.247   0.786  10.404 -0.2869 -0.6701 -0.5978
  146SAPE    HX16063   2.236   0.676  10.412  1.7335 -0.8528 -0.2230
  146SAPE    HY16064   2.304   0.826  10.491 -2.0687 -2.0102  1.2537
  146SAPE   O3116065   2.312   0.811  10.277 -0.1676 -0.5321 -0.6678
  146SAPE   C3116066   2.426   0.751  10.264 -0.2062 -0.5428  0.6460
  146SAPE   O3216067   2.483   0.689  10.344 -0.0410 -0.5227  0.0024
  146SAPE   C3216068   2.492   0.797  10.141  0.5805  0.0502 -0.5014
  146SAPE   H2X16069   2.598   0.767  10.156 -0.1426 -2.1088  0.5134
  146SAPE   H2Y16070   2.488   0.908  10.140  1.2141  0.0809 -1.9388
  146SAPE   C2316071   1.914   0.793   9.980 -0.2052  0.3644  1.1412
  146SAPE   H3R16072   1.993   0.715   9.969  0.2008  0.8961  0.2238
  146SAPE   H3S16073   1.969   0.888   9.970 -0.1984  0.2803  0.3314
  146SAPE   C2416074   1.817   0.784   9.868  0.0167 -0.5470 -0.1776
  146SAPE   H4R16075   1.734   0.858   9.872 -0.3970 -0.9371 -1.3271
  146SAPE   H4S16076   1.768   0.685   9.880 -2.6799  1.0135  2.3965
  146SAPE   C2516077   1.893   0.796   9.735 -0.9477 -0.8091 -0.0064
  146SAPE   H5R16078   1.916   0.695   9.696 -2.0319 -0.6420 -1.1055
  146SAPE   C2616079   1.937   0.899   9.661  0.3054 -0.0186 -0.2452
  146SAPE   H6R16080   2.005   0.876   9.577 -1.3235 -0.3693 -1.5033
  146SAPE   C2716081   1.906   1.044   9.691 -0.6912  0.5088  0.2132
  146SAPE   H7R16082   2.001   1.100   9.706  0.1665 -0.1541 -2.3985
  146SAPE   H7S16083   1.846   1.059   9.783  2.1220 -0.1874  2.2148
  146SAPE   C2816084   1.823   1.099   9.576 -0.4340 -0.2584  0.1840
  146SAPE   H8R16085   1.717   1.102   9.604 -0.6683  0.6909 -0.7267
  146SAPE   C2916086   1.860   1.112   9.451 -0.7050  0.5570 -0.1472
  146SAPE   H9R16087   1.785   1.148   9.379 -1.8455  0.5091  1.0138
  146SAPE  C21016088   2.001   1.083   9.396  0.5063 -0.2562  0.1309
  146SAPE  H10R16089   2.079   1.065   9.472 -0.9077  1.0154  1.9389
  146SAPE  H10S16090   2.043   1.168   9.338  0.8901 -1.0261 -0.7444
  146SAPE  C21116091   1.995   0.965   9.309 -1.0867  0.8366  0.2693
  146SAPE  H11R16092   1.989   0.868   9.361 -0.0110  0.3142 -0.5513
  146SAPE  C21216093   2.005   0.954   9.176  0.0611 -0.0912  0.3904
  146SAPE  H12R16094   1.985   0.854   9.135  0.6140 -0.5401  1.1967
  146SAPE  C21316095   2.035   1.061   9.075  0.0982 -0.6455 -0.3243
  146SAPE  H13R16096   2.142   1.088   9.092 -0.2787  0.8635 -0.3081
  146SAPE  H13S16097   1.969   1.147   9.097 -1.5806 -2.0321  0.1338
  146SAPE  C21416098   2.010   1.011   8.931  0.4324  0.3484 -0.0486
  146SAPE  H14R16099   1.916   0.954   8.924  1.6453 -1.7873  0.5342
  146SAPE  C21516100   2.098   1.006   8.825  0.7581 -0.4473 -0.4136
  146SAPE  H15R16101   2.055   0.981   8.727 -1.7440 -0.5102  0.6648
  146SAPE  C21616102   2.242   1.044   8.829  0.0586 -0.1261  0.0742
  146SAPE  H16R16103   2.301   0.965   8.879  0.7574 -0.6549 -1.5900
  146SAPE  H16S16104   2.251   1.132   8.897 -0.2289  2.1386 -2.7378
  146SAPE  C21716105   2.306   1.076   8.695  0.0917 -0.4119 -0.3958
  146SAPE  H17R16106   2.293   1.185   8.678  0.3371  0.0107  2.0620
  146SAPE  H17S16107   2.241   1.024   8.621  1.9056 -2.5010 -0.5528
  146SAPE  C21816108   2.455   1.036   8.698  0.0021 -0.4190  0.4828
  146SAPE  H18R16109   2.470   0.934   8.656 -0.5487  0.0912 -0.9702
  146SAPE  H18S16110   2.487   1.051   8.803  0.4592  0.8322  0.1741
  146SAPE  C21916111   2.536   1.131   8.611 -0.3189 -1.0003 -0.9604
  146SAPE  H19R16112   2.553   1.224   8.669 -0.2731 -2.7678  1.9804
  146SAPE  H19S16113   2.477   1.168   8.524 -2.8858 -0.0814  1.1094
  146SAPE  C22016114   2.662   1.051   8.573 -0.1862 -0.4390 -0.5921
  146SAPE  H20R16115   2.721   1.102   8.494 -0.8038  0.2696 -0.5980
  146SAPE  H20S16116   2.628   0.956   8.527 -0.5956 -1.1067  1.0429
  146SAPE  H20T16117   2.739   1.041   8.653  0.4681  3.0386 -0.6908
  146SAPE   C3316118   2.428   0.742  10.015 -0.7832 -0.7892  0.3916
  146SAPE   H3X16119   2.490   0.772   9.928  0.6226 -0.0323  1.6364
  146SAPE   H3Y16120   2.329   0.791  10.004  0.7058  1.9272 -1.3058
  146SAPE   C3416121   2.420   0.589  10.023  0.4302 -0.5203  0.8011
  146SAPE   H4X16122   2.325   0.560  10.074 -0.3373  2.7626  1.3179
  146SAPE   H4Y16123   2.514   0.549  10.066  0.7108 -0.7072  0.0324
  146SAPE   C3516124   2.418   0.509   9.888 -0.1207  0.5569  0.3262
  146SAPE   H5X16125   2.417   0.398   9.900 -1.7253  0.4408 -0.7340
  146SAPE   H5Y16126   2.504   0.543   9.827  0.8093 -0.4276  1.0717
  146SAPE   C3616127   2.296   0.547   9.797  0.4466  1.0385 -0.4633
  146SAPE   H6X16128   2.291   0.657   9.781  1.1099  0.8649 -2.0500
  146SAPE   H6Y16129   2.204   0.521   9.853  2.3448  1.5668  3.0580
  146SAPE   C3716130   2.312   0.494   9.655  0.6409 -0.8854 -0.0436
  146SAPE   H7X16131   2.329   0.385   9.666  0.4444 -1.0822 -1.5379
  146SAPE   H7Y16132   2.392   0.545   9.596  0.6894 -1.5760 -0.5762
  146SAPE   C3816133   2.189   0.506   9.563  1.0793  0.6885  0.5549
  146SAPE   H8X16134   2.170   0.616   9.563 -0.4359  0.4380 -0.0383
  146SAPE   H8Y16135   2.101   0.463   9.615 -1.0171  1.8975 -1.8832
  146SAPE   C3916136   2.204   0.466   9.414 -0.9035  0.2934 -0.6964
  146SAPE   H9X16137   2.233   0.359   9.408 -0.5024  0.1667  2.5721
  146SAPE   H9Y16138   2.288   0.527   9.373 -0.3780  2.7886  3.7417
  146SAPE  C31016139   2.085   0.485   9.327  0.5442  0.6948 -0.4540
  146SAPE  H10X16140   2.061   0.593   9.328 -2.2178  0.1252  2.0192
  146SAPE  H10Y16141   1.998   0.438   9.378  3.1343 -2.9423  0.7987
  146SAPE  C31116142   2.109   0.459   9.181 -0.4756 -0.0428 -0.6636
  146SAPE  H11X16143   2.007   0.462   9.136 -0.2238 -1.4440 -1.3652
  146SAPE  H11Y16144   2.147   0.358   9.156 -0.5581  0.1251 -1.4689
  146SAPE  C31216145   2.187   0.571   9.115  0.6516 -0.6425  0.2226
  146SAPE  H12X16146   2.285   0.571   9.167 -0.3325 -1.2297  2.1092
  146SAPE  H12Y16147   2.133   0.667   9.131 -0.7735 -1.6163  1.3882
  146SAPE  C31316148   2.197   0.557   8.962 -0.4098 -0.3523 -0.0925
  146SAPE  H13X16149   2.267   0.636   8.930 -0.8112  0.0733  0.0759
  146SAPE  H13Y16150   2.095   0.567   8.919  0.0532  0.6811 -0.9645
  146SAPE  C31416151   2.257   0.421   8.919  0.5817  0.0816  0.0116
  146SAPE  H14X16152   2.196   0.337   8.959  0.6744  1.0839  2.3564
  146SAPE  H14Y16153   2.357   0.399   8.961 -0.2150 -0.5165  1.6285
  146SAPE  C31516154   2.262   0.404   8.767  0.1277 -0.3854 -0.3941
  146SAPE  H15X16155   2.309   0.488   8.711 -0.3126  1.5586  2.1097
  146SAPE  H15Y16156   2.165   0.386   8.714 -1.0230  0.2540  1.4408
  146SAPE  C31616157   2.365   0.287   8.737 -0.2875 -0.1314  0.7072
  146SAPE  H16X16158   2.317   0.191   8.765 -2.1248  0.6782  0.3682
  146SAPE  H16Y16159   2.461   0.310   8.790  0.2877 -0.0123 -0.3786
  146SAPE  C31716160   2.411   0.286   8.587  0.3952  0.3179  0.3311
  146SAPE  H17X16161   2.491   0.210   8.573 -0.6250 -0.6000 -0.6153
  146SAPE  H17Y16162   2.453   0.381   8.548  1.6513  0.9063  3.0264
  146SAPE  C31816163   2.293   0.256   8.496 -0.1528 -0.8259 -1.3188
  146SAPE  H18X16164   2.234   0.346   8.471 -1.7166 -1.1162  1.0861
  146SAPE  H18Y16165   2.224   0.181   8.541  0.8575 -0.4401  0.9509
  146SAPE  H18Z16166   2.324   0.225   8.394 -0.5069 -0.4661 -1.5361
  147SAPE     N16167   4.503   3.792  10.703 -0.1187  0.0103  0.1452
  147SAPE   HN116168   4.605   3.812  10.714 -0.1488 -0.5650  1.6368
  147SAPE   HN216169   4.481   3.757  10.607 -1.2655  1.2676 -0.0646
  147SAPE   HN316170   4.451   3.878  10.730 -0.0134 -0.6274  2.4784
  147SAPE   C1216171   4.459   3.700  10.810  0.3219 -0.0165 -0.2427
  147SAPE  H12A16172   4.349   3.705  10.817  0.4133 -0.2067  1.5081
  147SAPE  H12B16173   4.505   3.725  10.908 -0.7231 -0.2553  0.3090
  147SAPE   C1116174   4.490   3.548  10.784 -0.3150 -0.4518  0.8837
  147SAPE  H11A16175   4.598   3.553  10.761 -0.6238 -0.6983 -0.7012
  147SAPE  H11B16176   4.429   3.504  10.702  0.0257 -1.8476  1.3695
  147SAPE     P16177   4.500   3.329  10.922 -0.2931 -0.0434 -0.2727
  147SAPE   O1316178   4.642   3.315  10.884 -0.3573  0.0252  0.1312
  147SAPE   O1416179   4.455   3.266  11.045  0.3273  0.0318 -0.1563
  147SAPE   O1216180   4.457   3.473  10.907 -0.1414  0.1342 -0.7018
  147SAPE   O1116181   4.426   3.273  10.793  0.5742 -0.1998 -0.2772
  147SAPE    C116182   4.393   3.136  10.784 -0.5328 -0.9853  0.6089
  147SAPE    HA16183   4.476   3.075  10.826 -0.8849 -2.3057 -0.6065
  147SAPE    HB16184   4.304   3.119  10.848 -0.9543  0.5879  0.4735
  147SAPE    C216185   4.368   3.097  10.635  0.0536 -0.3883  0.3901
  147SAPE    HS16186   4.456   3.048  10.588  1.3131  0.9624  1.3048
  147SAPE   O2116187   4.321   3.202  10.557 -0.2954  0.1286 -0.7461
  147SAPE   C2116188   4.407   3.269  10.490 -0.0540  0.0389 -0.1962
  147SAPE   O2216189   4.528   3.250  10.485 -0.0467 -0.0810  0.0205
  147SAPE   C2216190   4.334   3.381  10.419  0.5396 -0.1236 -0.2354
  147SAPE   H2R16191   4.227   3.360  10.438  0.9510 -0.1357  2.1508
  147SAPE   H2S16192   4.335   3.473  10.482 -0.4245  0.4450 -1.0148
  147SAPE    C316193   4.264   2.979  10.630 -0.1126  0.6017  0.5945
  147SAPE    HX16194   4.167   3.011  10.673  0.2416  0.5126  1.4779
  147SAPE    HY16195   4.295   2.900  10.702 -0.1462  0.9475  0.9903
  147SAPE   O3116196   4.233   2.936  10.493  0.4582 -0.3757  0.3025
  147SAPE   C3116197   4.266   2.816  10.448 -0.2920  0.4021  0.8007
  147SAPE   O3216198   4.318   2.733  10.515 -0.2640 -0.3934  0.0406
  147SAPE   C3216199   4.235   2.802  10.302  0.2995 -0.8247 -0.1532
  147SAPE   H2X16200   4.318   2.855  10.250  1.2333 -1.0905  1.0497
  147SAPE   H2Y16201   4.135   2.848  10.285 -0.8869 -3.4137 -0.5492
  147SAPE   C2316202   4.370   3.417  10.278  0.7207  0.1183  0.2592
  147SAPE   H3R16203   4.338   3.333  10.213 -1.8712  0.3073  1.2340
  147SAPE   H3S16204   4.480   3.431  10.280  1.0874 -2.4858 -0.6212
  147SAPE   C2416205   4.318   3.560  10.229  0.3470  0.1545 -0.5948
  147SAPE   H4R16206   4.380   3.603  10.148  1.9594 -0.8650  0.0735
  147SAPE   H4S16207   4.326   3.625  10.319 -0.2075  2.0785 -1.9266
  147SAPE   C2516208   4.174   3.542  10.188  0.4182  0.2092 -0.4754
  147SAPE   H5R16209   4.109   3.509  10.270 -0.6767 -0.8081 -1.7222
  147SAPE   C2616210   4.113   3.556  10.067 -0.0545  0.6218 -0.2964
  147SAPE   H6R16211   4.007   3.525  10.065 -0.6314  2.4180  0.5766
  147SAPE   C2716212   4.161   3.602   9.935 -0.6402 -0.6267 -0.3128
  147SAPE   H7R16213   4.256   3.659   9.940 -0.7321 -0.0492 -4.0376
  147SAPE   H7S16214   4.100   3.683   9.892 -0.6896 -0.0441  0.8411
  147SAPE   C2816215   4.172   3.492   9.831  0.4923 -0.3077  0.1291
  147SAPE   H8R16216   4.173   3.394   9.882 -2.6580 -0.2366  0.4023
  147SAPE   C2916217   4.148   3.501   9.698  0.3188  0.2827  0.0153
  147SAPE   H9R16218   4.157   3.410   9.637 -1.3017  0.2216 -0.1357
  147SAPE  C21016219   4.116   3.634   9.629 -0.1093  0.0106 -0.4330
  147SAPE  H10R16220   4.151   3.724   9.685 -1.2465  0.6354 -0.7197
  147SAPE  H10S16221   4.008   3.656   9.627  0.0034  0.7687  0.8568
  147SAPE  C21116222   4.162   3.637   9.486 -0.0263 -0.0440 -0.0344
  147SAPE  H11R16223   4.263   3.675   9.464  1.0597 -1.6521  2.0499
  147SAPE  C21216224   4.080   3.591   9.389  0.0168  0.9871  0.6199
  147SAPE  H12R16225   4.118   3.595   9.286  1.1439  2.2720  1.0789
  147SAPE  C21316226   3.942   3.531   9.393  0.0900  0.4229  0.0640
  147SAPE  H13R16227   3.871   3.562   9.472 -1.2385  0.0593 -0.9484
  147SAPE  H13S16228   3.946   3.421   9.409 -0.4934 -0.0671 -2.7405
  147SAPE  C21416229   3.871   3.548   9.260  0.3619  0.2026  0.2060
  147SAPE  H14R16230   3.847   3.655   9.251  1.4790  0.8124  3.5149
  147SAPE  C21516231   3.865   3.469   9.152  0.4440 -0.5608 -0.1271
  147SAPE  H15R16232   3.802   3.500   9.068 -0.0825 -1.8862 -0.2335
  147SAPE  C21616233   3.924   3.329   9.140  0.8128  0.3480 -0.1332
  147SAPE  H16R16234   3.861   3.245   9.103  4.6553 -1.5627 -2.6889
  147SAPE  H16S16235   3.926   3.286   9.242  3.6822 -4.5047 -2.0148
  147SAPE  C21716236   4.067   3.335   9.074  0.5605  0.3636 -0.4126
  147SAPE  H17R16237   4.091   3.226   9.074 -1.5881 -0.1405  0.6789
  147SAPE  H17S16238   4.139   3.382   9.145 -0.6994 -0.1289  1.2303
  147SAPE  C21816239   4.071   3.389   8.939 -0.2328 -0.4524 -0.3257
  147SAPE  H18R16240   4.099   3.496   8.951 -1.1766 -0.4057  1.5198
  147SAPE  H18S16241   3.969   3.370   8.901  0.7086 -1.7872 -2.3126
  147SAPE  C21916242   4.164   3.316   8.847 -1.4060 -0.0481 -0.7063
  147SAPE  H19R16243   4.132   3.211   8.828 -1.0576 -0.5661  1.4413
  147SAPE  H19S16244   4.264   3.317   8.895 -1.9328  1.7950  0.4126
  147SAPE  C22016245   4.185   3.383   8.708  0.4231 -0.0300 -0.7529
  147SAPE  H20R16246   4.100   3.370   8.638  0.1769 -2.0628 -0.1093
  147SAPE  H20S16247   4.271   3.333   8.657  1.8004  0.7054  0.8001
  147SAPE  H20T16248   4.210   3.490   8.717 -3.0662  0.7458  0.5497
  147SAPE   C3316249   4.196   2.661  10.256  0.0034  0.6180  0.3711
  147SAPE   H3X16250   4.106   2.646  10.319 -0.1477 -0.5699 -0.1044
  147SAPE   H3Y16251   4.275   2.591  10.291  1.4664  2.0123 -0.0920
  147SAPE   C3416252   4.159   2.651  10.108  0.7637  0.5375  0.3221
  147SAPE   H4X16253   4.093   2.735  10.077  0.4270 -0.1723 -0.9343
  147SAPE   H4Y16254   4.106   2.554  10.095  0.5480  0.5321  1.2487
  147SAPE   C3516255   4.278   2.661  10.014 -0.5106 -0.0343 -0.1093
  147SAPE   H5X16256   4.329   2.759  10.031 -1.1273  0.7316 -2.4611
  147SAPE   H5Y16257   4.256   2.671   9.906 -1.4951  0.4597  0.1376
  147SAPE   C3616258   4.376   2.542  10.032 -0.1776 -0.5165 -0.5018
  147SAPE   H6X16259   4.332   2.447   9.993 -1.4937 -0.1356  0.0150
  147SAPE   H6Y16260   4.395   2.532  10.141  0.6584 -1.4816 -0.7272
  147SAPE   C3716261   4.505   2.576   9.957  0.5605  0.3025 -0.1360
  147SAPE   H7X16262   4.578   2.644  10.006  0.3918  0.6961 -0.4362
  147SAPE   H7Y16263   4.477   2.618   9.858  0.8690 -2.4072 -1.4228
  147SAPE   C3816264   4.577   2.449   9.912 -0.0870 -0.6948 -0.2606
  147SAPE   H8X16265   4.530   2.399   9.825 -0.9239  1.9935 -1.3873
  147SAPE   H8Y16266   4.597   2.383   9.999 -0.3605 -0.6219 -0.1426
  147SAPE   C3916267   4.724   2.484   9.860 -1.0142  0.0095 -0.2733
  147SAPE   H9X16268   4.775   2.389   9.834 -1.0584 -0.2935  0.7128
  147SAPE   H9Y16269   4.784   2.536   9.938 -0.9385  0.7571 -0.8270
  147SAPE  C31016270   4.724   2.566   9.736 -0.4427  0.2888  0.1716
  147SAPE  H10X16271   4.828   2.562   9.696 -0.1879  3.4046  0.3883
  147SAPE  H10Y16272   4.712   2.669   9.776  0.1202  0.9788 -1.4077
  147SAPE  C31116273   4.628   2.517   9.617 -0.0685  0.4058  0.1388
  147SAPE  H11X16274   4.519   2.529   9.635 -0.1678 -1.8071  1.1800
  147SAPE  H11Y16275   4.640   2.407   9.604  0.3251  0.3760  0.7088
  147SAPE  C31216276   4.657   2.590   9.484 -0.8314  0.4045 -0.6714
  147SAPE  H12X16277   4.580   2.579   9.405  0.2026  1.3121 -1.8019
  147SAPE  H12Y16278   4.743   2.544   9.432 -0.6548 -0.9132  0.7359
  147SAPE  C31316279   4.692   2.733   9.511  0.4947  0.4184  0.0472
  147SAPE  H13X16280   4.796   2.746   9.550  1.7702  0.6163 -3.3117
  147SAPE  H13Y16281   4.620   2.783   9.580  1.9323  2.6696  0.0040
  147SAPE  C31416282   4.689   2.816   9.386  0.0006 -0.2015 -0.1471
  147SAPE  H14X16283   4.741   2.766   9.301 -1.0341  0.9378 -1.4810
  147SAPE  H14Y16284   4.760   2.901   9.394  0.2006 -0.3099 -0.7054
  147SAPE  C31516285   4.551   2.872   9.343 -1.0098  0.2960  0.2108
  147SAPE  H15X16286   4.508   2.933   9.425 -0.9304  1.0400 -0.2867
  147SAPE  H15Y16287   4.474   2.796   9.322  0.5256 -1.4236  0.6466
  147SAPE  C31616288   4.577   2.974   9.231 -0.1348  0.3441  0.5530
  147SAPE  H16X16289   4.611   2.927   9.136  0.1471 -0.1997  0.9201
  147SAPE  H16Y16290   4.662   3.038   9.263 -0.0077  0.9053 -0.8942
  147SAPE  C31716291   4.458   3.066   9.213  0.1295  0.2081 -0.3521
  147SAPE  H17X16292   4.493   3.142   9.140 -1.2563  0.0391 -1.2167
  147SAPE  H17Y16293   4.432   3.108   9.312 -0.2640 -0.7217 -0.0504
  147SAPE  C31816294   4.333   2.991   9.166  0.1918  0.7902  0.3814
  147SAPE  H18X16295   4.260   3.072   9.145 -0.5492 -0.2243 -1.0195
  147SAPE  H18Y16296   4.291   2.919   9.240  2.5574 -1.6252 -0.5519
  147SAPE  H18Z16297   4.355   2.936   9.072 -1.8430  0.9904 -0.2333
  148SAPE     N16298   4.379   6.097  10.602 -0.6436  0.3771 -0.0451
  148SAPE   HN116299   4.475   6.113  10.639 -1.0307 -1.9147  1.9835
  148SAPE   HN216300   4.324   6.154  10.669 -3.1064 -2.6880  0.6464
  148SAPE   HN316301   4.371   5.995  10.617  1.1388 -0.0579 -1.7642
  148SAPE   C1216302   4.373   6.139  10.460  0.1156 -0.2256 -0.4296
  148SAPE  H12A16303   4.343   6.245  10.448  2.8237  0.7322  0.8780
  148SAPE  H12B16304   4.290   6.076  10.420 -1.6830  0.7082  1.7615
  148SAPE   C1116305   4.505   6.107  10.385 -0.3763  1.0703 -0.0600
  148SAPE  H11A16306   4.596   6.159  10.421  1.8829 -1.7034 -1.5838
  148SAPE  H11B16307   4.504   6.142  10.280 -1.2629  2.1872  0.3176
  148SAPE     P16308   4.651   5.911  10.466  0.1673 -0.4222  0.0177
  148SAPE   O1316309   4.769   5.940  10.390  0.3986  0.1578  0.4661
  148SAPE   O1416310   4.654   5.977  10.597  0.2872 -0.1406 -0.2338
  148SAPE   O1216311   4.529   5.968  10.387 -0.3914  0.0947  0.1081
  148SAPE   O1116312   4.636   5.757  10.486  0.7406  0.5047  0.1007
  148SAPE    C116313   4.526   5.678  10.444  0.5916  0.0190  0.0123
  148SAPE    HA16314   4.459   5.651  10.529  0.4860  0.9337  0.2279
  148SAPE    HB16315   4.463   5.720  10.362 -1.4712 -1.2138  0.9268
  148SAPE    C216316   4.583   5.546  10.376  0.3460 -0.3586 -0.2997
  148SAPE    HS16317   4.646   5.512  10.461 -1.8450 -1.1209  1.0497
  148SAPE   O2116318   4.654   5.589  10.261 -0.2144 -0.4131  0.3554
  148SAPE   C2116319   4.784   5.563  10.267 -0.1958  0.6057 -0.2499
  148SAPE   O2216320   4.850   5.525  10.362 -0.2970  0.6799 -0.2075
  148SAPE   C2216321   4.852   5.590  10.136  0.3784 -0.2197  0.2482
  148SAPE   H2R16322   4.848   5.701  10.137 -3.0033 -0.2608 -1.0525
  148SAPE   H2S16323   4.960   5.575  10.159  0.9056 -0.3390 -2.1686
  148SAPE    C316324   4.482   5.437  10.334 -0.0695 -0.6289  0.1225
  148SAPE    HX16325   4.425   5.413  10.426 -0.2452  0.0177  0.1889
  148SAPE    HY16326   4.535   5.347  10.296  0.3912 -0.7351  0.9969
  148SAPE   O3116327   4.388   5.486  10.240  0.3750  0.0916 -0.1022
  148SAPE   C3116328   4.324   5.397  10.168  0.0344 -0.7413  0.1915
  148SAPE   O3216329   4.313   5.280  10.201  0.4701  0.1686 -0.0326
  148SAPE   C3216330   4.284   5.459  10.032  0.3851  0.8469 -0.4481
  148SAPE   H2X16331   4.358   5.537  10.003  1.1782  1.2969  2.5861
  148SAPE   H2Y16332   4.183   5.503  10.046  1.2621  2.2691  1.6619
  148SAPE   C2316333   4.809   5.503  10.018  0.7976  0.0259 -0.4764
  148SAPE   H3R16334   4.791   5.405  10.067 -0.5760  1.4763  1.9797
  148SAPE   H3S16335   4.888   5.491   9.940  0.1583  0.8443 -1.2647
  148SAPE   C2416336   4.672   5.541   9.952  0.5017  0.0802 -0.7663
  148SAPE   H4R16337   4.598   5.572  10.029 -1.5245 -3.2140 -1.3026
  148SAPE   H4S16338   4.634   5.445   9.911  1.1679 -0.6753  0.3555
  148SAPE   C2516339   4.679   5.661   9.856 -0.7357 -0.1800  0.0729
  148SAPE   H5R16340   4.709   5.754   9.908 -1.7373 -0.7168  1.6558
  148SAPE   C2616341   4.672   5.671   9.723 -0.4333  0.4588 -0.3640
  148SAPE   H6R16342   4.653   5.764   9.667  0.7224  0.6914 -0.3954
  148SAPE   C2716343   4.659   5.541   9.643 -0.2813 -0.1111 -0.7177
  148SAPE   H7R16344   4.573   5.544   9.572 -0.2058 -0.1371 -0.8100
  148SAPE   H7S16345   4.647   5.450   9.706 -1.4549  0.3609 -0.2568
  148SAPE   C2816346   4.784   5.513   9.568  0.2218 -1.0421  0.1709
  148SAPE   H8R16347   4.861   5.455   9.622  1.3332 -1.0518 -1.3988
  148SAPE   C2916348   4.807   5.539   9.440  0.1745  0.2181 -0.3568
  148SAPE   H9R16349   4.902   5.510   9.394  0.1321  2.0956 -1.7167
  148SAPE  C21016350   4.711   5.607   9.344 -0.1447 -0.5104 -0.2702
  148SAPE  H10R16351   4.766   5.691   9.297  1.2436 -1.0448  0.3694
  148SAPE  H10S16352   4.627   5.657   9.396  0.1718 -1.3265  1.0583
  148SAPE  C21116353   4.639   5.522   9.246  0.3363  0.6956 -0.0003
  148SAPE  H11R16354   4.572   5.452   9.297  0.8179  1.5355  1.8302
  148SAPE  C21216355   4.657   5.519   9.115 -0.1973 -0.0988  0.8071
  148SAPE  H12R16356   4.609   5.438   9.057 -0.9298  0.7369  0.2288
  148SAPE  C21316357   4.748   5.608   9.033  0.3504 -0.9652 -0.2339
  148SAPE  H13R16358   4.834   5.646   9.093 -1.7429  2.4064  0.7468
  148SAPE  H13S16359   4.694   5.701   9.005 -0.3174 -1.0205  0.8475
  148SAPE  C21416360   4.799   5.535   8.915 -0.8661 -0.3955 -0.3524
  148SAPE  H14R16361   4.734   5.454   8.879 -1.5897  0.3555 -0.7444
  148SAPE  C21516362   4.910   5.560   8.845 -0.1917 -0.8680 -0.7633
  148SAPE  H15R16363   4.918   5.500   8.753 -1.2123 -0.4582 -1.1166
  148SAPE  C21616364   5.020   5.659   8.885  0.1894 -0.3094 -0.8851
  148SAPE  H16R16365   5.008   5.683   8.993 -2.1886  0.0553 -1.2036
  148SAPE  H16S16366   5.004   5.764   8.850  0.8874  0.4737  1.0412
  148SAPE  C21716367   5.169   5.604   8.870  0.9741 -0.9021  1.0436
  148SAPE  H17R16368   5.177   5.509   8.926 -0.7021 -0.3236  2.2897
  148SAPE  H17S16369   5.245   5.678   8.904  1.0300 -0.4765  0.0155
  148SAPE  C21816370   5.215   5.572   8.728 -0.0843  0.2385  0.4650
  148SAPE  H18R16371   5.222   5.657   8.657 -1.7092  1.4034  1.6804
  148SAPE  H18S16372   5.147   5.496   8.682  0.8241  0.0328 -0.5558
  148SAPE  C21916373   5.350   5.499   8.731  0.2422  0.1226 -0.7761
  148SAPE  H19R16374   5.338   5.395   8.768  0.5732 -0.3047 -1.8529
  148SAPE  H19S16375   5.418   5.548   8.805 -0.0040 -3.7928  2.2207
  148SAPE  C22016376   5.410   5.492   8.595 -0.1786 -0.6044  0.0839
  148SAPE  H20R16377   5.332   5.461   8.521 -1.7714 -0.0237  1.4890
  148SAPE  H20S16378   5.498   5.426   8.584  0.8968  0.8039  0.0977
  148SAPE  H20T16379   5.444   5.594   8.568 -1.1895  0.1730  1.7215
  148SAPE   C3316380   4.265   5.355   9.918 -0.0193  0.3266  0.0922
  148SAPE   H3X16381   4.168   5.301   9.931 -0.7964  1.2727 -1.6747
  148SAPE   H3Y16382   4.348   5.282   9.907 -1.8564 -2.5672  3.8838
  148SAPE   C3416383   4.244   5.429   9.782  0.4822  0.5697  0.3798
  148SAPE   H4X16384   4.337   5.485   9.756 -0.1024  0.8415 -1.1932
  148SAPE   H4Y16385   4.156   5.497   9.779 -0.0515 -0.0678  1.2527
  148SAPE   C3516386   4.223   5.332   9.658  0.3281 -0.2894 -0.0810
  148SAPE   H5X16387   4.127   5.278   9.664  0.0492  0.1193 -0.8769
  148SAPE   H5Y16388   4.308   5.260   9.652 -0.3296 -0.9147 -2.3299
  148SAPE   C3616389   4.223   5.403   9.524 -0.1575  0.4795 -0.0213
  148SAPE   H6X16390   4.315   5.463   9.506  0.6471 -1.3908 -2.4238
  148SAPE   H6Y16391   4.143   5.477   9.502 -1.9088 -0.8546  1.6601
  148SAPE   C3716392   4.193   5.310   9.413  0.0716  0.1728 -0.5560
  148SAPE   H7X16393   4.092   5.264   9.420 -0.3548  0.6798 -2.9605
  148SAPE   H7Y16394   4.260   5.221   9.406 -0.1289 -0.0062 -0.1764
  148SAPE   C3816395   4.207   5.380   9.274 -0.8412  0.0870  0.0900
  148SAPE   H8X16396   4.313   5.413   9.270 -0.4705 -1.1425 -0.6158
  148SAPE   H8Y16397   4.143   5.470   9.266  1.0635  1.4100 -0.6540
  148SAPE   C3916398   4.185   5.289   9.147 -0.3560 -0.1520 -0.2558
  148SAPE   H9X16399   4.087   5.236   9.153  0.5612 -1.7217  1.5382
  148SAPE   H9Y16400   4.273   5.221   9.150 -0.1362  0.1773  0.8591
  148SAPE  C31016401   4.187   5.371   9.021 -0.4074  0.6870  0.0675
  148SAPE  H10X16402   4.272   5.440   9.005  0.2544 -0.2939 -0.6633
  148SAPE  H10Y16403   4.095   5.434   9.029 -1.1525 -0.4082  0.2661
  148SAPE  C31116404   4.165   5.280   8.897 -0.1073 -1.0439 -0.1771
  148SAPE  H11X16405   4.080   5.211   8.915 -0.5888 -1.2046 -2.9338
  148SAPE  H11Y16406   4.253   5.212   8.886  0.9441  0.3276 -0.3859
  148SAPE  C31216407   4.143   5.364   8.769  0.2805 -0.7342 -1.0122
  148SAPE  H12X16408   4.220   5.443   8.754  1.8525 -1.9203  0.5059
  148SAPE  H12Y16409   4.046   5.416   8.764  0.3485 -0.6501 -1.5412
  148SAPE  C31316410   4.150   5.270   8.650  0.2722  0.5125 -0.0200
  148SAPE  H13X16411   4.093   5.312   8.565 -0.4557 -0.0244  0.1941
  148SAPE  H13Y16412   4.102   5.172   8.673  2.2732 -0.8488 -1.4620
  148SAPE  C31416413   4.280   5.225   8.605 -0.2118 -0.4124  0.1833
  148SAPE  H14X16414   4.335   5.189   8.695  2.3936 -0.3617 -1.3371
  148SAPE  H14Y16415   4.336   5.314   8.569 -1.8612  0.4034 -0.4072
  148SAPE  C31516416   4.278   5.105   8.507 -0.0237 -0.3533 -0.1579
  148SAPE  H15X16417   4.196   5.125   8.434  0.7008  1.8835 -0.3919
  148SAPE  H15Y16418   4.246   5.019   8.570  1.8725 -1.4223 -0.6221
  148SAPE  C31616419   4.404   5.078   8.430 -0.4633  0.1050 -0.0977
  148SAPE  H16X16420   4.439   5.178   8.397  1.5398 -1.0927 -1.7378
  148SAPE  H16Y16421   4.393   5.038   8.327  0.5274 -1.3518  0.3452
  148SAPE  C31716422   4.515   5.014   8.519  0.2043 -0.4830  0.9352
  148SAPE  H17X16423   4.497   4.907   8.540  0.8655 -0.6371  0.7522
  148SAPE  H17Y16424   4.516   5.070   8.615 -1.0692 -3.1690  2.5421
  148SAPE  C31816425   4.648   5.026   8.448 -1.3444 -0.6474 -0.5467
  148SAPE  H18X16426   4.658   4.968   8.354  2.4473 -0.2161 -0.4902
  148SAPE  H18Y16427   4.725   4.982   8.516 -2.6927  1.3504  2.3514
  148SAPE  H18Z16428   4.674   5.130   8.422 -2.2245 -1.2130 -3.8504
  149SAPE     N16429   0.408   0.858  11.147  0.0282 -0.3339 -0.1611
  149SAPE   HN116430   0.445   0.845  11.051  1.7046 -0.8466  0.5419
  149SAPE   HN216431   0.344   0.776  11.155 -1.2768  0.8067  1.6200
  149SAPE   HN316432   0.352   0.944  11.161  1.7436  0.8447 -0.4837
  149SAPE   C1216433   0.519   0.855  11.254 -0.3567 -0.2399  0.2382
  149SAPE  H12A16434   0.480   0.884  11.354 -0.2411  2.9133 -0.5704
  149SAPE  H12B16435   0.592   0.934  11.226  1.6572 -1.8860  0.7297
  149SAPE   C1116436   0.580   0.721  11.266 -0.1851  0.1356 -0.0387
  149SAPE  H11A16437   0.507   0.641  11.296  1.9819 -1.3613  1.3948
  149SAPE  H11B16438   0.658   0.707  11.344  2.1689 -0.4380 -2.4344
  149SAPE     P16439   0.748   0.582  11.121 -0.1769  0.1934  0.1389
  149SAPE   O1316440   0.882   0.649  11.133  0.3001 -0.0465  0.1360
  149SAPE   O1416441   0.722   0.459  11.196 -0.1413  0.4091 -0.2836
  149SAPE   O1216442   0.635   0.686  11.141  0.5071 -0.1906 -0.6826
  149SAPE   O1116443   0.728   0.539  10.967 -0.5616 -0.1663 -0.0758
  149SAPE    C116444   0.609   0.478  10.919 -0.0912  0.1821  0.0169
  149SAPE    HA16445   0.531   0.466  10.996 -0.5334  1.6807 -0.1905
  149SAPE    HB16446   0.573   0.550  10.843 -1.4947 -0.9279 -0.3967
  149SAPE    C216447   0.646   0.341  10.836 -0.4000 -0.5585  0.2133
  149SAPE    HS16448   0.686   0.281  10.921 -3.6093  0.0872  2.2654
  149SAPE   O2116449   0.744   0.381  10.740  0.4147 -0.3130  0.2070
  149SAPE   C2116450   0.808   0.286  10.681  0.6607 -0.9803 -0.1226
  149SAPE   O2216451   0.783   0.167  10.701 -0.2055  0.2411  0.1951
  149SAPE   C2216452   0.890   0.347  10.574  0.0164  0.5037 -0.4997
  149SAPE   H2R16453   0.903   0.455  10.596 -1.5663  0.5705  0.1668
  149SAPE   H2S16454   0.991   0.305  10.596 -0.4412 -0.2470  0.2031
  149SAPE    C316455   0.518   0.283  10.769 -0.2608  0.1536 -0.3362
  149SAPE    HX16456   0.432   0.263  10.836  0.5518 -0.4853  0.5214
  149SAPE    HY16457   0.547   0.182  10.733  1.7506  0.1598  1.2271
  149SAPE   O3116458   0.481   0.370  10.657  0.1803  0.0652  0.0473
  149SAPE   C3116459   0.367   0.327  10.605  0.2581 -0.7472  0.5802
  149SAPE   O3216460   0.303   0.224  10.636  0.5004 -1.1876  0.1052
  149SAPE   C3216461   0.324   0.405  10.479 -0.5269  0.2420 -0.5183
  149SAPE   H2X16462   0.406   0.398  10.405 -1.3337 -0.7526 -1.3237
  149SAPE   H2Y16463   0.306   0.512  10.503  1.8789  0.8953 -1.4679
  149SAPE   C2316464   0.843   0.321  10.429 -0.1988  0.1817 -0.1441
  149SAPE   H3R16465   0.860   0.212  10.414  0.7599  0.6210 -2.4381
  149SAPE   H3S16466   0.905   0.380  10.359 -0.4163  1.2266  0.5358
  149SAPE   C2416467   0.698   0.360  10.409  0.1542 -0.7035 -0.7616
  149SAPE   H4R16468   0.640   0.289  10.472  0.4107  0.0511  0.3402
  149SAPE   H4S16469   0.672   0.342  10.303  0.7951 -1.7378 -0.7486
  149SAPE   C2516470   0.665   0.503  10.452 -0.3879 -0.1787 -0.0551
  149SAPE   H5R16471   0.663   0.510  10.562 -1.8558 -0.6717 -0.0388
  149SAPE   C2616472   0.652   0.618  10.381 -0.6567 -0.1886  0.4453
  149SAPE   H6R16473   0.634   0.718  10.423 -1.3236  0.7995 -2.0530
  149SAPE   C2716474   0.666   0.616  10.231 -1.0354  0.2794 -0.7704
  149SAPE   H7R16475   0.560   0.630  10.202 -0.9451  2.1386 -0.2904
  149SAPE   H7S16476   0.708   0.518  10.200  2.2426  0.9434  1.2548
  149SAPE   C2816477   0.750   0.723  10.165 -0.8964  0.2819  0.1032
  149SAPE   H8R16478   0.806   0.794  10.227  0.6951  0.7102 -1.7904
  149SAPE   C2916479   0.745   0.756  10.034  0.0849  0.2202  0.0641
  149SAPE   H9R16480   0.806   0.838   9.994 -1.1848  0.1124 -2.1782
  149SAPE  C21016481   0.663   0.690   9.923 -0.0272  0.3776 -0.2426
  149SAPE  H10R16482   0.626   0.757   9.842  1.2547  1.4453  0.0369
  149SAPE  H10S16483   0.574   0.645   9.972  1.4908  0.2967  2.5720
  149SAPE  C21116484   0.734   0.567   9.869  0.0429  0.3983 -0.0842
  149SAPE  H11R16485   0.774   0.496   9.943 -1.9744 -1.2869 -0.5649
  149SAPE  C21216486   0.756   0.537   9.738  0.0550  0.1860  0.0728
  149SAPE  H12R16487   0.834   0.463   9.713 -2.1217 -2.0436 -0.3326
  149SAPE  C21316488   0.700   0.625   9.624  0.5363 -0.1725 -1.3925
  149SAPE  H13R16489   0.764   0.716   9.618 -0.0412  0.1927 -2.0037
  149SAPE  H13S16490   0.598   0.666   9.641  0.4512 -1.4903  1.6392
  149SAPE  C21416491   0.686   0.541   9.501 -0.5716  0.2731  0.2883
  149SAPE  H14R16492   0.630   0.447   9.509  2.1043 -1.2807  1.4261
  149SAPE  C21516493   0.719   0.581   9.377  0.4745 -0.2992 -0.7546
  149SAPE  H15R16494   0.719   0.501   9.301  0.6231  1.4028 -2.5830
  149SAPE  C21616495   0.766   0.717   9.337 -0.7018  1.0090 -0.6097
  149SAPE  H16R16496   0.844   0.702   9.259 -2.0978 -0.6788 -1.7040
  149SAPE  H16S16497   0.809   0.764   9.428 -1.1376 -0.5642  0.4123
  149SAPE  C21716498   0.659   0.804   9.271  0.5741  0.1153  0.1523
  149SAPE  H17R16499   0.687   0.912   9.266 -0.5918  0.3830 -1.0730
  149SAPE  H17S16500   0.572   0.802   9.338 -0.3118  1.1460 -0.9352
  149SAPE  C21816501   0.610   0.754   9.131 -0.0019 -0.4275  0.2109
  149SAPE  H18R16502   0.569   0.651   9.136 -0.7221 -0.2270 -1.2662
  149SAPE  H18S16503   0.710   0.756   9.082 -0.5004 -1.5513 -0.8659
  149SAPE  C21916504   0.504   0.833   9.048  0.1637  0.4299  0.0176
  149SAPE  H19R16505   0.407   0.853   9.098 -1.0034 -3.1080 -0.6525
  149SAPE  H19S16506   0.474   0.772   8.959 -2.1982  2.1269 -0.3926
  149SAPE  C22016507   0.553   0.966   8.984  0.0439  0.5789 -0.3497
  149SAPE  H20R16508   0.495   0.985   8.891 -1.1520  2.3206  0.7016
  149SAPE  H20S16509   0.659   0.952   8.954 -0.1373  0.6890 -1.0506
  149SAPE  H20T16510   0.536   1.054   9.051 -0.0463  0.5302 -0.3077
  149SAPE   C3316511   0.185   0.364  10.417 -0.2157  0.2446  0.0927
  149SAPE   H3X16512   0.105   0.382  10.493 -1.3643  0.7173 -1.2113
  149SAPE   H3Y16513   0.181   0.255  10.396  0.4843 -0.3046  2.6178
  149SAPE   C3416514   0.128   0.439  10.300  0.2087 -0.0314 -0.9272
  149SAPE   H4X16515   0.171   0.542  10.303  0.5584 -0.2132  0.4868
  149SAPE   H4Y16516   0.018   0.455  10.301 -0.1858 -2.2678 -2.9422
  149SAPE   C3516517   0.174   0.375  10.170  0.0641  1.3970 -0.3142
  149SAPE   H5X16518   0.114   0.286  10.143 -0.6400  1.5013  0.8915
  149SAPE   H5Y16519   0.279   0.343  10.185  0.9779  2.7071 -3.5196
  149SAPE   C3616520   0.175   0.468  10.047  0.3600  0.4238  0.3390
  149SAPE   H6X16521   0.212   0.571  10.070 -0.4387  0.6653  0.5515
  149SAPE   H6Y16522   0.065   0.476  10.037  0.2432 -1.9685 -0.5102
  149SAPE   C3716523   0.235   0.392   9.931  0.3276 -0.5737 -0.5102
  149SAPE   H7X16524   0.169   0.305   9.908 -3.9691  1.2181  4.1718
  149SAPE   H7Y16525   0.342   0.372   9.951  0.3096  0.9819  1.2623
  149SAPE   C3816526   0.209   0.468   9.795  0.1217  0.6748  0.5907
  149SAPE   H8X16527   0.274   0.558   9.792  1.3127 -0.2144 -1.7096
  149SAPE   H8Y16528   0.104   0.504   9.789 -0.2259 -0.3846  0.1461
  149SAPE   C3916529   0.249   0.387   9.671  0.4593  0.2236  1.0046
  149SAPE   H9X16530   0.181   0.301   9.655 -0.7625  1.2804  0.4019
  149SAPE   H9Y16531   0.354   0.350   9.681  0.5454 -0.2652 -1.4214
  149SAPE  C31016532   0.245   0.463   9.544  0.6253 -0.1502  0.3452
  149SAPE  H10X16533   0.309   0.554   9.545  0.7496 -0.2263  2.4718
  149SAPE  H10Y16534   0.148   0.505   9.510  0.0876 -1.2553  0.5081
  149SAPE  C31116535   0.297   0.386   9.419  0.2695 -0.4038  0.6897
  149SAPE  H11X16536   0.230   0.299   9.407  0.0464 -0.3691  1.6179
  149SAPE  H11Y16537   0.403   0.365   9.446  1.1547  1.0325 -1.5296
  149SAPE  C31216538   0.299   0.473   9.288 -1.2375 -0.4473 -0.2824
  149SAPE  H12X16539   0.377   0.549   9.304 -0.1292 -1.6426  0.0691
  149SAPE  H12Y16540   0.206   0.525   9.255  0.7371  0.9157 -3.8929
  149SAPE  C31316541   0.342   0.391   9.168  0.7762 -0.6037 -0.2502
  149SAPE  H13X16542   0.272   0.306   9.155 -0.5287  0.8559 -3.2290
  149SAPE  H13Y16543   0.442   0.349   9.194  2.5914  3.1087 -0.8399
  149SAPE  C31416544   0.332   0.469   9.036 -0.4783  0.3748 -0.5649
  149SAPE  H14X16545   0.391   0.563   9.042  1.3859 -0.8218  0.6500
  149SAPE  H14Y16546   0.224   0.491   9.022 -0.3193 -0.2772 -3.1396
  149SAPE  C31516547   0.381   0.400   8.915  0.6761 -0.0606 -0.1421
  149SAPE  H15X16548   0.315   0.312   8.897  1.2132 -0.1682 -1.6106
  149SAPE  H15Y16549   0.483   0.366   8.942  0.1135 -2.4370 -0.8420
  149SAPE  C31616550   0.384   0.486   8.780  0.2926  0.2727 -0.2843
  149SAPE  H16X16551   0.443   0.577   8.804 -0.5690  0.5316  0.9194
  149SAPE  H16Y16552   0.278   0.518   8.763  0.5817  1.1855 -0.4099
  149SAPE  C31716553   0.442   0.418   8.654 -0.4873 -0.1343 -1.0809
  149SAPE  H17X16554   0.445   0.498   8.577  0.2981  0.6123 -0.3021
  149SAPE  H17Y16555   0.362   0.344   8.634  0.0606 -1.5849  1.7685
  149SAPE  C31816556   0.571   0.344   8.681 -0.2333 -0.2817  0.0156
  149SAPE  H18X16557   0.574   0.287   8.776  2.9971  1.2883  0.9302
  149SAPE  H18Y16558   0.654   0.418   8.688 -1.1756  0.8119 -0.3375
  149SAPE  H18Z16559   0.604   0.273   8.602  1.3211  2.1600 -1.6254
  150SAPE     N16560   2.061   0.193  10.660 -0.3804 -0.8614 -0.1367
  150SAPE   HN116561   2.159   0.202  10.693 -0.2948 -1.6382 -0.1713
  150SAPE   HN216562   2.052   0.118  10.589  0.2770  2.4593 -3.9815
  150SAPE   HN316563   2.034   0.285  10.618 -0.3940  0.4711  2.6664
  150SAPE   C1216564   1.961   0.191  10.774  0.3027  0.5559 -0.5953
  150SAPE  H12A16565   1.857   0.190  10.736  0.2983 -1.8467 -0.6076
  150SAPE  H12B16566   1.962   0.292  10.820 -1.7411 -0.5205  1.8675
  150SAPE   C1116567   1.986   0.076  10.867 -0.0526  0.1639  1.1521
  150SAPE  H11A16568   1.924   0.093  10.957  0.3787  0.9397  1.3087
  150SAPE  H11B16569   2.095   0.075  10.890  0.1207  3.3275  0.6782
  150SAPE     P16570   2.012  -0.170  10.767  0.1047  0.0475  0.8087
  150SAPE   O1316571   2.056  -0.225  10.899 -0.9092 -0.6394 -0.0940
  150SAPE   O1416572   1.927  -0.246  10.677 -0.3531 -0.2035 -0.6389
  150SAPE   O1216573   1.935  -0.038  10.802  0.0280  0.3389  0.3174
  150SAPE   O1116574   2.131  -0.100  10.688 -0.1885  0.4151  0.6227
  150SAPE    C116575   2.251  -0.168  10.650 -0.5635  0.0456  0.3137
  150SAPE    HA16576   2.330  -0.148  10.726  0.2504  2.1996 -1.0542
  150SAPE    HB16577   2.228  -0.277  10.646 -1.3487  0.0814  2.8905
  150SAPE    C216578   2.303  -0.120  10.508 -0.5103  0.1831  0.3513
  150SAPE    HS16579   2.319  -0.010  10.512  0.9957  0.0223 -0.8503
  150SAPE   O2116580   2.207  -0.157  10.413  0.2591 -0.1412 -0.2758
  150SAPE   C2116581   2.111  -0.077  10.395  0.1439 -0.0035  0.0272
  150SAPE   O2216582   2.089   0.032  10.444 -0.3011 -0.7813  0.4088
  150SAPE   C2216583   2.011  -0.160  10.316  0.2842 -0.7391 -0.2006
  150SAPE   H2R16584   2.047  -0.215  10.226 -0.5927 -0.3039 -0.8263
  150SAPE   H2S16585   1.973  -0.242  10.382 -0.9647 -0.0074  0.0005
  150SAPE    C316586   2.448  -0.170  10.472  0.6594  0.7563  1.0084
  150SAPE    HX16587   2.446  -0.281  10.485  1.9469  0.5650 -0.2511
  150SAPE    HY16588   2.513  -0.123  10.548 -0.0538  1.3556  1.2496
  150SAPE   O3116589   2.487  -0.153  10.332  0.2769 -0.0754 -0.3774
  150SAPE   C3116590   2.623  -0.141  10.320 -0.2484 -0.0353  0.3688
  150SAPE   O3216591   2.708  -0.154  10.404 -0.1983 -0.2060 -0.4469
  150SAPE   C3216592   2.655  -0.100  10.176 -0.1778  0.1262 -0.3840
  150SAPE   H2X16593   2.758  -0.059  10.171  1.2140 -3.0153  1.0623
  150SAPE   H2Y16594   2.594  -0.011  10.150  0.4700  0.0063 -2.3777
  150SAPE   C2316595   1.894  -0.069  10.283  0.4625 -0.2333  0.6893
  150SAPE   H3R16596   1.932  -0.006  10.200  1.7432 -2.9391 -0.8193
  150SAPE   H3S16597   1.862  -0.008  10.371  0.2988  0.9679 -0.1898
  150SAPE   C2416598   1.769  -0.148  10.243 -0.0650 -0.3271 -0.7441
  150SAPE   H4R16599   1.695  -0.077  10.200 -1.0565  0.0490  1.5078
  150SAPE   H4S16600   1.718  -0.184  10.335  1.0969  0.0951  0.0837
  150SAPE   C2516601   1.795  -0.272  10.159  0.5431  0.1571 -0.3198
  150SAPE   H5R16602   1.797  -0.369  10.210 -1.8450  0.6609  0.8016
  150SAPE   C2616603   1.792  -0.267  10.025 -0.5279 -0.3286  0.3366
  150SAPE   H6R16604   1.787  -0.354   9.958  0.6697  0.0365 -0.2293
  150SAPE   C2716605   1.762  -0.142   9.947  0.7532 -0.2512 -0.1860
  150SAPE   H7R16606   1.838  -0.137   9.866  0.5106 -0.0238 -0.4029
  150SAPE   H7S16607   1.795  -0.052  10.002 -0.2763  0.8794 -1.3613
  150SAPE   C2816608   1.617  -0.132   9.901 -0.5292 -0.1088  0.0619
  150SAPE   H8R16609   1.542  -0.143   9.981 -0.8950  0.1710 -0.2414
  150SAPE   C2916610   1.565  -0.091   9.780  0.3077 -0.3031 -0.0631
  150SAPE   H9R16611   1.456  -0.075   9.779  0.5251  1.2553  0.0315
  150SAPE  C21016612   1.650  -0.057   9.663  0.5052 -0.2792 -0.1527
  150SAPE  H10R16613   1.730   0.011   9.699  0.7797 -0.8751  0.3670
  150SAPE  H10S16614   1.596   0.012   9.594 -0.5038 -1.4846 -0.5778
  150SAPE  C21116615   1.700  -0.165   9.578 -0.2083  0.3974 -0.0064
  150SAPE  H11R16616   1.744  -0.243   9.641  0.6923 -1.0427 -2.3896
  150SAPE  C21216617   1.694  -0.190   9.448  0.2888  0.0017  0.2328
  150SAPE  H12R16618   1.732  -0.287   9.413  2.5026  1.0252 -0.3156
  150SAPE  C21316619   1.626  -0.107   9.333 -0.8720 -0.3140  0.3431
  150SAPE  H13R16620   1.697  -0.031   9.293 -0.7428 -0.3794  0.4470
  150SAPE  H13S16621   1.542  -0.051   9.380 -2.4048 -0.6588 -1.9444
  150SAPE  C21416622   1.571  -0.191   9.222  0.1011 -1.1196 -0.0500
  150SAPE  H14R16623   1.473  -0.235   9.246 -1.0713  1.1311 -0.5420
  150SAPE  C21516624   1.628  -0.204   9.097 -0.0222  0.0124  0.5965
  150SAPE  H15R16625   1.573  -0.276   9.036 -0.9865  0.2323  1.1996
  150SAPE  C21616626   1.746  -0.128   9.040  0.2825  0.3419 -1.2556
  150SAPE  H16R16627   1.833  -0.196   9.055 -2.0322 -2.4724 -0.1749
  150SAPE  H16S16628   1.759  -0.033   9.096  0.2676 -1.6399  2.2050
  150SAPE  C21716629   1.719  -0.099   8.892  0.6039 -0.8699  0.5202
  150SAPE  H17R16630   1.628  -0.037   8.882  1.1658 -0.2933 -1.1568
  150SAPE  H17S16631   1.690  -0.191   8.836 -1.2133  0.5093 -0.8497
  150SAPE  C21816632   1.832  -0.015   8.823  0.7453 -0.2240  0.3076
  150SAPE  H18R16633   1.917  -0.086   8.812 -0.5805 -1.7266 -0.5130
  150SAPE  H18S16634   1.861   0.069   8.889  1.0334 -1.7012  2.1019
  150SAPE  C21916635   1.800   0.026   8.678 -0.7965  0.8895  0.5692
  150SAPE  H19R16636   1.891   0.075   8.637  1.1083 -1.4072  1.9184
  150SAPE  H19S16637   1.718   0.099   8.690 -0.3105  1.5154  0.1432
  150SAPE  C22016638   1.751  -0.084   8.577  0.1383 -0.2135  0.4346
  150SAPE  H20R16639   1.710  -0.041   8.483 -0.8405 -1.9867  0.0238
  150SAPE  H20S16640   1.662  -0.139   8.615  0.4147 -2.6574 -2.2073
  150SAPE  H20T16641   1.838  -0.153   8.562  2.0180  2.1069  0.4621
  150SAPE   C3316642   2.628  -0.206  10.076 -0.7822 -0.1012 -0.5589
  150SAPE   H3X16643   2.520  -0.229  10.083 -0.6437 -0.2789  1.2900
  150SAPE   H3Y16644   2.686  -0.295  10.107  0.0102  1.1448  1.7372
  150SAPE   C3416645   2.670  -0.162   9.935  0.0385 -0.2506  0.3109
  150SAPE   H4X16646   2.615  -0.229   9.866  1.6832  0.3300 -1.6190
  150SAPE   H4Y16647   2.773  -0.191   9.905  0.3372 -2.1693  2.9705
  150SAPE   C3516648   2.639  -0.019   9.886 -0.4954  0.0912 -0.1873
  150SAPE   H5X16649   2.709   0.052   9.935  0.6139 -0.4072 -1.0381
  150SAPE   H5Y16650   2.532   0.004   9.906 -0.9448 -0.4394 -1.8871
  150SAPE   C3616651   2.644   0.002   9.732  0.0643  0.7964 -0.3459
  150SAPE   H6X16652   2.576  -0.073   9.686  0.1920  0.4713 -0.0137
  150SAPE   H6Y16653   2.750  -0.011   9.701  0.5410  0.8967  1.1793
  150SAPE   C3716654   2.597   0.133   9.672 -0.0473  0.6760 -0.1462
  150SAPE   H7X16655   2.660   0.213   9.715  0.1828  0.7959 -0.6998
  150SAPE   H7Y16656   2.493   0.137   9.713 -0.0463  2.6230 -0.2979
  150SAPE   C3816657   2.605   0.141   9.525 -0.1962 -0.0588  0.1984
  150SAPE   H8X16658   2.533   0.071   9.476  1.8433 -2.4237  0.5004
  150SAPE   H8Y16659   2.705   0.114   9.487  0.0180  0.5375  0.3414
  150SAPE   C3916660   2.569   0.287   9.471  0.3567  0.4888 -0.4201
  150SAPE   H9X16661   2.632   0.363   9.523 -2.0167  1.4533  1.1613
  150SAPE   H9Y16662   2.458   0.292   9.481  0.0782 -2.0846 -1.8817
  150SAPE  C31016663   2.595   0.296   9.316  0.0475  0.0700  0.7541
  150SAPE  H10X16664   2.527   0.375   9.277 -0.6698 -0.6384  0.5522
  150SAPE  H10Y16665   2.575   0.204   9.257  1.3471  1.0415 -1.2348
  150SAPE  C31116666   2.737   0.348   9.284 -0.4149  0.4463 -0.0445
  150SAPE  H11X16667   2.805   0.277   9.336  0.1376  1.4009  0.5578
  150SAPE  H11Y16668   2.747   0.445   9.338  1.8684  1.5195 -2.3029
  150SAPE  C31216669   2.772   0.370   9.139  0.2063  0.2637 -0.5896
  150SAPE  H12X16670   2.882   0.387   9.142  0.1953  0.1650  1.6831
  150SAPE  H12Y16671   2.734   0.467   9.101  0.0298 -0.0135 -1.1266
  150SAPE  C31316672   2.728   0.263   9.039  0.2973  0.0853  0.1339
  150SAPE  H13X16673   2.618   0.277   9.035 -0.0673 -2.2724  1.1611
  150SAPE  H13Y16674   2.749   0.164   9.083  1.4791 -0.0906 -0.7990
  150SAPE  C31416675   2.769   0.280   8.892  0.5924 -1.0008  0.3074
  150SAPE  H14X16676   2.879   0.295   8.885  0.4441  0.5363  1.0686
  150SAPE  H14Y16677   2.723   0.364   8.836 -1.8437 -2.3224  0.2576
  150SAPE  C31516678   2.741   0.158   8.801  0.5464  0.6416  0.2207
  150SAPE  H15X16679   2.740   0.192   8.696  0.7554  0.0919  0.0363
  150SAPE  H15Y16680   2.642   0.119   8.836  0.1381  1.6185  0.1736
  150SAPE  C31616681   2.854   0.047   8.810  0.6071  0.4275 -1.0010
  150SAPE  H16X16682   2.892   0.033   8.913 -3.4157 -0.9420  0.3756
  150SAPE  H16Y16683   2.934   0.066   8.735  2.5200 -0.9074  0.6576
  150SAPE  C31716684   2.794  -0.091   8.759 -0.7547 -0.6700  0.6009
  150SAPE  H17X16685   2.710  -0.114   8.828 -2.2844  0.2891 -0.9012
  150SAPE  H17Y16686   2.876  -0.164   8.779 -1.1874 -0.7460  2.1614
  150SAPE  C31816687   2.757  -0.078   8.614 -0.3075  0.4891  0.4011
  150SAPE  H18X16688   2.838  -0.031   8.554  0.0866 -0.3782  0.2490
  150SAPE  H18Y16689   2.674  -0.005   8.609 -1.1829 -0.4835  0.7031
  150SAPE  H18Z16690   2.735  -0.170   8.556 -0.8077  0.9681 -0.1706
  151SAPE     N16691   6.339   4.324  10.476  0.9845  0.2654 -0.3833
  151SAPE   HN116692   6.288   4.415  10.474  1.7188  0.6849 -0.0997
  151SAPE   HN216693   6.322   4.285  10.571 -2.0360  1.9077 -0.1886
  151SAPE   HN316694   6.438   4.334  10.446  1.7362  1.0168  2.2235
  151SAPE   C1216695   6.271   4.243  10.372 -0.5463  0.0574  0.2357
  151SAPE  H12A16696   6.227   4.304  10.290 -3.6191  0.5278  2.1480
  151SAPE  H12B16697   6.175   4.204  10.414 -1.5128  1.0513 -1.0000
  151SAPE   C1116698   6.367   4.139  10.319  0.4463  0.6969  0.4309
  151SAPE  H11A16699   6.457   4.189  10.278 -1.2457  0.2793 -4.1451
  151SAPE  H11B16700   6.325   4.085  10.231 -1.1485  3.7240 -0.7262
  151SAPE     P16701   6.528   3.959  10.444  0.2672  0.0558  0.2466
  151SAPE   O1316702   6.643   4.049  10.471  0.5183 -0.4244 -0.0291
  151SAPE   O1416703   6.503   3.843  10.533  0.1402  0.2474  0.3665
  151SAPE   O1216704   6.400   4.052  10.427 -0.3073 -0.1730 -0.3652
  151SAPE   O1116705   6.545   3.906  10.293 -0.7248  0.0488  0.2891
  151SAPE    C116706   6.647   3.943  10.203 -0.7091 -0.6190  0.4898
  151SAPE    HA16707   6.639   4.053  10.193  1.6288 -0.3313  1.4615
  151SAPE    HB16708   6.747   3.924  10.247  0.6868  1.3771 -1.7189
  151SAPE    C216709   6.636   3.874  10.063  0.4086 -0.0769  0.1744
  151SAPE    HS16710   6.690   3.930   9.984 -0.4947 -0.2059 -0.5437
  151SAPE   O2116711   6.499   3.827  10.043  0.3357  0.1205  0.3626
  151SAPE   C2116712   6.420   3.915   9.985  0.1116  0.2641  0.0756
  151SAPE   O2216713   6.444   4.030   9.952  0.1323 -0.0223  0.3868
  151SAPE   C2216714   6.281   3.850   9.991  0.3540  0.3117 -0.1217
  151SAPE   H2R16715   6.287   3.743  10.021  0.2407  0.9969  2.4105
  151SAPE   H2S16716   6.225   3.895  10.076  0.1436 -0.8095  0.3513
  151SAPE    C316717   6.726   3.743  10.069 -0.0889 -0.2587  0.1742
  151SAPE    HX16718   6.674   3.674  10.139 -0.3180 -0.9445 -0.6483
  151SAPE    HY16719   6.827   3.768  10.109  0.1405 -0.6440 -0.1541
  151SAPE   O3116720   6.737   3.686   9.943 -0.4745 -0.0450  0.3785
  151SAPE   C3116721   6.654   3.579   9.925  0.6262 -1.5182 -0.0982
  151SAPE   O3216722   6.556   3.551   9.991 -0.5484 -0.2139 -0.3510
  151SAPE   C3216723   6.696   3.504   9.805  0.5967 -0.2815  0.4763
  151SAPE   H2X16724   6.697   3.398   9.838  1.5251 -0.2021  0.7189
  151SAPE   H2Y16725   6.800   3.528   9.774  1.2666 -2.6824  0.8105
  151SAPE   C2316726   6.192   3.880   9.870  0.2824 -0.4112  0.5471
  151SAPE   H3R16727   6.156   3.984   9.858 -0.4370 -0.8335 -1.1525
  151SAPE   H3S16728   6.098   3.828   9.900  0.4098 -0.8284  0.2317
  151SAPE   C2416729   6.242   3.846   9.733  0.2807  0.1064 -0.1933
  151SAPE   H4R16730   6.335   3.902   9.709  1.5976 -1.4983  1.0560
  151SAPE   H4S16731   6.170   3.896   9.666 -1.9368 -0.0714  1.9860
  151SAPE   C2516732   6.254   3.698   9.699 -0.4187 -0.0810  0.3233
  151SAPE   H5R16733   6.301   3.639   9.780  0.8810  0.6860  0.1362
  151SAPE   C2616734   6.209   3.642   9.587  0.3880  0.2467 -0.2987
  151SAPE   H6R16735   6.238   3.537   9.568 -1.9833 -0.2696 -1.3211
  151SAPE   C2716736   6.137   3.713   9.473  0.8286 -0.0875 -0.5865
  151SAPE   H7R16737   6.201   3.796   9.438  2.2588 -0.4951  0.9869
  151SAPE   H7S16738   6.044   3.763   9.508  2.1281  1.1031  1.2643
  151SAPE   C2816739   6.110   3.616   9.362 -0.4677  0.5075  0.7830
  151SAPE   H8R16740   6.062   3.521   9.393 -1.4135 -0.0900 -2.3411
  151SAPE   C2916741   6.127   3.640   9.226 -0.1836 -0.4680  0.0649
  151SAPE   H9R16742   6.110   3.561   9.151  1.1325 -0.5692 -0.1456
  151SAPE  C21016743   6.181   3.770   9.169  0.5683  0.3219 -0.6694
  151SAPE  H10R16744   6.251   3.818   9.240 -0.5208  0.6563  0.1951
  151SAPE  H10S16745   6.096   3.841   9.168  0.6293  0.4755  1.4815
  151SAPE  C21116746   6.244   3.768   9.028  0.2425 -0.2949 -0.3368
  151SAPE  H11R16747   6.314   3.685   9.009  0.0857 -0.6029  0.3823
  151SAPE  C21216748   6.214   3.859   8.932  0.2584 -0.5220  0.5367
  151SAPE  H12R16749   6.262   3.852   8.833  1.6295 -0.6726  1.1922
  151SAPE  C21316750   6.124   3.975   8.944  0.4179 -0.0737 -0.4763
  151SAPE  H13R16751   6.119   4.022   9.045 -2.2414 -1.4614  0.0846
  151SAPE  H13S16752   6.020   3.938   8.931  0.1098  0.6849 -0.2060
  151SAPE  C21416753   6.158   4.087   8.851  0.1045  0.2332  0.3302
  151SAPE  H14R16754   6.245   4.148   8.881 -1.4299  1.0361  3.4257
  151SAPE  C21516755   6.094   4.121   8.739 -0.1311  0.8656  0.2387
  151SAPE  H15R16756   6.142   4.204   8.685 -0.0483  1.0455  0.5881
  151SAPE  C21616757   5.973   4.044   8.688 -0.3537 -0.1734  0.4445
  151SAPE  H16R16758   5.945   3.955   8.749 -0.7414  1.2196  2.3276
  151SAPE  H16S16759   6.010   4.007   8.590 -1.0985  0.0732  0.0725
  151SAPE  C21716760   5.841   4.116   8.663  0.5817 -0.2367  0.3419
  151SAPE  H17R16761   5.862   4.193   8.586  0.1120 -0.5212 -0.0813
  151SAPE  H17S16762   5.825   4.183   8.750  0.2667 -0.3450  0.3696
  151SAPE  C21816763   5.719   4.017   8.651 -0.0177 -0.3570 -0.1203
  151SAPE  H18R16764   5.626   4.074   8.629  2.8397  3.9201 -1.7477
  151SAPE  H18S16765   5.709   3.965   8.749  0.0283 -1.5453 -0.7271
  151SAPE  C21916766   5.743   3.912   8.542 -0.3539  0.7456  0.4717
  151SAPE  H19R16767   5.841   3.860   8.547 -2.0500 -3.2244 -3.5279
  151SAPE  H19S16768   5.744   3.966   8.445 -0.7712 -0.5686 -0.2831
  151SAPE  C22016769   5.638   3.804   8.516  0.4885  0.4233  0.6016
  151SAPE  H20R16770   5.634   3.743   8.609  2.6514  0.0013  0.4271
  151SAPE  H20S16771   5.669   3.735   8.435  0.4356  0.3074  0.6789
  151SAPE  H20T16772   5.538   3.847   8.491  0.2029 -0.4529  0.2240
  151SAPE   C3316773   6.590   3.526   9.698  0.3675  0.1489  0.1958
  151SAPE   H3X16774   6.583   3.632   9.667  0.2469 -0.6682 -2.6783
  151SAPE   H3Y16775   6.491   3.497   9.741  0.4456  0.3125  0.4865
  151SAPE   C3416776   6.620   3.450   9.570  0.1842  0.1616  0.2676
  151SAPE   H4X16777   6.603   3.341   9.579  0.9067  0.0250 -0.0557
  151SAPE   H4Y16778   6.727   3.460   9.544 -0.4357  2.7640 -1.5128
  151SAPE   C3516779   6.533   3.502   9.454 -0.6162 -0.5765 -0.1336
  151SAPE   H5X16780   6.545   3.612   9.461 -0.7819 -0.4399 -1.9537
  151SAPE   H5Y16781   6.424   3.488   9.469 -0.6137  1.0332  1.4862
  151SAPE   C3616782   6.567   3.438   9.316  0.1348 -0.1298  0.1821
  151SAPE   H6X16783   6.578   3.328   9.326 -1.3071 -0.2155  1.0828
  151SAPE   H6Y16784   6.665   3.475   9.281 -0.3220 -0.8710 -1.9497
  151SAPE   C3716785   6.462   3.465   9.207 -0.5995 -0.9311  0.9650
  151SAPE   H7X16786   6.444   3.574   9.194 -1.4884 -1.1728  0.1247
  151SAPE   H7Y16787   6.360   3.432   9.232 -1.1888 -0.5567 -0.8345
  151SAPE   C3816788   6.502   3.403   9.072 -0.5006  0.1327  0.2948
  151SAPE   H8X16789   6.504   3.292   9.077 -2.0298  0.0629 -0.2711
  151SAPE   H8Y16790   6.607   3.433   9.049 -0.9660  1.3225 -0.3378
  151SAPE   C3916791   6.416   3.454   8.953 -0.3930 -0.8581 -0.0323
  151SAPE   H9X16792   6.419   3.564   8.937 -1.0426 -0.6216  1.4194
  151SAPE   H9Y16793   6.310   3.426   8.971 -0.2170 -2.7189 -1.7561
  151SAPE  C31016794   6.451   3.369   8.825 -0.0907 -0.4144  0.2046
  151SAPE  H10X16795   6.508   3.279   8.857 -1.6334 -1.2005  0.8066
  151SAPE  H10Y16796   6.540   3.423   8.786 -1.2540  1.6808  0.3701
  151SAPE  C31116797   6.337   3.355   8.728  0.4981 -0.0788  0.6781
  151SAPE  H11X16798   6.277   3.449   8.720 -1.2658 -1.2760 -0.5574
  151SAPE  H11Y16799   6.266   3.287   8.780  1.6703 -1.8351  0.0243
  151SAPE  C31216800   6.382   3.297   8.589 -0.0098  0.5332 -0.0668
  151SAPE  H12X16801   6.471   3.236   8.617 -0.4569  0.3190  0.9035
  151SAPE  H12Y16802   6.423   3.380   8.528  1.9819 -0.9855 -0.8677
  151SAPE  C31316803   6.274   3.214   8.515 -0.4716  0.3433 -0.0539
  151SAPE  H13X16804   6.264   3.121   8.576  1.3692  1.8031  2.5430
  151SAPE  H13Y16805   6.309   3.183   8.414  0.6600  2.1992 -0.2482
  151SAPE  C31416806   6.143   3.286   8.509 -0.1741  0.0212  0.2408
  151SAPE  H14X16807   6.152   3.388   8.464 -1.3549 -0.1806 -0.4448
  151SAPE  H14Y16808   6.104   3.297   8.613  1.8423  1.0880  0.9190
  151SAPE  C31516809   6.046   3.201   8.423  0.6286  0.2054  0.9749
  151SAPE  H15X16810   6.040   3.103   8.475  2.8931 -0.9767 -0.9135
  151SAPE  H15Y16811   6.090   3.180   8.324  0.0959  2.3413  0.2569
  151SAPE  C31616812   5.908   3.271   8.408  0.2729  0.7330  1.0665
  151SAPE  H16X16813   5.924   3.361   8.344  0.6623 -1.5848 -2.2334
  151SAPE  H16Y16814   5.881   3.302   8.511 -0.5534 -0.7404  1.3132
  151SAPE  C31716815   5.798   3.170   8.359  0.0617  0.1426  0.4392
  151SAPE  H17X16816   5.828   3.121   8.264  0.3350  0.6878  0.2467
  151SAPE  H17Y16817   5.702   3.221   8.335  0.0253  0.6837  1.7065
  151SAPE  C31816818   5.762   3.054   8.456  0.0333 -0.1390  0.0252
  151SAPE  H18X16819   5.849   2.988   8.478  0.5957  0.4220 -0.4703
  151SAPE  H18Y16820   5.684   2.993   8.406  0.5888 -0.9024  0.0829
  151SAPE  H18Z16821   5.723   3.081   8.556  2.3784 -1.0660  1.2427
  152SAPE     N16822   1.278   2.857  10.786  0.7688  0.2253  0.6332
  152SAPE   HN116823   1.272   2.765  10.736 -1.5648  0.3523  0.5974
  152SAPE   HN216824   1.357   2.904  10.738  1.3772 -0.4666  0.9337
  152SAPE   HN316825   1.306   2.837  10.884 -2.2749 -1.8347  1.1882
  152SAPE   C1216826   1.145   2.919  10.767 -0.6444 -0.1474 -0.7590
  152SAPE  H12A16827   1.132   3.002  10.840 -2.6590 -1.5764  0.5560
  152SAPE  H12B16828   1.078   2.836  10.798  1.9981 -1.4774  1.6777
  152SAPE   C1116829   1.127   2.946  10.618 -0.2754 -0.3107  0.2160
  152SAPE  H11A16830   1.024   2.984  10.604 -0.6615  0.1836  3.9992
  152SAPE  H11B16831   1.150   2.856  10.557 -0.6605 -1.5498  1.8647
  152SAPE     P16832   1.247   3.110  10.449 -0.0989  0.2436  0.2294
  152SAPE   O1316833   1.204   3.251  10.444  0.6632  0.3952  0.2179
  152SAPE   O1416834   1.392   3.092  10.431  0.3870  0.4562  0.0006
  152SAPE   O1216835   1.213   3.056  10.589 -0.0975  0.2185  0.0091
  152SAPE   O1116836   1.168   3.010  10.349 -0.8167 -0.2471 -0.1363
  152SAPE    C116837   1.242   2.916  10.271 -0.1369  0.5740  0.2665
  152SAPE    HA16838   1.347   2.894  10.300 -1.2667 -2.4626  2.3398
  152SAPE    HB16839   1.194   2.816  10.275 -0.6130  0.8129  0.6073
  152SAPE    C216840   1.240   2.959  10.126  0.3244  0.3558 -0.5305
  152SAPE    HS16841   1.290   2.879  10.068 -1.6731 -1.4792  0.2121
  152SAPE   O2116842   1.300   3.089  10.116  0.0135  0.4455 -0.3970
  152SAPE   C2116843   1.435   3.078  10.090  0.0783  0.0163  0.0039
  152SAPE   O2216844   1.501   2.976  10.076 -0.1063  0.0533 -0.4767
  152SAPE   C2216845   1.489   3.218  10.082 -0.6044  0.1781  0.9056
  152SAPE   H2R16846   1.418   3.288  10.034  0.0588 -0.5210 -1.1183
  152SAPE   H2S16847   1.507   3.262  10.183 -1.9888  0.3926  1.0682
  152SAPE    C316848   1.100   2.971  10.067 -0.5186  0.8378  0.1253
  152SAPE    HX16849   1.049   3.043  10.134 -0.5354  0.3211  0.6620
  152SAPE    HY16850   1.036   2.881  10.067  2.3309 -1.2538  0.8140
  152SAPE   O3116851   1.113   3.022   9.929  0.7805  0.9846 -0.0016
  152SAPE   C3116852   1.092   2.936   9.830 -0.1543 -0.5907 -0.7632
  152SAPE   O3216853   1.060   2.821   9.847 -0.3570  0.3072  0.0182
  152SAPE   C3216854   1.096   3.009   9.694  0.7701 -0.0668 -0.2058
  152SAPE   H2X16855   1.182   3.077   9.713  0.3017  0.7221 -0.9018
  152SAPE   H2Y16856   1.000   3.062   9.677  1.4874  1.1991 -0.3339
  152SAPE   C2316857   1.621   3.231   9.992  0.1050  0.4075 -0.0253
  152SAPE   H3R16858   1.701   3.162  10.027  0.5332 -0.3524 -2.4117
  152SAPE   H3S16859   1.654   3.336  10.006 -0.7053  0.4138  2.1138
  152SAPE   C2416860   1.594   3.200   9.843 -0.2394  0.0944  0.4846
  152SAPE   H4R16861   1.505   3.256   9.809  0.9953  0.9348 -1.4637
  152SAPE   H4S16862   1.563   3.094   9.855 -2.0667  0.7635  1.8908
  152SAPE   C2516863   1.715   3.219   9.753 -0.1998 -0.8014  0.7805
  152SAPE   H5R16864   1.805   3.161   9.778 -0.0770 -0.6975  0.5756
  152SAPE   C2616865   1.720   3.304   9.653  0.1614 -0.0357  0.4568
  152SAPE   H6R16866   1.810   3.306   9.591  0.0144 -1.1637  0.2051
  152SAPE   C2716867   1.607   3.392   9.599 -0.0332  0.1866 -0.1233
  152SAPE   H7R16868   1.519   3.387   9.666  0.1138 -0.2807  0.0400
  152SAPE   H7S16869   1.558   3.352   9.508 -2.2145  1.0437  0.6428
  152SAPE   C2816870   1.662   3.538   9.582  0.5422 -0.0235 -0.3441
  152SAPE   H8R16871   1.745   3.556   9.653  0.0125  1.1569 -0.0241
  152SAPE   C2916872   1.612   3.639   9.507 -0.7714  0.6636  0.8224
  152SAPE   H9R16873   1.664   3.736   9.510  0.4110  0.0559  0.2267
  152SAPE  C21016874   1.490   3.631   9.422  0.3228  0.3351  0.0393
  152SAPE  H10R16875   1.401   3.643   9.486 -0.1048  1.4376 -0.7564
  152SAPE  H10S16876   1.471   3.529   9.381  0.7070  0.3454 -0.1715
  152SAPE  C21116877   1.491   3.725   9.306  0.6029  0.0341  0.2638
  152SAPE  H11R16878   1.576   3.696   9.242  0.0372 -1.3201  0.0926
  152SAPE  C21216879   1.402   3.821   9.270  0.2022 -0.6013 -0.7925
  152SAPE  H12R16880   1.425   3.877   9.179  0.5461 -0.8152 -0.8367
  152SAPE  C21316881   1.276   3.860   9.342 -0.4460  0.3800  0.1549
  152SAPE  H13R16882   1.276   3.963   9.385  0.0687  1.0875 -1.5062
  152SAPE  H13S16883   1.272   3.793   9.431  2.1434 -0.8247 -0.5934
  152SAPE  C21416884   1.154   3.843   9.257 -0.7838  0.1310  0.7512
  152SAPE  H14R16885   1.093   3.752   9.269  2.1302 -2.4592 -2.8886
  152SAPE  C21516886   1.107   3.937   9.163 -0.2225 -0.2833 -0.0139
  152SAPE  H15R16887   1.014   3.914   9.109 -0.4792  0.6262  0.0407
  152SAPE  C21616888   1.172   4.066   9.118 -0.0103  0.8972  0.1194
  152SAPE  H16R16889   1.278   4.068   9.150 -0.0686  1.6234  0.2744
  152SAPE  H16S16890   1.125   4.151   9.172 -2.4987 -0.0870 -0.4477
  152SAPE  C21716891   1.175   4.085   8.965  0.1245  0.5043  0.3606
  152SAPE  H17R16892   1.237   3.998   8.934 -1.9946 -0.7377 -0.5304
  152SAPE  H17S16893   1.227   4.181   8.949 -1.6201  1.6009  1.1404
  152SAPE  C21816894   1.039   4.097   8.893 -0.6484  0.0029  0.6394
  152SAPE  H18R16895   0.996   3.997   8.870 -1.1216  0.1515  0.8538
  152SAPE  H18S16896   1.065   4.138   8.794  2.1620 -2.4473  0.2933
  152SAPE  C21916897   0.925   4.177   8.957 -0.0852  0.2928 -0.0399
  152SAPE  H19R16898   0.980   4.256   9.013  0.7883 -0.0415 -0.4323
  152SAPE  H19S16899   0.862   4.121   9.030 -0.0945 -0.8376 -0.9140
  152SAPE  C22016900   0.821   4.241   8.865  0.0994 -0.5113  0.1104
  152SAPE  H20R16901   0.753   4.160   8.830  0.2130 -1.0841  1.2233
  152SAPE  H20S16902   0.862   4.310   8.787 -0.6019  0.7648  0.8532
  152SAPE  H20T16903   0.761   4.303   8.935  2.0684  1.2193  0.3135
  152SAPE   C3316904   1.115   2.909   9.579 -0.8043  0.4986 -0.4203
  152SAPE   H3X16905   1.040   2.827   9.592  1.6149 -2.0333 -1.9044
  152SAPE   H3Y16906   1.217   2.866   9.578 -0.6288  0.8507  0.8846
  152SAPE   C3416907   1.077   2.972   9.441  1.1075 -0.5299  0.5734
  152SAPE   H4X16908   1.125   3.071   9.428  0.7816 -0.3621  0.6436
  152SAPE   H4Y16909   0.975   3.016   9.449  1.6730  0.5550  1.9790
  152SAPE   C3516910   1.092   2.884   9.318  0.0796  0.2159  0.5889
  152SAPE   H5X16911   1.032   2.792   9.335 -1.4392  1.1653  0.4358
  152SAPE   H5Y16912   1.199   2.862   9.293  0.1887  0.7617  0.5757
  152SAPE   C3616913   1.043   2.935   9.180  0.8712 -0.7037 -0.4555
  152SAPE   H6X16914   0.935   2.957   9.191  0.9921 -0.7807  1.1353
  152SAPE   H6Y16915   1.048   2.854   9.105 -0.1607  0.3360 -1.6716
  152SAPE   C3716916   1.110   3.062   9.123 -1.0229 -0.1618 -0.5234
  152SAPE   H7X16917   1.219   3.042   9.122 -0.4970  2.3969  0.1001
  152SAPE   H7Y16918   1.094   3.143   9.198 -0.0782  0.3080 -0.8238
  152SAPE   C3816919   1.065   3.104   8.983 -0.0882 -1.0045 -0.0763
  152SAPE   H8X16920   1.117   3.199   8.960 -1.3934  0.7713  3.8640
  152SAPE   H8Y16921   0.964   3.146   8.995  0.7879  0.3667  2.8797
  152SAPE   C3916922   1.077   2.997   8.877 -0.4520 -0.0255 -0.2871
  152SAPE   H9X16923   1.025   3.026   8.783 -2.7963 -0.9774  0.6730
  152SAPE   H9Y16924   1.020   2.909   8.911 -1.4524  0.4280 -0.7691
  152SAPE  C31016925   1.217   2.957   8.842  1.1155 -0.0811 -0.4897
  152SAPE  H10X16926   1.218   2.907   8.743 -0.9922 -0.9022 -0.1230
  152SAPE  H10Y16927   1.260   2.881   8.912 -1.2229 -1.5113 -0.5470
  152SAPE  C31116928   1.306   3.083   8.812 -0.1535 -0.2559  0.6994
  152SAPE  H11X16929   1.320   3.145   8.903 -0.8365  2.5318 -1.0177
  152SAPE  H11Y16930   1.261   3.147   8.733  1.6037 -1.6054 -1.4390
  152SAPE  C31216931   1.454   3.059   8.765 -0.1412 -0.4795  0.3450
  152SAPE  H12X16932   1.487   3.164   8.750  0.8540 -0.5712  1.7607
  152SAPE  H12Y16933   1.466   2.991   8.678  0.2771 -0.6358  0.5242
  152SAPE  C31316934   1.540   3.013   8.890  0.0401 -0.6746 -0.2192
  152SAPE  H13X16935   1.495   2.930   8.949  3.3702 -2.1392  0.4037
  152SAPE  H13Y16936   1.547   3.098   8.961  0.4286 -0.4116 -0.5676
  152SAPE  C31416937   1.685   2.982   8.863  0.4275  0.3756 -0.7431
  152SAPE  H14X16938   1.731   2.968   8.963 -0.7474  1.4369 -0.0259
  152SAPE  H14Y16939   1.725   3.069   8.807 -0.9089  1.2545 -0.3769
  152SAPE  C31516940   1.697   2.855   8.779 -0.2784  0.1758  0.4312
  152SAPE  H15X16941   1.638   2.859   8.685  1.4202  1.5874 -0.6197
  152SAPE  H15Y16942   1.650   2.778   8.843 -0.8228  2.2610  2.5960
  152SAPE  C31616943   1.846   2.826   8.753  0.4372 -0.5856  0.1895
  152SAPE  H16X16944   1.901   2.921   8.770  2.1105 -1.3827 -0.6097
  152SAPE  H16Y16945   1.862   2.804   8.645 -0.3700 -0.8095  0.1179
  152SAPE  C31716946   1.907   2.705   8.826  0.2810  0.1202 -0.6581
  152SAPE  H17X16947   2.014   2.703   8.793  0.6627 -0.1663  0.5733
  152SAPE  H17Y16948   1.872   2.610   8.781  1.3062 -0.2646 -0.6513
  152SAPE  C31816949   1.903   2.702   8.974  0.1311 -0.4411 -0.5279
  152SAPE  H18X16950   1.964   2.618   9.014 -1.0541 -1.7714 -1.4555
  152SAPE  H18Y16951   1.802   2.684   9.016 -0.5427 -0.7352 -2.2135
  152SAPE  H18Z16952   1.930   2.796   9.026  0.1034 -1.2259  0.9226
  153SAPE     N16953   1.804   4.357  10.584  0.4660 -1.0487  0.0617
  153SAPE   HN116954   1.811   4.268  10.637 -0.1438 -1.3273 -0.3178
  153SAPE   HN216955   1.900   4.398  10.582 -0.7651  1.9422 -0.3934
  153SAPE   HN316956   1.742   4.421  10.637  0.2293 -0.5617 -0.7980
  153SAPE   C1216957   1.753   4.342  10.439  0.3737  0.7579 -1.1955
  153SAPE  H12A16958   1.818   4.265  10.391 -0.7251  0.3912 -2.1106
  153SAPE  H12B16959   1.781   4.434  10.383 -2.6236  1.5194 -1.4999
  153SAPE   C1116960   1.603   4.315  10.426  0.7860 -0.0658  0.5510
  153SAPE  H11A16961   1.587   4.206  10.435  0.3878 -0.1896 -1.5623
  153SAPE  H11B16962   1.565   4.348  10.327  1.8472 -2.0036 -0.5298
  153SAPE     P16963   1.373   4.365  10.554  0.1100 -0.3135  0.0154
  153SAPE   O1316964   1.377   4.283  10.674  0.3347 -0.2476  0.7344
  153SAPE   O1416965   1.292   4.484  10.564 -0.8853  0.3033  0.1793
  153SAPE   O1216966   1.526   4.392  10.522  0.1102 -1.4368 -0.1271
  153SAPE   O1116967   1.328   4.279  10.432  0.7171  0.1515 -0.5109
  153SAPE    C116968   1.272   4.145  10.442 -0.9161 -0.2615 -0.0329
  153SAPE    HA16969   1.357   4.078  10.466 -2.2188 -2.1477 -0.6261
  153SAPE    HB16970   1.213   4.131  10.535  0.7596 -3.2972  0.6485
  153SAPE    C216971   1.195   4.098  10.317 -0.5398 -0.2867  0.9278
  153SAPE    HS16972   1.217   3.992  10.295  2.3069  0.8441 -1.9538
  153SAPE   O2116973   1.231   4.165  10.198  0.4084  0.1861  0.2203
  153SAPE   C2116974   1.357   4.147  10.154 -0.6877  0.1830 -0.8459
  153SAPE   O2216975   1.438   4.067  10.195  0.7520  0.8453  0.3634
  153SAPE   C2216976   1.393   4.259  10.052 -0.7578 -0.1240  0.4059
  153SAPE   H2R16977   1.313   4.260   9.975  0.2259  2.5781 -0.6581
  153SAPE   H2S16978   1.379   4.352  10.112  0.0122  1.3037 -1.5830
  153SAPE    C316979   1.043   4.103  10.338  0.2133  0.3080 -0.7127
  153SAPE    HX16980   1.014   4.210  10.338  4.1251  1.4748  1.8528
  153SAPE    HY16981   1.037   4.052  10.437 -0.1515  0.4317 -0.6685
  153SAPE   O3116982   0.971   4.031  10.239  0.0466 -0.6570 -0.4809
  153SAPE   C3116983   0.845   4.031  10.263 -0.0064  0.3934  0.2396
  153SAPE   O3216984   0.792   4.080  10.363 -0.3378  0.1125 -0.3120
  153SAPE   C3216985   0.764   3.987  10.135  0.0610  0.6231  0.0008
  153SAPE   H2X16986   0.660   4.026  10.136 -0.4674 -0.6745 -1.0146
  153SAPE   H2Y16987   0.764   3.878  10.157 -1.7333  0.6822  0.3878
  153SAPE   C2316988   1.533   4.251   9.983 -0.1573  0.4541  0.4940
  153SAPE   H3R16989   1.537   4.150   9.939  0.6169  0.7474 -0.1157
  153SAPE   H3S16990   1.614   4.267  10.057 -0.4861  1.5067  0.6394
  153SAPE   C2416991   1.549   4.350   9.861  0.7167 -0.4807  0.7155
  153SAPE   H4R16992   1.505   4.446   9.894  1.8742 -0.3702  2.0131
  153SAPE   H4S16993   1.479   4.316   9.782  1.6740  0.7711 -0.6934
  153SAPE   C2516994   1.693   4.370   9.809 -0.0277 -0.3735 -1.3507
  153SAPE   H5R16995   1.772   4.327   9.871  0.0868 -0.6406 -1.6794
  153SAPE   C2616996   1.725   4.445   9.704 -0.1481  0.4065 -0.0603
  153SAPE   H6R16997   1.833   4.462   9.692 -0.0658  1.2120  1.6390
  153SAPE   C2716998   1.625   4.522   9.612  0.6802 -0.3696 -0.0776
  153SAPE   H7R16999   1.521   4.508   9.648  1.0839 -2.4276  0.3727
  153SAPE   H7S17000   1.633   4.485   9.508  2.7866  4.3837 -1.7455
  153SAPE   C2817001   1.648   4.666   9.608  0.1296 -0.3351  0.8784
  153SAPE   H8R17002   1.682   4.714   9.701  0.5433  0.9157  0.1029
  153SAPE   C2917003   1.613   4.745   9.511 -0.9240  0.5396  0.2868
  153SAPE   H9R17004   1.626   4.854   9.527 -1.0664  0.9002 -1.8877
  153SAPE  C21017005   1.548   4.704   9.378 -0.3751 -0.0445  0.6654
  153SAPE  H10R17006   1.494   4.791   9.333 -0.1212 -0.7261 -0.9993
  153SAPE  H10S17007   1.473   4.628   9.408  0.0809 -0.8805 -0.2752
  153SAPE  C21117008   1.636   4.629   9.284  0.3853 -0.1445  1.6506
  153SAPE  H11R17009   1.704   4.552   9.324  2.6680  0.9014 -0.1665
  153SAPE  C21217010   1.637   4.652   9.151 -0.1743 -0.2122  0.0758
  153SAPE  H12R17011   1.691   4.584   9.085  0.7785  1.7963 -1.2707
  153SAPE  C21317012   1.551   4.746   9.084  0.4596 -0.3706 -0.6914
  153SAPE  H13R17013   1.578   4.849   9.119 -0.5753  0.4802 -2.3389
  153SAPE  H13S17014   1.447   4.742   9.122  0.7365  0.7378  0.2339
  153SAPE  C21417015   1.555   4.747   8.933 -0.5855  0.0858  0.6635
  153SAPE  H14R17016   1.640   4.693   8.889 -0.1269 -0.1720  1.8691
  153SAPE  C21517017   1.474   4.807   8.841 -0.4062 -0.1643  0.3190
  153SAPE  H15R17018   1.495   4.784   8.735 -0.6799 -0.3844  0.3110
  153SAPE  C21617019   1.359   4.900   8.854 -0.0726  0.3190 -0.1467
  153SAPE  H16R17020   1.391   4.990   8.797  0.4458  1.0009  1.2161
  153SAPE  H16S17021   1.350   4.930   8.960 -0.0810  2.1899 -0.6473
  153SAPE  C21717022   1.216   4.854   8.812  0.2534  0.0528 -0.3313
  153SAPE  H17R17023   1.195   4.763   8.871 -0.7276  0.7848  0.4663
  153SAPE  H17S17024   1.224   4.836   8.703  2.8966 -1.9080  0.1382
  153SAPE  C21817025   1.107   4.958   8.836  0.0983 -0.8767 -0.3313
  153SAPE  H18R17026   1.125   5.038   8.761  2.7842 -1.3199 -0.2014
  153SAPE  H18S17027   1.111   4.985   8.944 -2.5500 -0.7118 -0.2284
  153SAPE  C21917028   0.966   4.909   8.814 -0.1013  0.3672  0.2184
  153SAPE  H19R17029   0.955   4.816   8.874  1.3585  1.3123  2.0226
  153SAPE  H19S17030   0.939   4.894   8.708  0.1053  1.8208 -0.0526
  153SAPE  C22017031   0.857   5.010   8.869  0.1217  0.0496  0.6411
  153SAPE  H20R17032   0.855   5.099   8.803 -2.2173 -1.5070 -1.5254
  153SAPE  H20S17033   0.880   5.033   8.975 -0.1959 -3.3679  1.5249
  153SAPE  H20T17034   0.757   4.964   8.855  0.5441 -0.2816 -1.3399
  153SAPE   C3317035   0.834   3.991  10.002  0.4960  0.0415 -0.4112
  153SAPE   H3X17036   0.938   3.954  10.000  0.8494  1.0321 -0.8721
  153SAPE   H3Y17037   0.848   4.095   9.965  2.3757 -0.5277 -1.3539
  153SAPE   C3417038   0.762   3.907   9.900  0.2625  0.0281 -0.0630
  153SAPE   H4X17039   0.725   3.976   9.821  2.6323  1.8599  0.3653
  153SAPE   H4Y17040   0.671   3.859   9.943  0.8084 -0.4826  0.5268
  153SAPE   C3517041   0.847   3.802   9.843 -0.3333  0.3310  0.0947
  153SAPE   H5X17042   0.873   3.734   9.927  1.5692 -0.9805 -1.4966
  153SAPE   H5Y17043   0.937   3.837   9.788  0.7965 -3.2837 -0.4710
  153SAPE   C3617044   0.761   3.730   9.736 -0.1665  0.4471  0.1721
  153SAPE   H6X17045   0.720   3.801   9.661 -0.8655 -0.6559 -0.4977
  153SAPE   H6Y17046   0.673   3.685   9.786 -0.5320  0.9140 -0.0440
  153SAPE   C3717047   0.827   3.611   9.662 -0.2540 -0.1884  0.8215
  153SAPE   H7X17048   0.860   3.544   9.744 -0.4833  0.2508  1.2814
  153SAPE   H7Y17049   0.918   3.640   9.606  0.1195 -1.6604  0.6489
  153SAPE   C3817050   0.730   3.538   9.574 -0.4221  0.3691 -0.0149
  153SAPE   H8X17051   0.653   3.501   9.645 -0.8782  2.5613  0.6562
  153SAPE   H8Y17052   0.779   3.453   9.521 -1.3899  1.3396 -2.5237
  153SAPE   C3917053   0.653   3.611   9.465  0.7251  0.0252 -0.9901
  153SAPE   H9X17054   0.589   3.695   9.498  1.3634  1.0325 -2.2826
  153SAPE   H9Y17055   0.583   3.530   9.436  1.1432 -0.5335 -0.4524
  153SAPE  C31017056   0.734   3.659   9.352  0.0053 -0.2493  0.1700
  153SAPE  H10X17057   0.804   3.578   9.321 -0.2606 -0.7245  0.7909
  153SAPE  H10Y17058   0.794   3.740   9.398 -1.3185  1.2142 -0.6295
  153SAPE  C31117059   0.646   3.709   9.238  0.2459  0.5038  0.6506
  153SAPE  H11X17060   0.579   3.791   9.272 -0.3666  1.2756 -2.3104
  153SAPE  H11Y17061   0.575   3.627   9.213  1.0314  0.5435 -1.8124
  153SAPE  C31217062   0.714   3.739   9.107  0.1061  0.2707  0.1685
  153SAPE  H12X17063   0.775   3.649   9.081  2.7647  2.5551 -1.8380
  153SAPE  H12Y17064   0.784   3.825   9.119  1.1740 -0.8377  2.1429
  153SAPE  C31317065   0.616   3.764   8.990 -0.3208 -0.1362 -0.3978
  153SAPE  H13X17066   0.529   3.814   9.038  0.0974 -0.4880  0.7484
  153SAPE  H13Y17067   0.574   3.662   8.973 -1.9121 -0.1924  3.3659
  153SAPE  C31417068   0.668   3.821   8.864 -0.6515 -0.6775 -0.0126
  153SAPE  H14X17069   0.717   3.917   8.891 -2.2190  0.6673 -1.8026
  153SAPE  H14Y17070   0.584   3.842   8.795  1.4126  0.9083 -2.1054
  153SAPE  C31517071   0.766   3.734   8.783 -0.2098 -0.3207 -0.3952
  153SAPE  H15X17072   0.731   3.628   8.775  0.1164 -0.2847 -2.3962
  153SAPE  H15Y17073   0.853   3.734   8.853 -1.4969  2.6639  1.3167
  153SAPE  C31617074   0.798   3.794   8.644  0.1587 -0.4763 -0.1382
  153SAPE  H16X17075   0.818   3.902   8.665  0.1467 -1.1385  3.5990
  153SAPE  H16Y17076   0.711   3.785   8.576 -1.0186  1.2192  1.1017
  153SAPE  C31717077   0.929   3.720   8.597  0.2019  0.6757 -0.0078
  153SAPE  H17X17078   0.888   3.623   8.562 -1.4981  0.1856  3.1352
  153SAPE  H17Y17079   0.992   3.699   8.686 -0.4758 -1.5889 -0.0242
  153SAPE  C31817080   1.011   3.799   8.497 -0.5955  0.3860  0.4346
  153SAPE  H18X17081   1.051   3.888   8.549 -0.9968  0.9245 -0.1818
  153SAPE  H18Y17082   0.942   3.823   8.413 -0.9341  0.0713  0.6187
  153SAPE  H18Z17083   1.091   3.731   8.461  0.0822  1.2470  0.3164
  154SAPE     N17084   2.446   4.384  10.743 -0.0817  0.3901  0.0917
  154SAPE   HN117085   2.495   4.435  10.820  1.2401 -0.9201  0.1390
  154SAPE   HN217086   2.496   4.413  10.656 -0.0075  0.4046  0.1384
  154SAPE   HN317087   2.357   4.435  10.730  0.1261  1.5504  2.8091
  154SAPE   C1217088   2.443   4.235  10.743 -0.4531 -0.2014  0.0968
  154SAPE  H12A17089   2.428   4.205  10.849  0.1890 -0.5926  0.0751
  154SAPE  H12B17090   2.545   4.211  10.706  0.5716  3.0572  0.7072
  154SAPE   C1117091   2.324   4.175  10.657  0.5490 -0.5253 -0.0438
  154SAPE  H11A17092   2.350   4.068  10.652  2.4134 -0.0414 -1.1696
  154SAPE  H11B17093   2.331   4.210  10.551 -0.6281 -1.6434 -0.4972
  154SAPE     P17094   2.057   4.124  10.702  0.3092 -0.3892  0.0069
  154SAPE   O1317095   2.085   3.983  10.746  0.1131  0.2571  0.3362
  154SAPE   O1417096   1.946   4.194  10.766 -0.0735 -0.0269  0.4012
  154SAPE   O1217097   2.194   4.203  10.719 -0.0466  0.1612 -0.0112
  154SAPE   O1117098   2.039   4.135  10.548  0.1436 -0.2692  0.1674
  154SAPE    C117099   2.011   4.026  10.461 -0.8377  0.0866  0.1361
  154SAPE    HA17100   1.945   3.955  10.514 -0.5245 -1.4679 -1.5022
  154SAPE    HB17101   1.956   4.059  10.370 -0.4982  0.5969  0.1141
  154SAPE    C217102   2.141   3.949  10.411 -0.6007 -0.8324 -1.1730
  154SAPE    HS17103   2.202   3.923  10.500  1.4462 -0.2418 -2.3822
  154SAPE   O2117104   2.210   4.028  10.312 -0.2666  0.5145 -0.3051
  154SAPE   C2117105   2.329   3.998  10.297 -0.1731 -0.1983 -0.3664
  154SAPE   O2217106   2.404   3.925  10.363 -0.2551 -0.0607  0.6907
  154SAPE   C2217107   2.382   4.081  10.173 -0.6207 -0.0166 -0.4989
  154SAPE   H2R17108   2.482   4.128  10.189 -0.4196  0.1260 -2.0591
  154SAPE   H2S17109   2.402   4.011  10.089  1.4377  0.0614 -0.0996
  154SAPE    C317110   2.097   3.817  10.344  0.4276  0.2656  0.8390
  154SAPE    HX17111   2.064   3.738  10.415 -2.6061  0.4182 -0.3461
  154SAPE    HY17112   2.191   3.772  10.305 -1.1397 -2.6067  0.2152
  154SAPE   O3117113   1.994   3.823  10.241  0.0662 -0.2395  0.1506
  154SAPE   C3117114   2.037   3.833  10.120 -0.0133 -0.8981  0.1120
  154SAPE   O3217115   2.156   3.831  10.089 -0.3184  0.2362  0.0514
  154SAPE   C3217116   1.917   3.861  10.025  0.2743 -0.7234  0.0732
  154SAPE   H2X17117   1.904   3.972  10.028 -1.7104 -0.9586  0.3941
  154SAPE   H2Y17118   1.829   3.808  10.065  0.8350 -1.4195  0.3942
  154SAPE   C2317119   2.300   4.203  10.129  0.3674  0.0187  0.4168
  154SAPE   H3R17120   2.357   4.270  10.061  0.2813  0.4672  0.7829
  154SAPE   H3S17121   2.269   4.268  10.214  1.2979 -0.4446  1.1196
  154SAPE   C2417122   2.172   4.154  10.046 -0.1259  0.0845  0.3679
  154SAPE   H4R17123   2.112   4.084  10.109  0.7247 -0.8771  0.1108
  154SAPE   H4S17124   2.202   4.090   9.961 -0.0819 -0.8278  1.0529
  154SAPE   C2517125   2.090   4.279  10.005  0.2341 -0.1963 -0.3168
  154SAPE   H5R17126   2.085   4.360  10.079  1.8757  2.7551 -3.3237
  154SAPE   C2617127   2.049   4.304   9.876 -0.4976 -0.0493  0.1074
  154SAPE   H6R17128   1.999   4.400   9.855 -1.3211 -0.9500 -2.1476
  154SAPE   C2717129   2.069   4.206   9.761  0.2501 -0.1845 -0.5317
  154SAPE   H7R17130   1.986   4.226   9.689 -0.6269  0.4529  0.6445
  154SAPE   H7S17131   2.047   4.101   9.789 -0.2648  0.3075  0.9666
  154SAPE   C2817132   2.200   4.216   9.687  0.0187  0.6216 -0.4157
  154SAPE   H8R17133   2.244   4.317   9.692 -0.9569  1.0816 -1.0522
  154SAPE   C2917134   2.244   4.128   9.597  0.2295  0.5343 -0.1677
  154SAPE   H9R17135   2.341   4.136   9.547 -0.1355 -2.0182 -1.3329
  154SAPE  C21017136   2.169   4.003   9.560  0.0358  0.3278  0.0040
  154SAPE  H10R17137   2.067   4.022   9.520 -0.0245 -0.1653 -0.0818
  154SAPE  H10S17138   2.160   3.936   9.649 -3.1666  1.2506  0.4307
  154SAPE  C21117139   2.238   3.926   9.445 -0.1801  0.1717 -0.6234
  154SAPE  H11R17140   2.342   3.952   9.420 -0.5500  0.2965 -2.0973
  154SAPE  C21217141   2.185   3.835   9.365 -0.6906  0.3590 -0.5470
  154SAPE  H12R17142   2.257   3.773   9.310  0.0415  0.6711  0.0565
  154SAPE  C21317143   2.048   3.773   9.380  0.1418 -0.0207  0.4559
  154SAPE  H13R17144   1.967   3.836   9.338  0.6477  0.1090 -0.3223
  154SAPE  H13S17145   2.029   3.754   9.488  0.6097  0.5492  0.6402
  154SAPE  C21417146   2.043   3.630   9.322  0.5037  0.3969 -0.0824
  154SAPE  H14R17147   2.030   3.551   9.397  0.9531  0.3772 -0.0201
  154SAPE  C21517148   2.062   3.599   9.193  0.0868  0.2690  0.0342
  154SAPE  H15R17149   2.056   3.493   9.166  1.2381  0.6595 -1.8096
  154SAPE  C21617150   2.088   3.689   9.081  0.0164 -0.3920  0.5566
  154SAPE  H16R17151   2.138   3.781   9.120  0.8712  0.7341 -2.9939
  154SAPE  H16S17152   1.994   3.724   9.033 -0.7915 -0.1176  2.2864
  154SAPE  C21717153   2.192   3.639   8.968 -0.9443  0.8123 -0.5275
  154SAPE  H17R17154   2.174   3.537   8.927  1.5084 -0.9476  2.4753
  154SAPE  H17S17155   2.286   3.606   9.018 -0.4381  0.8103 -1.4705
  154SAPE  C21817156   2.219   3.737   8.854  0.6287  0.4776 -0.1330
  154SAPE  H18R17157   2.285   3.817   8.893  0.2746  0.2937  0.8627
  154SAPE  H18S17158   2.123   3.785   8.824 -0.6985 -2.0113 -0.0203
  154SAPE  C21917159   2.276   3.677   8.724  0.5573  0.0359 -0.3508
  154SAPE  H19R17160   2.266   3.752   8.643  1.2413  0.6217  0.0949
  154SAPE  H19S17161   2.200   3.601   8.697 -1.0117  1.3734  0.1968
  154SAPE  C22017162   2.417   3.621   8.733  0.7023  0.3786  0.6329
  154SAPE  H20R17163   2.449   3.558   8.647  2.6346  1.6093  0.4154
  154SAPE  H20S17164   2.451   3.569   8.825 -0.0413 -2.1657 -0.5048
  154SAPE  H20T17165   2.480   3.711   8.719 -0.3893  1.2148  1.0489
  154SAPE   C3317166   1.949   3.818   9.883 -0.0759 -0.5931 -0.2316
  154SAPE   H3X17167   1.964   3.708   9.879 -3.1282 -1.0855  0.4947
  154SAPE   H3Y17168   2.045   3.861   9.848 -0.3549  0.0468 -0.2178
  154SAPE   C3417169   1.836   3.835   9.784 -0.0963  0.3780  0.7301
  154SAPE   H4X17170   1.768   3.748   9.794 -1.3443  1.4469  1.8235
  154SAPE   H4Y17171   1.879   3.833   9.682  0.1456 -0.6785  0.8531
  154SAPE   C3517172   1.748   3.958   9.803 -0.3302 -0.0971 -0.3611
  154SAPE   H5X17173   1.805   4.053   9.795 -1.5828  0.6789 -0.2426
  154SAPE   H5Y17174   1.699   3.964   9.903 -2.6442  0.3823 -1.4899
  154SAPE   C3617175   1.637   3.983   9.709  0.6034  0.4113 -0.3321
  154SAPE   H6X17176   1.558   4.052   9.745  2.0231  2.4571 -1.0257
  154SAPE   H6Y17177   1.581   3.891   9.686 -0.6030  0.4671  2.1987
  154SAPE   C3717178   1.683   4.034   9.572 -0.4774 -0.1414 -0.0022
  154SAPE   H7X17179   1.714   3.947   9.511 -2.2100  0.1310 -1.3054
  154SAPE   H7Y17180   1.778   4.087   9.589 -0.7246 -0.3215  2.0903
  154SAPE   C3817181   1.582   4.113   9.494  0.6135 -0.3692  0.3118
  154SAPE   H8X17182   1.546   4.193   9.562 -0.3514  1.5182 -2.3516
  154SAPE   H8Y17183   1.496   4.045   9.475  1.5960 -1.9631  1.4058
  154SAPE   C3917184   1.630   4.175   9.364  0.0864  0.5946 -0.2702
  154SAPE   H9X17185   1.709   4.250   9.386  0.6421  0.0890 -0.5225
  154SAPE   H9Y17186   1.540   4.208   9.307 -0.6662 -2.1097 -0.7279
  154SAPE  C31017187   1.693   4.078   9.259 -0.0734 -0.5496  0.0432
  154SAPE  H10X17188   1.631   3.986   9.263  1.3698 -1.5727 -0.6490
  154SAPE  H10Y17189   1.793   4.043   9.293 -0.0985 -0.2816  0.3922
  154SAPE  C31117190   1.709   4.134   9.117 -0.0429  0.2755  0.8425
  154SAPE  H11X17191   1.609   4.152   9.073 -0.2688  0.0534  1.2567
  154SAPE  H11Y17192   1.765   4.058   9.059 -1.0125  1.0443 -1.1452
  154SAPE  C31217193   1.795   4.263   9.118  1.1306  0.0472  0.2152
  154SAPE  H12X17194   1.731   4.345   9.157  1.1883  0.3239 -0.2681
  154SAPE  H12Y17195   1.815   4.294   9.013  1.1933 -0.5657  0.0486
  154SAPE  C31317196   1.938   4.251   9.185  1.0411  0.5120 -0.1233
  154SAPE  H13X17197   1.922   4.204   9.285  2.1509  0.2982 -0.0424
  154SAPE  H13Y17198   1.988   4.349   9.199  0.9845  0.5380 -0.1015
  154SAPE  C31417199   2.030   4.166   9.105  0.3383  0.5230 -0.2188
  154SAPE  H14X17200   2.025   4.175   8.994 -1.6040 -0.8448 -0.2729
  154SAPE  H14Y17201   2.003   4.063   9.138  0.7454  1.2932  2.6838
  154SAPE  C31517202   2.179   4.198   9.122  0.0226 -0.3639 -0.1215
  154SAPE  H15X17203   2.218   4.200   9.226  2.2539 -0.3738 -0.9193
  154SAPE  H15Y17204   2.192   4.299   9.078  1.1494 -0.2806  0.3658
  154SAPE  C31617205   2.286   4.108   9.054 -0.2386 -0.0936 -0.5639
  154SAPE  H16X17206   2.281   4.105   8.943  0.3823  0.9682 -0.6260
  154SAPE  H16Y17207   2.272   4.005   9.094 -0.0587  0.7828  1.8370
  154SAPE  C31717208   2.427   4.157   9.077  0.0738 -0.0557  0.9062
  154SAPE  H17X17209   2.420   4.249   9.139  2.6407  1.4291 -0.9138
  154SAPE  H17Y17210   2.480   4.187   8.984  0.7283  0.3949  1.4150
  154SAPE  C31817211   2.511   4.057   9.149 -0.2311 -0.2841 -0.2914
  154SAPE  H18X17212   2.612   4.097   9.170 -0.4466  0.1595 -0.0808
  154SAPE  H18Y17213   2.525   3.960   9.099 -0.3840 -0.6696  0.4028
  154SAPE  H18Z17214   2.462   4.026   9.244  0.3546  3.3402  1.3012
  155SAPE     N17215   2.466   5.306  10.946 -0.3050  0.1035 -0.4901
  155SAPE   HN117216   2.517   5.321  10.857 -0.9734 -1.9385 -1.2538
  155SAPE   HN217217   2.460   5.205  10.968  0.0397  0.1887  0.0154
  155SAPE   HN317218   2.368   5.337  10.928 -1.2762 -1.8610  1.1282
  155SAPE   C1217219   2.531   5.371  11.069  0.2954 -0.4426 -0.0012
  155SAPE  H12A17220   2.553   5.284  11.135  0.6473 -0.2692  0.1085
  155SAPE  H12B17221   2.457   5.431  11.126 -0.3596 -1.4840  0.2592
  155SAPE   C1117222   2.656   5.447  11.026 -0.4640  0.6564 -0.6467
  155SAPE  H11A17223   2.734   5.377  10.989 -0.2310 -0.5360  1.9760
  155SAPE  H11B17224   2.713   5.490  11.112 -0.7677 -1.4894  0.6731
  155SAPE     P17225   2.586   5.684  10.952  0.5363  0.1447 -0.3622
  155SAPE   O1317226   2.567   5.695  11.098  0.1720 -0.1253  0.0637
  155SAPE   O1417227   2.680   5.779  10.886 -0.1549  0.0104 -0.5419
  155SAPE   O1217228   2.634   5.541  10.919  0.0926  0.1749 -0.2436
  155SAPE   O1117229   2.446   5.695  10.876 -0.0034 -0.5054 -0.9851
  155SAPE    C117230   2.407   5.613  10.769  0.0803  0.8011  0.0160
  155SAPE    HA17231   2.416   5.507  10.799  0.9218  0.5177 -1.2136
  155SAPE    HB17232   2.301   5.630  10.740  0.8739  0.9116 -3.0203
  155SAPE    C217233   2.479   5.634  10.629  0.1656 -0.1380 -0.1649
  155SAPE    HS17234   2.577   5.581  10.633 -0.9052 -2.0469  1.5705
  155SAPE   O2117235   2.481   5.779  10.598  0.0032 -0.5245  0.2536
  155SAPE   C2117236   2.595   5.814  10.537 -0.2031  0.2011 -0.7474
  155SAPE   O2217237   2.691   5.744  10.518  0.0375 -0.3784  0.2685
  155SAPE   C2217238   2.566   5.945  10.475 -0.1053  0.3610  0.3402
  155SAPE   H2R17239   2.481   5.921  10.408  0.5351  0.3596 -0.4701
  155SAPE   H2S17240   2.541   6.023  10.551  2.4338  0.5643  1.0396
  155SAPE    C317241   2.409   5.550  10.519  0.2473 -0.9088  0.2853
  155SAPE    HX17242   2.306   5.591  10.505  0.8112  1.1328  2.0315
  155SAPE    HY17243   2.381   5.446  10.546 -1.3832 -0.4359  0.4872
  155SAPE   O3117244   2.486   5.549  10.398  0.5532  0.6339  0.1706
  155SAPE   C3117245   2.465   5.642  10.307  0.0090 -0.2773 -0.6076
  155SAPE   O3217246   2.379   5.731  10.329 -0.1365 -0.3434  0.2869
  155SAPE   C3217247   2.550   5.645  10.184 -0.5839 -0.1561 -0.1923
  155SAPE   H2X17248   2.628   5.566  10.193  0.5778  0.6002 -2.8357
  155SAPE   H2Y17249   2.601   5.744  10.188 -0.1258 -0.2856 -2.1577
  155SAPE   C2317250   2.680   6.000  10.397  0.2499 -0.0933 -0.6864
  155SAPE   H3R17251   2.707   5.945  10.304  1.3476 -0.0454 -0.3949
  155SAPE   H3S17252   2.774   5.992  10.455  0.0836 -2.1868 -0.6734
  155SAPE   C2417253   2.663   6.158  10.369 -0.3994 -0.0085 -0.3854
  155SAPE   H4R17254   2.664   6.220  10.461  4.2330  1.2373 -1.1292
  155SAPE   H4S17255   2.559   6.171  10.331 -0.8916  0.0155  0.9625
  155SAPE   C2517256   2.760   6.216  10.267  0.1579  1.1617  0.3691
  155SAPE   H5R17257   2.844   6.268  10.316  1.6360 -1.0099  0.2125
  155SAPE   C2617258   2.764   6.193  10.136  0.8423 -0.2041 -0.2768
  155SAPE   H6R17259   2.839   6.239  10.070 -0.0429 -0.9488 -1.8117
  155SAPE   C2717260   2.667   6.109  10.058  0.1915  0.0252 -0.0692
  155SAPE   H7R17261   2.592   6.060  10.122  0.8073  0.3271  0.8909
  155SAPE   H7S17262   2.720   6.020  10.017 -1.5761 -1.4928  0.8887
  155SAPE   C2817263   2.594   6.194   9.947 -0.6157  0.2538  0.1989
  155SAPE   H8R17264   2.620   6.301   9.938 -0.2981  0.2984  1.5370
  155SAPE   C2917265   2.494   6.141   9.872 -0.6873  0.1967 -0.1458
  155SAPE   H9R17266   2.435   6.203   9.802  1.9986  1.3258 -1.4601
  155SAPE  C21017267   2.440   5.992   9.885  0.3788 -0.9375 -0.7181
  155SAPE  H10R17268   2.397   5.965   9.984 -0.4598  0.5659 -0.6680
  155SAPE  H10S17269   2.528   5.924   9.879  1.8147  1.0773 -2.8548
  155SAPE  C21117270   2.335   5.944   9.785  0.3786 -0.4716  0.4860
  155SAPE  H11R17271   2.231   5.932   9.817  0.9707 -0.6821  2.4354
  155SAPE  C21217272   2.365   5.917   9.652 -0.3317  1.3352  0.0134
  155SAPE  H12R17273   2.280   5.881   9.592 -1.1702  0.2530  1.8165
  155SAPE  C21317274   2.501   5.926   9.590  0.0363 -0.6477  0.4264
  155SAPE  H13R17275   2.559   5.832   9.591  0.7049 -0.2573 -0.6244
  155SAPE  H13S17276   2.572   5.984   9.654  0.3792 -0.4515 -0.1241
  155SAPE  C21417277   2.490   5.983   9.455 -0.0347  0.4297 -0.2367
  155SAPE  H14R17278   2.419   6.065   9.438  1.0359  1.2395 -0.8890
  155SAPE  C21517279   2.549   5.930   9.347 -0.2067  0.7707 -0.5259
  155SAPE  H15R17280   2.533   5.970   9.246  1.2721  1.9827 -0.3032
  155SAPE  C21617281   2.642   5.804   9.351  0.0737 -0.3383 -0.4328
  155SAPE  H16R17282   2.714   5.812   9.435  0.8831  0.2414 -1.1816
  155SAPE  H16S17283   2.716   5.808   9.268 -0.5684  1.4934 -0.9280
  155SAPE  C21717284   2.577   5.667   9.365  0.1578  0.3565  0.5337
  155SAPE  H17R17285   2.523   5.663   9.462  0.9863 -1.0064  0.9438
  155SAPE  H17S17286   2.655   5.590   9.381 -1.0401 -0.7836  1.0211
  155SAPE  C21817287   2.488   5.630   9.241 -0.5671 -0.2643 -0.5909
  155SAPE  H18R17288   2.487   5.519   9.241 -0.1924 -0.2860 -2.0319
  155SAPE  H18S17289   2.536   5.670   9.149 -0.7618 -0.3163 -0.7159
  155SAPE  C21917290   2.343   5.672   9.246  0.1824  0.3738 -0.3227
  155SAPE  H19R17291   2.338   5.783   9.252 -0.9483  0.3537 -0.9278
  155SAPE  H19S17292   2.291   5.620   9.329 -0.3694  0.1657 -0.7987
  155SAPE  C22017293   2.265   5.635   9.117 -0.4497 -0.2983 -0.2118
  155SAPE  H20R17294   2.229   5.532   9.136 -2.2231  0.3539  0.0162
  155SAPE  H20S17295   2.336   5.642   9.031  0.7761 -2.6251  0.5616
  155SAPE  H20T17296   2.166   5.684   9.102  0.3379  0.2964 -4.0694
  155SAPE   C3317297   2.466   5.615  10.057  0.5296 -0.0446  0.4115
  155SAPE   H3X17298   2.395   5.700  10.045 -0.6964 -1.3493 -1.6993
  155SAPE   H3Y17299   2.400   5.526  10.066  1.1615 -0.7436 -1.7311
  155SAPE   C3417300   2.548   5.617   9.931 -0.6854 -0.4059  0.5364
  155SAPE   H4X17301   2.618   5.702   9.949 -0.1336 -0.5365 -0.9689
  155SAPE   H4Y17302   2.497   5.637   9.835 -1.6004 -0.1033  1.0863
  155SAPE   C3517303   2.643   5.488   9.915  0.3073  0.5700 -0.1539
  155SAPE   H5X17304   2.583   5.405   9.959 -0.8135  0.6575 -1.4824
  155SAPE   H5Y17305   2.738   5.495   9.974 -1.7159 -2.1562  3.6299
  155SAPE   C3617306   2.668   5.450   9.769 -0.0828  0.4986  0.7692
  155SAPE   H6X17307   2.723   5.530   9.714 -0.1208  0.6867  1.0034
  155SAPE   H6Y17308   2.578   5.439   9.706  0.4690  0.4621 -0.0270
  155SAPE   C3717309   2.735   5.315   9.753 -0.3062 -0.0902  0.3451
  155SAPE   H7X17310   2.660   5.244   9.794  2.1441 -2.4053  0.9991
  155SAPE   H7Y17311   2.818   5.306   9.827 -0.9029  0.8176  1.1422
  155SAPE   C3817312   2.799   5.287   9.614  0.2973 -0.0523  0.2234
  155SAPE   H8X17313   2.846   5.187   9.627  0.9251 -0.0801 -2.0129
  155SAPE   H8Y17314   2.881   5.360   9.598  1.7881 -2.2218 -2.4032
  155SAPE   C3917315   2.691   5.282   9.500 -0.3412  0.1836 -0.1290
  155SAPE   H9X17316   2.678   5.390   9.479  0.4886  0.3676  0.2948
  155SAPE   H9Y17317   2.596   5.240   9.542 -0.1224  0.1131  0.3018
  155SAPE  C31017318   2.731   5.217   9.370  0.2446  0.4376  0.0484
  155SAPE  H10X17319   2.787   5.125   9.397 -0.4226  0.8477  2.9921
  155SAPE  H10Y17320   2.804   5.285   9.321  1.7899 -1.3297 -0.1215
  155SAPE  C31117321   2.616   5.176   9.287 -0.0559 -0.2096  0.6446
  155SAPE  H11X17322   2.560   5.262   9.246 -0.6427 -0.5833  0.6588
  155SAPE  H11Y17323   2.543   5.126   9.354 -0.1793  0.1273  0.7616
  155SAPE  C31217324   2.653   5.079   9.172 -0.2703 -0.3000 -0.1926
  155SAPE  H12X17325   2.720   4.996   9.202 -0.4778 -0.1718  0.6315
  155SAPE  H12Y17326   2.707   5.140   9.097 -0.5748 -0.7143 -0.7550
  155SAPE  C31317327   2.540   5.029   9.086 -0.2924  0.0005 -0.5268
  155SAPE  H13X17328   2.456   5.101   9.094  0.4406  0.9132 -1.0827
  155SAPE  H13Y17329   2.495   4.937   9.131 -0.4704  0.7911  0.9633
  155SAPE  C31417330   2.575   4.991   8.943  0.9904 -0.2416  0.8301
  155SAPE  H14X17331   2.648   4.909   8.928  0.0994 -1.1561  1.4953
  155SAPE  H14Y17332   2.620   5.084   8.901  1.1509 -0.2988  0.8745
  155SAPE  C31517333   2.448   4.978   8.859 -0.6748 -0.3395 -0.3900
  155SAPE  H15X17334   2.372   5.055   8.884 -0.4061 -0.2549  0.1838
  155SAPE  H15Y17335   2.401   4.884   8.895 -2.4228  1.8454  3.3753
  155SAPE  C31617336   2.477   4.954   8.706 -0.4712  0.3254 -0.6664
  155SAPE  H16X17337   2.549   4.871   8.691  0.2554  0.8304  0.0371
  155SAPE  H16Y17338   2.535   5.035   8.657 -0.0458 -0.6003 -1.7387
  155SAPE  C31717339   2.354   4.939   8.617  0.9428  0.6513 -0.3064
  155SAPE  H17X17340   2.285   4.861   8.656 -0.0508 -0.2843 -3.6936
  155SAPE  H17Y17341   2.387   4.890   8.523 -2.4102 -0.4144 -1.0078
  155SAPE  C31817342   2.268   5.062   8.587  0.1417 -0.2896  0.2127
  155SAPE  H18X17343   2.325   5.139   8.530 -1.3034  3.3291  3.4341
  155SAPE  H18Y17344   2.258   5.113   8.685  1.6606 -1.4729  1.0037
  155SAPE  H18Z17345   2.166   5.036   8.553  0.4012 -2.0549  0.7543
  156SAPE     N17346   0.326   2.738  11.050 -0.1634  0.0265  0.1302
  156SAPE   HN117347   0.418   2.759  11.092  0.0918  1.7148 -1.2159
  156SAPE   HN217348   0.264   2.697  11.122 -1.5056  0.7091 -0.6101
  156SAPE   HN317349   0.343   2.660  10.983  0.1370 -1.0297  1.4375
  156SAPE   C1217350   0.269   2.857  10.978  0.4982  0.0799  0.5572
  156SAPE  H12A17351   0.272   2.940  11.051 -1.1312  0.1829  0.5317
  156SAPE  H12B17352   0.164   2.827  10.953  0.0988  0.4160  1.8119
  156SAPE   C1117353   0.353   2.889  10.849  0.0962  0.4455  0.5311
  156SAPE  H11A17354   0.446   2.940  10.882 -0.5665  1.8100  0.3597
  156SAPE  H11B17355   0.304   2.967  10.786 -2.2027 -1.2552  0.1579
  156SAPE     P17356   0.303   2.730  10.646  0.0463  0.2705  0.1503
  156SAPE   O1317357   0.376   2.618  10.582 -0.0674  1.0036 -0.3596
  156SAPE   O1417358   0.166   2.711  10.688  0.2258 -0.1050 -0.2966
  156SAPE   O1217359   0.380   2.776  10.772 -0.0234  0.9971 -0.5968
  156SAPE   O1117360   0.312   2.858  10.553 -0.0037 -0.4604  0.3022
  156SAPE    C117361   0.435   2.893  10.488 -0.4102 -0.3830  0.2753
  156SAPE    HA17362   0.498   2.938  10.568 -2.5831 -1.5294  2.6907
  156SAPE    HB17363   0.483   2.804  10.444 -0.5931  0.2694 -1.2596
  156SAPE    C217364   0.413   3.007  10.392  0.1573 -0.4122  0.6003
  156SAPE    HS17365   0.376   3.088  10.458 -0.5676 -1.5422  1.5942
  156SAPE   O2117366   0.326   2.976  10.283  0.4727  0.1878 -0.0104
  156SAPE   C2117367   0.215   3.045  10.277  0.1421  0.1993  0.2559
  156SAPE   O2217368   0.185   3.149  10.341  0.0008 -0.0066  0.5488
  156SAPE   C2217369   0.134   2.981  10.168  0.1353  0.8201  0.4025
  156SAPE   H2R17370   0.195   2.946  10.083  1.0723  3.7666 -0.1886
  156SAPE   H2S17371   0.073   2.894  10.202  0.3036  0.1714 -0.9337
  156SAPE    C317372   0.542   3.056  10.335 -0.1598 -0.2431 -0.6235
  156SAPE    HX17373   0.606   2.967  10.353 -0.5712 -0.8811 -2.2620
  156SAPE    HY17374   0.587   3.132  10.402 -2.0473  0.6240 -0.3335
  156SAPE   O3117375   0.538   3.103  10.201  0.3105 -0.0190  0.0785
  156SAPE   C3117376   0.640   3.075  10.122  0.5554  0.1117 -0.4536
  156SAPE   O3217377   0.735   3.007  10.158 -0.5531  0.3572 -0.0522
  156SAPE   C3217378   0.620   3.131   9.982 -0.3482  0.7855  0.2161
  156SAPE   H2X17379   0.617   3.242   9.992  2.0263  1.0178 -1.2517
  156SAPE   H2Y17380   0.530   3.091   9.930 -0.0702 -0.3257  0.5786
  156SAPE   C2317381   0.035   3.076  10.099  0.3657  0.4297 -0.0031
  156SAPE   H3R17382   0.097   3.151  10.044  0.1685  0.5322 -0.0865
  156SAPE   H3S17383  -0.023   3.129  10.177 -0.1484 -2.7092  1.8201
  156SAPE   C2417384  -0.061   3.008   9.999  0.5115  0.0391 -0.0438
  156SAPE   H4R17385  -0.140   2.943  10.041  1.4102 -0.4230  0.9605
  156SAPE   H4S17386   0.005   2.927   9.959 -0.7023  0.2364 -2.5730
  156SAPE   C2517387  -0.103   3.106   9.890 -0.3961 -0.4278  0.7242
  156SAPE   H5R17388  -0.152   3.197   9.927 -1.0636 -0.2637 -0.5544
  156SAPE   C2617389  -0.098   3.092   9.753 -0.1399  0.0021 -0.0309
  156SAPE   H6R17390  -0.135   3.177   9.693 -0.9466 -0.2815  0.0529
  156SAPE   C2717391  -0.044   2.974   9.674  0.5255  0.6333 -0.3514
  156SAPE   H7R17392   0.004   2.907   9.749 -1.0560  1.5200  1.4975
  156SAPE   H7S17393   0.040   3.004   9.608 -0.4834 -1.3209 -2.5740
  156SAPE   C2817394  -0.143   2.890   9.606  0.3695  0.5480  0.4304
  156SAPE   H8R17395  -0.197   2.820   9.673 -0.7534  1.0620  0.0808
  156SAPE   C2917396  -0.187   2.896   9.483 -0.4736  0.3252  0.5724
  156SAPE   H9R17397  -0.278   2.839   9.457 -0.9903  1.1582  0.5187
  156SAPE  C21017398  -0.137   2.984   9.375  0.3017 -0.5476  0.2593
  156SAPE  H10R17399  -0.083   3.072   9.415 -1.3461  1.6352 -2.1820
  156SAPE  H10S17400  -0.224   3.029   9.322  1.3053 -0.5649 -1.4544
  156SAPE  C21117401  -0.040   2.914   9.287 -0.7884 -0.5458 -0.6854
  156SAPE  H11R17402   0.048   2.876   9.340  0.8941  3.6673 -0.2967
  156SAPE  C21217403  -0.036   2.911   9.153  0.7988  0.5650 -0.4792
  156SAPE  H12R17404   0.048   2.860   9.105  0.9296  0.4218 -0.0944
  156SAPE  C21317405  -0.123   2.979   9.052 -0.2146  0.1783 -0.6859
  156SAPE  H13R17406  -0.063   3.064   9.011 -0.2194 -0.6383 -2.4201
  156SAPE  H13S17407  -0.209   3.017   9.111 -0.1412  0.4292 -0.7406
  156SAPE  C21417408  -0.186   2.885   8.948  0.5712 -0.3602 -0.0398
  156SAPE  H14R17409  -0.283   2.841   8.974  0.8641 -0.1458  1.4386
  156SAPE  C21517410  -0.154   2.860   8.816  0.1424  0.4122  0.6176
  156SAPE  H15R17411  -0.224   2.792   8.765 -0.0586  0.9389  0.1824
  156SAPE  C21617412  -0.034   2.917   8.742 -0.5105  0.5550  0.1335
  156SAPE  H16R17413   0.021   2.841   8.683  0.6169  2.2250 -1.0296
  156SAPE  H16S17414   0.038   2.956   8.817  2.2498  0.0658 -2.2097
  156SAPE  C21717415  -0.068   3.036   8.655 -0.6506 -0.0938  0.6171
  156SAPE  H17R17416   0.025   3.086   8.622  0.0471 -0.1044  2.4800
  156SAPE  H17S17417  -0.117   3.125   8.701 -1.6115  0.5772 -1.6245
  156SAPE  C21817418  -0.140   3.008   8.521 -1.1299  0.2873  1.0535
  156SAPE  H18R17419  -0.162   3.104   8.469 -0.2175 -0.1763 -0.2186
  156SAPE  H18S17420  -0.243   2.977   8.551 -2.0211  1.4805 -0.6630
  156SAPE  C21917421  -0.070   2.902   8.432 -0.0295 -0.2028  0.9315
  156SAPE  H19R17422  -0.059   2.810   8.492 -2.3008  0.3061  2.2028
  156SAPE  H19S17423   0.027   2.948   8.401 -0.1526  0.0326  0.8886
  156SAPE  C22017424  -0.165   2.862   8.313  0.0888  0.0057  0.2549
  156SAPE  H20R17425  -0.194   2.947   8.247  2.0937  1.4506  1.1447
  156SAPE  H20S17426  -0.259   2.815   8.348  0.5301 -1.0166  0.0640
  156SAPE  H20T17427  -0.117   2.777   8.261  0.1239  0.8530 -1.1258
  156SAPE   C3317428   0.738   3.095   9.897  0.0392  0.3948 -0.0328
  156SAPE   H3X17429   0.739   2.984   9.889 -1.6637  0.4033 -0.4578
  156SAPE   H3Y17430   0.838   3.124   9.935 -0.5097  1.0796  0.9098
  156SAPE   C3417431   0.727   3.173   9.764 -0.7559 -0.0925  0.0328
  156SAPE   H4X17432   0.804   3.252   9.762 -0.2809 -0.5636 -1.8275
  156SAPE   H4Y17433   0.637   3.238   9.770  0.8962  2.0450  2.4818
  156SAPE   C3517434   0.707   3.097   9.633 -0.1202 -0.0928  0.2131
  156SAPE   H5X17435   0.601   3.061   9.636 -0.7245  1.6033 -0.0948
  156SAPE   H5Y17436   0.780   3.014   9.628  2.1857  1.7912  1.4234
  156SAPE   C3617437   0.727   3.188   9.506 -0.2935  0.5916  0.5880
  156SAPE   H6X17438   0.831   3.221   9.529  0.2602 -1.8469  1.7566
  156SAPE   H6Y17439   0.651   3.269   9.506 -3.4140 -2.2288  0.3265
  156SAPE   C3717440   0.718   3.119   9.367 -0.2226 -0.1735 -1.2292
  156SAPE   H7X17441   0.614   3.087   9.344  0.0507 -1.1577 -1.1162
  156SAPE   H7Y17442   0.780   3.028   9.350 -1.8260 -1.6382  0.5611
  156SAPE   C3817443   0.745   3.227   9.259 -0.1265  0.0293  0.3248
  156SAPE   H8X17444   0.856   3.234   9.250 -0.0899 -0.7966  0.0860
  156SAPE   H8Y17445   0.712   3.329   9.289  0.7735  0.2333  0.6682
  156SAPE   C3917446   0.697   3.171   9.124 -0.1065 -0.0078  0.9772
  156SAPE   H9X17447   0.599   3.122   9.142 -1.1491  1.8485  0.4960
  156SAPE   H9Y17448   0.767   3.094   9.086 -0.1322  1.0280 -1.2269
  156SAPE  C31017449   0.687   3.275   9.010 -0.2401 -0.5866 -0.0314
  156SAPE  H10X17450   0.777   3.339   9.005 -1.8445  1.6246 -2.1852
  156SAPE  H10Y17451   0.602   3.342   9.036  0.3474  0.1730 -0.0657
  156SAPE  C31117452   0.652   3.209   8.875 -0.4818  0.3217 -0.2684
  156SAPE  H11X17453   0.567   3.139   8.886 -1.4379  1.2507 -1.6125
  156SAPE  H11Y17454   0.729   3.135   8.843 -1.1416 -0.0748 -0.9595
  156SAPE  C31217455   0.617   3.313   8.764  0.6135 -0.1964 -1.0609
  156SAPE  H12X17456   0.712   3.358   8.729  1.2304 -0.5055  0.1994
  156SAPE  H12Y17457   0.567   3.395   8.821 -1.7474 -2.2262 -0.1287
  156SAPE  C31317458   0.517   3.276   8.656 -0.0094 -0.5182 -0.2792
  156SAPE  H13X17459   0.464   3.369   8.627  1.0125  0.7589  1.8051
  156SAPE  H13Y17460   0.444   3.221   8.718 -0.6069  1.9898  1.3040
  156SAPE  C31417461   0.573   3.183   8.543 -0.5547 -0.4839 -0.0117
  156SAPE  H14X17462   0.622   3.086   8.568 -2.4922 -1.3946  0.4011
  156SAPE  H14Y17463   0.655   3.243   8.498 -1.0007  0.9761  1.0729
  156SAPE  C31517464   0.467   3.177   8.427 -0.0389  0.1197  0.1467
  156SAPE  H15X17465   0.375   3.223   8.468  1.0637 -0.8899  3.9544
  156SAPE  H15Y17466   0.453   3.070   8.399  2.2107 -0.3627  0.7669
  156SAPE  C31617467   0.510   3.253   8.303  0.3290 -0.2380  0.2762
  156SAPE  H16X17468   0.588   3.189   8.256  2.1993 -1.3727  4.6743
  156SAPE  H16Y17469   0.547   3.353   8.333  0.1923 -0.1259  0.0689
  156SAPE  C31717470   0.403   3.259   8.199 -0.1334 -0.6795  0.1626
  156SAPE  H17X17471   0.367   3.156   8.177  2.1769 -1.1295 -1.7147
  156SAPE  H17Y17472   0.447   3.291   8.102 -1.0675  0.4438  0.0948
  156SAPE  C31817473   0.279   3.340   8.225 -0.3358  0.2705  0.1578
  156SAPE  H18X17474   0.323   3.439   8.248  1.4820 -0.3147 -0.6900
  156SAPE  H18Y17475   0.223   3.299   8.312 -0.0830 -1.0105 -0.2653
  156SAPE  H18Z17476   0.216   3.340   8.133  1.7282  3.9061 -1.3404
  157SAPE     N17477   5.716   3.645  10.880 -0.4265  0.7483  0.1667
  157SAPE   HN117478   5.679   3.679  10.971 -1.1539  0.4398 -0.0089
  157SAPE   HN217479   5.669   3.554  10.858  1.1602  0.1813 -0.9407
  157SAPE   HN317480   5.816   3.623  10.899 -0.1269 -0.0168 -2.1468
  157SAPE   C1217481   5.698   3.733  10.759  0.1540 -0.5878 -0.4169
  157SAPE  H12A17482   5.734   3.833  10.790 -3.6232  1.3984 -2.0362
  157SAPE  H12B17483   5.589   3.733  10.737 -0.1081 -0.4129  0.8234
  157SAPE   C1117484   5.794   3.680  10.654  0.5121  0.5328 -1.1016
  157SAPE  H11A17485   5.777   3.733  10.557  3.7505 -0.2112 -2.1416
  157SAPE  H11B17486   5.766   3.578  10.621  2.0929 -0.6260  1.0279
  157SAPE     P17487   6.050   3.611  10.636 -0.1671  0.1347 -0.1066
  157SAPE   O1317488   6.158   3.707  10.607  0.2897 -0.9105  0.4941
  157SAPE   O1417489   6.083   3.494  10.721  0.2282 -0.0682  0.1653
  157SAPE   O1217490   5.927   3.687  10.703 -0.0299  0.2207 -0.0999
  157SAPE   O1117491   5.985   3.549  10.510 -0.1758 -0.1340 -0.3386
  157SAPE    C117492   6.061   3.448  10.429 -0.1911 -0.3352 -0.0730
  157SAPE    HA17493   6.122   3.497  10.350  2.5963 -2.5642  0.6133
  157SAPE    HB17494   6.127   3.384  10.492 -1.3082 -0.6306  0.8130
  157SAPE    C217495   5.969   3.354  10.348  0.3256  0.5084 -0.6491
  157SAPE    HS17496   6.034   3.293  10.282  0.2141 -2.1639  1.6164
  157SAPE   O2117497   5.874   3.431  10.278 -0.1675  0.0899  0.4805
  157SAPE   C2117498   5.923   3.475  10.164  0.4800  0.8416  0.2412
  157SAPE   O2217499   6.032   3.452  10.112 -0.1877 -0.4404  0.1877
  157SAPE   C2217500   5.816   3.569  10.106  0.4748 -0.7614 -0.3605
  157SAPE   H2R17501   5.720   3.514  10.116  0.0751  0.1343  0.7408
  157SAPE   H2S17502   5.823   3.661  10.168  0.1777  0.3350 -1.8966
  157SAPE    C317503   5.901   3.256  10.446 -0.7442  0.2851 -0.2721
  157SAPE    HX17504   5.843   3.307  10.525  2.1686 -0.5475  2.5330
  157SAPE    HY17505   5.975   3.195  10.503 -1.4915 -1.9297 -1.5874
  157SAPE   O3117506   5.801   3.171  10.380  0.9603 -0.3481  0.3284
  157SAPE   C3117507   5.853   3.086  10.293  0.5251 -0.1296  0.7980
  157SAPE   O3217508   5.969   3.069  10.274 -0.7998 -0.1351  0.0592
  157SAPE   C3217509   5.736   3.005  10.246 -0.1565 -0.1809 -0.2337
  157SAPE   H2X17510   5.647   3.071  10.236 -1.1259 -1.4835 -0.3488
  157SAPE   H2Y17511   5.702   2.914  10.299  0.6334 -1.6263 -2.1424
  157SAPE   C2317512   5.848   3.589   9.952 -0.2284 -0.3220 -0.8952
  157SAPE   H3R17513   5.840   3.492   9.898 -0.1304  0.0272 -1.5423
  157SAPE   H3S17514   5.954   3.621   9.956 -1.2703  3.1361  0.7012
  157SAPE   C2417515   5.763   3.704   9.894 -0.1984  0.0071 -1.2546
  157SAPE   H4R17516   5.800   3.728   9.792  0.1933  4.3011 -0.2157
  157SAPE   H4S17517   5.786   3.792   9.958 -1.3563 -0.1740 -0.5635
  157SAPE   C2517518   5.613   3.678   9.896 -0.4102 -0.1090 -0.2767
  157SAPE   H5R17519   5.568   3.637   9.987 -1.3033  0.3494 -0.5105
  157SAPE   C2617520   5.537   3.665   9.785 -1.1846 -0.2616 -0.4514
  157SAPE   H6R17521   5.434   3.627   9.791  0.0584 -3.5920  1.5358
  157SAPE   C2717522   5.583   3.676   9.641  0.1658 -0.3167  0.3836
  157SAPE   H7R17523   5.613   3.782   9.633 -2.3585  0.2358 -2.1961
  157SAPE   H7S17524   5.488   3.666   9.585 -0.1675  0.9349  0.7227
  157SAPE   C2817525   5.690   3.588   9.579 -0.0035 -0.4140  1.1352
  157SAPE   H8R17526   5.797   3.612   9.593  1.0459 -4.1038  0.0387
  157SAPE   C2917527   5.667   3.498   9.489  0.6722 -0.3363  0.1273
  157SAPE   H9R17528   5.757   3.452   9.444  1.0254 -0.4949  0.9813
  157SAPE  C21017529   5.528   3.464   9.437 -0.6709 -0.1430 -0.8172
  157SAPE  H10R17530   5.509   3.535   9.353  0.9945  1.5389  0.1722
  157SAPE  H10S17531   5.452   3.476   9.516 -1.3260 -0.2057 -1.4302
  157SAPE  C21117532   5.531   3.313   9.394 -0.1515  0.1561 -0.4024
  157SAPE  H11R17533   5.564   3.246   9.475  2.2786  1.8179  0.0383
  157SAPE  C21217534   5.505   3.265   9.275 -0.4485  0.7637  0.2030
  157SAPE  H12R17535   5.535   3.162   9.251 -0.8693  0.9786 -1.2994
  157SAPE  C21317536   5.459   3.343   9.147  0.2581 -0.1316 -1.0564
  157SAPE  H13R17537   5.446   3.450   9.174  1.9589 -0.4995  1.3340
  157SAPE  H13S17538   5.363   3.300   9.111  0.2080 -1.7500  0.9195
  157SAPE  C21417539   5.563   3.326   9.035 -0.0504  0.1814 -0.1407
  157SAPE  H14R17540   5.637   3.406   9.022  1.6517 -1.3448  0.0502
  157SAPE  C21517541   5.561   3.243   8.934 -0.0571  0.3703 -0.5919
  157SAPE  H15R17542   5.631   3.263   8.852  0.5998 -2.1492 -0.6912
  157SAPE  C21617543   5.462   3.136   8.905  0.3880  0.3378  0.6503
  157SAPE  H16R17544   5.389   3.131   8.989 -0.2610  2.5092  0.2315
  157SAPE  H16S17545   5.518   3.040   8.907  1.4229  0.9065 -0.6049
  157SAPE  C21717546   5.382   3.166   8.781  0.2444  0.4112 -0.3972
  157SAPE  H17R17547   5.308   3.084   8.769  1.1787 -0.3167 -1.2662
  157SAPE  H17S17548   5.438   3.159   8.685 -1.0787 -1.4141 -1.0610
  157SAPE  C21817549   5.303   3.297   8.787 -0.7365  0.2445 -0.3556
  157SAPE  H18R17550   5.376   3.381   8.794 -0.5760  0.0769  0.0039
  157SAPE  H18S17551   5.251   3.295   8.885  0.8216  0.6328  0.5046
  157SAPE  C21917552   5.199   3.310   8.677  0.0791  0.0012  0.1281
  157SAPE  H19R17553   5.130   3.395   8.693 -0.6936 -0.5634 -0.1533
  157SAPE  H19S17554   5.132   3.221   8.680 -0.6908  0.5775  0.1257
  157SAPE  C22017555   5.257   3.323   8.529  0.7801  0.5460 -0.4563
  157SAPE  H20R17556   5.329   3.242   8.504 -0.8569 -0.3133 -2.5465
  157SAPE  H20S17557   5.318   3.415   8.520  2.4802 -0.6477 -1.4202
  157SAPE  H20T17558   5.180   3.302   8.452  0.8740 -0.2389 -0.3386
  157SAPE   C3317559   5.771   2.947  10.108  0.2266 -0.7353 -0.2458
  157SAPE   H3X17560   5.820   3.010  10.031  1.6798 -3.5014 -1.6327
  157SAPE   H3Y17561   5.668   2.920  10.076  0.6868 -2.1065 -0.5864
  157SAPE   C3417562   5.854   2.822  10.118  0.2062  0.1277 -0.3713
  157SAPE   H4X17563   5.832   2.770  10.214  1.8873  0.6705  0.3189
  157SAPE   H4Y17564   5.959   2.858  10.113  0.6643 -1.2657 -1.0338
  157SAPE   C3517565   5.829   2.720  10.012 -0.2079 -0.6328 -0.7209
  157SAPE   H5X17566   5.725   2.680  10.019 -0.4957  0.4947  1.8100
  157SAPE   H5Y17567   5.900   2.634  10.017 -0.3458 -0.8677 -2.5521
  157SAPE   C3617568   5.841   2.776   9.860 -0.5552 -0.4785 -0.5055
  157SAPE   H6X17569   5.940   2.823   9.843  0.0163 -2.1429 -1.9184
  157SAPE   H6Y17570   5.754   2.844   9.852 -1.3355 -1.1103  2.2168
  157SAPE   C3717571   5.835   2.659   9.764  0.4450  0.3706 -0.1682
  157SAPE   H7X17572   5.748   2.592   9.780  0.7166  0.3932  1.5674
  157SAPE   H7Y17573   5.922   2.591   9.775  0.2830  0.3985  1.5269
  157SAPE   C3817574   5.830   2.703   9.613  0.0863  0.1380 -0.3371
  157SAPE   H8X17575   5.918   2.768   9.590  0.1256  0.3334  0.3487
  157SAPE   H8Y17576   5.740   2.765   9.595  0.3551  0.5137 -0.3933
  157SAPE   C3917577   5.844   2.586   9.514 -0.0860 -1.3496 -0.8096
  157SAPE   H9X17578   5.763   2.512   9.533 -1.0106  0.3103  2.1066
  157SAPE   H9Y17579   5.932   2.526   9.546  0.5764  1.0848  2.1623
  157SAPE  C31017580   5.856   2.631   9.362  0.3196  0.2050 -0.1559
  157SAPE  H10X17581   5.953   2.684   9.362 -0.4597  1.6659  0.5571
  157SAPE  H10Y17582   5.781   2.704   9.325  1.1068  0.3404 -1.5148
  157SAPE  C31117583   5.871   2.506   9.267 -0.5845 -0.0186  0.8293
  157SAPE  H11X17584   5.784   2.439   9.280  1.3027 -3.1187 -1.9592
  157SAPE  H11Y17585   5.957   2.446   9.302 -0.0530 -0.1998 -0.7538
  157SAPE  C31217586   5.886   2.529   9.122  0.2059  0.9278  0.0298
  157SAPE  H12X17587   5.989   2.565   9.100 -0.5395  1.8591 -2.0932
  157SAPE  H12Y17588   5.817   2.610   9.089 -0.1471  1.4966  2.0705
  157SAPE  C31317589   5.888   2.403   9.029  0.4008  0.7278  0.2130
  157SAPE  H13X17590   5.792   2.347   9.033  0.4203  0.7065  0.3873
  157SAPE  H13Y17591   5.960   2.327   9.067 -0.1942 -0.0541 -0.2114
  157SAPE  C31417592   5.923   2.427   8.883 -0.7263  0.3512  0.2436
  157SAPE  H14X17593   6.034   2.433   8.875 -0.5921 -1.5569  0.4327
  157SAPE  H14Y17594   5.880   2.525   8.855 -0.8872  0.0616 -0.5185
  157SAPE  C31517595   5.874   2.306   8.797  0.0975 -0.2057 -0.0384
  157SAPE  H15X17596   5.808   2.241   8.859 -2.2950  1.7050 -0.4819
  157SAPE  H15Y17597   5.962   2.242   8.775 -1.3792 -1.4803 -2.5404
  157SAPE  C31617598   5.813   2.341   8.665 -0.6621  0.0218  0.1247
  157SAPE  H16X17599   5.889   2.383   8.595  1.4358  0.7532  2.7845
  157SAPE  H16Y17600   5.746   2.426   8.692 -1.1498 -0.6157  0.9259
  157SAPE  C31717601   5.722   2.229   8.600 -1.2528  0.1255  0.2663
  157SAPE  H17X17602   5.680   2.173   8.687  0.7597 -0.8297  0.6471
  157SAPE  H17Y17603   5.799   2.171   8.545 -0.9623  0.2287  0.5629
  157SAPE  C31817604   5.627   2.280   8.495 -0.2777 -0.1859  0.0620
  157SAPE  H18X17605   5.567   2.196   8.455  1.0745 -0.9254 -0.4268
  157SAPE  H18Y17606   5.669   2.333   8.407 -3.6301  1.0786 -0.8625
  157SAPE  H18Z17607   5.556   2.348   8.547 -2.2131 -4.1260  2.8070
  158SAPE     N17608   0.578   3.718  10.835  0.6996  0.0630  0.2499
  158SAPE   HN117609   0.588   3.741  10.936  1.2183 -0.9939  0.4463
  158SAPE   HN217610   0.617   3.801  10.786 -0.5416  0.8841  0.6195
  158SAPE   HN317611   0.480   3.706  10.803 -0.0413  0.7889  2.1267
  158SAPE   C1217612   0.667   3.614  10.782 -0.7712  0.5747  0.1334
  158SAPE  H12A17613   0.770   3.631  10.821 -0.7148 -0.3578  0.3995
  158SAPE  H12B17614   0.668   3.628  10.672 -1.2361 -0.0983  0.0457
  158SAPE   C1117615   0.607   3.479  10.811 -0.0855 -0.3590  0.9357
  158SAPE  H11A17616   0.608   3.461  10.921  3.3608 -1.0565  0.8604
  158SAPE  H11B17617   0.670   3.397  10.770 -1.1618 -0.8725  0.2565
  158SAPE     P17618   0.460   3.419  10.606 -0.2621  0.6038  0.3787
  158SAPE   O1317619   0.458   3.269  10.616 -0.3449 -0.3613  0.0510
  158SAPE   O1417620   0.338   3.487  10.558 -0.0097 -0.3409 -0.0633
  158SAPE   O1217621   0.479   3.471  10.749  0.0836 -0.1990 -0.0263
  158SAPE   O1117622   0.592   3.462  10.527  0.2965  0.9692 -0.6289
  158SAPE    C117623   0.696   3.380  10.484  0.6746 -0.3798 -0.4007
  158SAPE    HA17624   0.790   3.420  10.527  1.3285 -1.0270 -1.2052
  158SAPE    HB17625   0.690   3.277  10.526 -1.1182 -1.1501 -2.4481
  158SAPE    C217626   0.736   3.386  10.335 -0.0677  0.2188 -0.7780
  158SAPE    HS17627   0.777   3.488  10.320 -0.5073  0.5095 -0.0181
  158SAPE   O2117628   0.619   3.354  10.258 -0.1910  0.2814  0.3935
  158SAPE   C2117629   0.544   3.457  10.232 -0.6313 -0.3329  0.9694
  158SAPE   O2217630   0.579   3.578  10.242 -0.4194  0.0699  0.1291
  158SAPE   C2217631   0.416   3.416  10.160  0.0254  0.1844 -0.0232
  158SAPE   H2R17632   0.395   3.308  10.170 -0.0837  0.3958  2.2316
  158SAPE   H2S17633   0.341   3.476  10.216  0.7342 -0.8465  2.0722
  158SAPE    C317634   0.867   3.315  10.312 -0.0173 -0.1653 -0.5218
  158SAPE    HX17635   0.859   3.212  10.351 -2.8723  0.1521 -0.1185
  158SAPE    HY17636   0.950   3.364  10.367 -0.6934  0.0082  0.3647
  158SAPE   O3117637   0.893   3.299  10.170 -0.2791 -0.4368  0.1782
  158SAPE   C3117638   0.981   3.392  10.128  0.1658 -0.7471 -0.6482
  158SAPE   O3217639   1.000   3.497  10.186 -0.3115  0.0810 -0.6813
  158SAPE   C3217640   1.035   3.342   9.997 -0.1169  0.4647  0.3852
  158SAPE   H2X17641   0.951   3.345   9.923  0.0120 -2.4238  0.0572
  158SAPE   H2Y17642   1.079   3.241   9.999 -1.7066 -0.2653 -0.0664
  158SAPE   C2317643   0.401   3.457  10.012  0.0500 -0.2295 -0.2011
  158SAPE   H3R17644   0.487   3.419   9.953 -1.0991 -0.6716 -1.6511
  158SAPE   H3S17645   0.400   3.568  10.012 -2.1146 -0.2159 -1.3224
  158SAPE   C2417646   0.279   3.401   9.944 -0.8382  0.2409  0.0050
  158SAPE   H4R17647   0.247   3.470   9.864  1.9273  2.8660  1.0738
  158SAPE   H4S17648   0.187   3.403  10.006 -0.9071  0.4843 -0.1054
  158SAPE   C2517649   0.295   3.266   9.891  0.7480 -0.2844 -0.6077
  158SAPE   H5R17650   0.292   3.192   9.973  0.0516 -0.6791 -0.9803
  158SAPE   C2617651   0.306   3.222   9.765 -0.1811 -0.1322 -0.1909
  158SAPE   H6R17652   0.336   3.118   9.745  2.7320  0.6478 -0.1769
  158SAPE   C2717653   0.300   3.304   9.636 -0.1639  0.1672 -0.5212
  158SAPE   H7R17654   0.379   3.267   9.567 -0.8860 -1.0396 -0.7176
  158SAPE   H7S17655   0.305   3.411   9.665 -3.2899  0.6318 -1.4638
  158SAPE   C2817656   0.175   3.304   9.557 -0.7622  0.6429  1.0615
  158SAPE   H8R17657   0.097   3.285   9.632 -1.3434 -1.6959 -0.1070
  158SAPE   C2917658   0.157   3.321   9.426  0.2932  0.1294  0.0384
  158SAPE   H9R17659   0.054   3.325   9.387 -0.1104  1.0995  1.1512
  158SAPE  C21017660   0.262   3.350   9.331 -0.4662  0.2603 -0.7830
  158SAPE  H10R17661   0.342   3.416   9.370 -0.8983 -0.5360  1.5992
  158SAPE  H10S17662   0.215   3.414   9.254 -0.4004  0.3780 -0.7235
  158SAPE  C21117663   0.321   3.219   9.272  0.8505  0.7038 -0.2171
  158SAPE  H11R17664   0.354   3.153   9.354  0.2227  1.0780  0.3427
  158SAPE  C21217665   0.323   3.193   9.142  0.1108  0.7464  0.0089
  158SAPE  H12R17666   0.379   3.104   9.110  0.7886  0.9036  0.7427
  158SAPE  C21317667   0.273   3.287   9.033 -0.3186  1.3255 -0.0278
  158SAPE  H13R17668   0.342   3.272   8.947 -0.5196 -0.2246  0.0816
  158SAPE  H13S17669   0.297   3.394   9.055  1.5746  0.4388  2.4245
  158SAPE  C21417670   0.128   3.273   8.998  0.2958  0.7784 -0.7604
  158SAPE  H14R17671   0.065   3.255   9.086  1.6711 -0.1015  0.0748
  158SAPE  C21517672   0.078   3.303   8.881 -0.1588 -0.3185 -0.4220
  158SAPE  H15R17673  -0.030   3.290   8.863 -0.6849  1.0875  1.5297
  158SAPE  C21617674   0.160   3.346   8.764 -0.3702  0.2010  0.0644
  158SAPE  H16R17675   0.160   3.258   8.697  0.1852 -0.5071  0.9773
  158SAPE  H16S17676   0.260   3.382   8.799 -0.4518  0.3711  0.1245
  158SAPE  C21717677   0.097   3.464   8.690 -0.6114  0.5690 -0.1465
  158SAPE  H17R17678   0.085   3.549   8.761  0.7510 -0.0117  0.7902
  158SAPE  H17S17679   0.002   3.432   8.642  0.3545 -1.1905 -0.9261
  158SAPE  C21817680   0.179   3.517   8.565  0.0499  0.2655 -0.4636
  158SAPE  H18R17681   0.113   3.572   8.495  0.3814  0.1881 -0.8393
  158SAPE  H18S17682   0.225   3.430   8.513  0.7359  0.0324  0.5207
  158SAPE  C21917683   0.294   3.607   8.609 -0.3507 -0.2357 -0.1898
  158SAPE  H19R17684   0.373   3.555   8.668  0.0460  0.2687 -0.2643
  158SAPE  H19S17685   0.253   3.687   8.674 -0.5897 -0.8773  0.4573
  158SAPE  C22017686   0.360   3.671   8.483  0.4764 -0.0402 -0.4215
  158SAPE  H20R17687   0.414   3.764   8.508 -2.9450  1.8801  0.2364
  158SAPE  H20S17688   0.292   3.709   8.404 -2.8196 -0.3537  2.1057
  158SAPE  H20T17689   0.428   3.595   8.439  0.8260 -1.6933  2.7696
  158SAPE   C3317690   1.143   3.442   9.947  0.1621  0.2524  0.7289
  158SAPE   H3X17691   1.229   3.446  10.018  1.2728 -0.3411 -0.5615
  158SAPE   H3Y17692   1.097   3.543   9.949  0.0031  0.2671 -2.0605
  158SAPE   C3417693   1.208   3.400   9.820 -0.4266  0.1005  0.6902
  158SAPE   H4X17694   1.242   3.296   9.840  0.3880  0.5082  1.4249
  158SAPE   H4Y17695   1.304   3.448   9.790 -2.2609  2.9078 -0.9925
  158SAPE   C3517696   1.117   3.401   9.696  0.4914 -0.9678 -0.5079
  158SAPE   H5X17697   1.066   3.500   9.695  0.5016 -0.9539  0.1533
  158SAPE   H5Y17698   1.042   3.321   9.712 -0.5837  0.0702 -0.3038
  158SAPE   C3617699   1.185   3.366   9.559  0.3558  0.1145 -0.4750
  158SAPE   H6X17700   1.237   3.269   9.578 -2.4384 -0.8669  2.6121
  158SAPE   H6Y17701   1.266   3.441   9.547 -0.3467  0.7054 -1.5709
  158SAPE   C3717702   1.097   3.375   9.438  0.1108  0.2945  0.4682
  158SAPE   H7X17703   1.027   3.461   9.443  1.5463  1.6769 -2.3006
  158SAPE   H7Y17704   1.028   3.287   9.438  0.2962  0.1432 -0.3413
  158SAPE   C3817705   1.180   3.400   9.307  0.5556  0.0861  0.0137
  158SAPE   H8X17706   1.248   3.315   9.285  2.4578  1.6151 -0.1976
  158SAPE   H8Y17707   1.244   3.484   9.342  0.3135  0.2714  0.0127
  158SAPE   C3917708   1.100   3.441   9.194  0.4232  0.5121  0.5929
  158SAPE   H9X17709   1.023   3.517   9.223  1.7725  1.1880  2.4897
  158SAPE   H9Y17710   1.033   3.367   9.146  1.1034  0.1992  0.1287
  158SAPE  C31017711   1.191   3.496   9.082 -0.2838  0.7676  0.0943
  158SAPE  H10X17712   1.222   3.412   9.016  0.3952  0.6569  0.5509
  158SAPE  H10Y17713   1.276   3.548   9.131  0.9420 -0.0358 -1.1519
  158SAPE  C31117714   1.135   3.603   8.986  0.6390 -0.3507  0.2886
  158SAPE  H11X17715   1.082   3.685   9.038  1.3167  0.7051 -0.6424
  158SAPE  H11Y17716   1.064   3.565   8.909 -0.9367 -1.0337  2.0697
  158SAPE  C31217717   1.240   3.690   8.917  0.1372 -0.1463 -0.6561
  158SAPE  H12X17718   1.304   3.742   8.991  1.4213 -1.6234 -0.6913
  158SAPE  H12Y17719   1.199   3.775   8.859 -1.6792  0.1479  1.0333
  158SAPE  C31317720   1.338   3.608   8.822 -0.1202  0.0356 -0.2980
  158SAPE  H13X17721   1.390   3.520   8.865  0.5182  0.1816 -0.7470
  158SAPE  H13Y17722   1.422   3.672   8.786  0.1382 -0.1577 -0.0422
  158SAPE  C31417723   1.262   3.548   8.697 -0.0977  0.3424  0.0920
  158SAPE  H14X17724   1.176   3.611   8.665 -0.7173 -1.2158 -1.4353
  158SAPE  H14Y17725   1.208   3.456   8.728  0.6975  0.1672  0.9636
  158SAPE  C31517726   1.363   3.507   8.591 -0.7985 -0.2553 -0.8439
  158SAPE  H15X17727   1.448   3.449   8.635  1.9891  2.0279 -3.0201
  158SAPE  H15Y17728   1.414   3.590   8.538 -0.5735 -0.1935 -0.5335
  158SAPE  C31617729   1.303   3.427   8.475  0.2546  0.2678  0.2125
  158SAPE  H16X17730   1.238   3.499   8.421  1.1423  1.7997  1.1524
  158SAPE  H16Y17731   1.248   3.344   8.525  0.9832 -0.2917  0.0817
  158SAPE  C31717732   1.400   3.364   8.366  0.2208  0.6902  0.0165
  158SAPE  H17X17733   1.471   3.434   8.317 -0.1190  0.4705 -0.7991
  158SAPE  H17Y17734   1.339   3.317   8.286  0.6417 -1.0897  0.7102
  158SAPE  C31817735   1.478   3.243   8.427  0.1938  0.5015 -0.0682
  158SAPE  H18X17736   1.409   3.178   8.484  0.4723  0.1358 -0.1448
  158SAPE  H18Y17737   1.555   3.279   8.498 -0.0748  0.6278  0.1639
  158SAPE  H18Z17738   1.523   3.194   8.338 -0.5989  2.1561 -1.4072
  159SAPE     N17739   5.752   0.945   6.366  0.1442  0.2513 -0.3907
  159SAPE   HN117740   5.851   0.921   6.385 -0.0665 -1.4233 -1.3636
  159SAPE   HN217741   5.697   0.950   6.455  1.3507  0.0492  0.3739
  159SAPE   HN317742   5.709   0.873   6.305 -2.7633  1.0014  0.6827
  159SAPE   C1217743   5.744   1.083   6.304  0.2262 -0.3504 -0.4692
  159SAPE  H12A17744   5.778   1.071   6.199 -2.5648  0.7832 -1.5539
  159SAPE  H12B17745   5.806   1.153   6.365 -0.3097 -1.2297  1.1224
  159SAPE   C1117746   5.600   1.137   6.311 -0.3219  0.4435  0.1499
  159SAPE  H11A17747   5.536   1.066   6.255  2.4598 -0.2334 -2.2949
  159SAPE  H11B17748   5.606   1.225   6.243 -0.2197 -0.6107 -1.2388
  159SAPE     P17749   5.422   1.242   6.474  0.1219 -0.1891 -0.1707
  159SAPE   O1317750   5.390   1.307   6.344  0.0863  0.7387 -0.0229
  159SAPE   O1417751   5.313   1.143   6.514 -0.5336 -0.1303  0.2683
  159SAPE   O1217752   5.558   1.160   6.453 -0.3840  0.8232  0.1583
  159SAPE   O1117753   5.448   1.352   6.593 -0.0484 -0.8016  0.1612
  159SAPE    C117754   5.568   1.432   6.609 -0.0456  0.0886  0.1853
  159SAPE    HA17755   5.600   1.475   6.512 -0.7216 -0.4521 -0.2859
  159SAPE    HB17756   5.546   1.530   6.657  0.5277  0.6955 -0.7958
  159SAPE    C217757   5.687   1.373   6.693  0.9972 -0.0673  0.3939
  159SAPE    HS17758   5.741   1.289   6.646  2.0741  0.7831  0.0713
  159SAPE   O2117759   5.629   1.336   6.823 -0.2140 -0.1228 -0.8835
  159SAPE   C2117760   5.618   1.207   6.845 -0.6654  0.4606 -0.0682
  159SAPE   O2217761   5.646   1.112   6.774 -0.2927 -0.2736  0.1074
  159SAPE   C2217762   5.569   1.184   6.991 -0.3466  0.2050 -0.0798
  159SAPE   H2R17763   5.558   1.286   7.035 -0.8544  0.4521 -0.7742
  159SAPE   H2S17764   5.472   1.130   6.985 -0.3153  0.0087  1.0813
  159SAPE    C317765   5.804   1.470   6.713 -0.4376 -0.1570  0.5351
  159SAPE    HX17766   5.763   1.572   6.724  2.6059  1.1493  0.2119
  159SAPE    HY17767   5.852   1.459   6.613  0.0590 -0.9382  0.8581
  159SAPE   O3117768   5.885   1.437   6.822  0.4657 -0.2948 -0.7474
  159SAPE   C3117769   5.994   1.369   6.786 -0.0107  0.3926 -0.5451
  159SAPE   O3217770   6.008   1.307   6.687 -0.0375  0.0553 -0.0043
  159SAPE   C3217771   6.084   1.372   6.901 -0.2185 -0.3192  0.1743
  159SAPE   H2X17772   6.032   1.358   6.998  0.5785  1.6608  0.9145
  159SAPE   H2Y17773   6.123   1.475   6.913 -0.3023 -0.3468  0.6691
  159SAPE   C2317774   5.662   1.102   7.081 -0.4930  0.8341 -0.1522
  159SAPE   H3R17775   5.653   0.995   7.054  2.1163  0.7450 -0.8339
  159SAPE   H3S17776   5.630   1.118   7.186  2.3027 -1.4976  1.1255
  159SAPE   C2417777   5.810   1.142   7.053  0.0346  0.0899  0.2029
  159SAPE   H4R17778   5.827   1.252   7.048  1.7034 -0.1754 -0.0235
  159SAPE   H4S17779   5.834   1.121   6.946 -0.0523  0.7849  0.0405
  159SAPE   C2517780   5.906   1.083   7.156  0.9772  0.1063 -0.4333
  159SAPE   H5R17781   5.936   0.979   7.133 -1.0128 -0.6437  0.2914
  159SAPE   C2617782   5.942   1.144   7.272  0.4843  0.4878 -0.1237
  159SAPE   H6R17783   6.010   1.088   7.338 -0.0436 -0.5600 -0.4573
  159SAPE   C2717784   5.900   1.280   7.326 -0.0661  0.4904  0.4166
  159SAPE   H7R17785   5.892   1.338   7.232  0.3104 -1.0021 -0.5567
  159SAPE   H7S17786   5.984   1.320   7.387 -1.0429 -0.6806  2.5888
  159SAPE   C2817787   5.764   1.300   7.398 -0.4199  0.8092  0.4858
  159SAPE   H8R17788   5.672   1.292   7.338  0.3768 -1.2614 -0.4926
  159SAPE   C2917789   5.735   1.286   7.527 -0.1943  0.4979 -0.3278
  159SAPE   H9R17790   5.632   1.308   7.561  0.3634  0.6598  1.2813
  159SAPE  C21017791   5.843   1.272   7.635 -0.3425 -0.9113  0.2413
  159SAPE  H10R17792   5.928   1.342   7.625 -1.2251  0.3913  1.5493
  159SAPE  H10S17793   5.885   1.170   7.639  0.3120 -0.6236  0.6746
  159SAPE  C21117794   5.770   1.307   7.758 -0.2566  0.6840 -0.8361
  159SAPE  H11R17795   5.778   1.409   7.799  0.5070  0.8652 -1.4404
  159SAPE  C21217796   5.683   1.224   7.819  0.3085  0.4683  0.3582
  159SAPE  H12R17797   5.641   1.256   7.915  1.9524  3.4782  0.1447
  159SAPE  C21317798   5.639   1.085   7.783  0.2391  0.4485  0.5011
  159SAPE  H13R17799   5.698   1.058   7.693 -0.4025  1.3068 -0.1768
  159SAPE  H13S17800   5.532   1.076   7.753  0.1520  2.0916  0.3059
  159SAPE  C21417801   5.656   0.988   7.897  0.3674  0.8353  0.5265
  159SAPE  H14R17802   5.761   0.967   7.920  0.9760 -0.4235 -3.1103
  159SAPE  C21517803   5.554   0.947   7.980 -0.0905  0.1419 -0.5521
  159SAPE  H15R17804   5.581   0.884   8.066  2.3203 -0.3816 -1.6455
  159SAPE  C21617805   5.407   0.987   7.969  0.1628  0.6671 -0.2799
  159SAPE  H16R17806   5.375   0.992   7.862 -1.4885 -1.2350  0.0790
  159SAPE  H16S17807   5.391   1.092   8.002 -0.1582  0.8239 -0.9200
  159SAPE  C21717808   5.316   0.888   8.036  0.4555 -0.6456  0.6090
  159SAPE  H17R17809   5.293   0.916   8.142 -4.0638  1.3317 -0.7782
  159SAPE  H17S17810   5.358   0.787   8.052  1.1754 -0.8221 -2.3031
  159SAPE  C21817811   5.183   0.878   7.967 -0.2071 -0.2195 -0.0076
  159SAPE  H18R17812   5.116   0.817   8.032 -0.7857 -0.0278 -0.4241
  159SAPE  H18S17813   5.194   0.831   7.867 -1.1053 -1.1694  0.3314
  159SAPE  C21917814   5.116   1.014   7.949  0.2628  0.2912 -0.0752
  159SAPE  H19R17815   5.170   1.087   7.885  1.7090  0.5572  1.4388
  159SAPE  H19S17816   5.113   1.047   8.055  3.0918  2.9607 -0.7601
  159SAPE  C22017817   4.971   1.005   7.909  0.3085  0.3959  0.0115
  159SAPE  H20R17818   4.913   0.942   7.979  0.2402 -0.2408 -0.6151
  159SAPE  H20S17819   4.957   0.948   7.815  1.5501 -0.9387  0.6138
  159SAPE  H20T17820   4.920   1.104   7.912 -3.3017 -1.4485  2.0670
  159SAPE   C3317821   6.195   1.265   6.897  0.0244  0.8335  0.1765
  159SAPE   H3X17822   6.245   1.254   6.798 -0.5581  0.4108 -0.0774
  159SAPE   H3Y17823   6.172   1.169   6.946  0.0705  1.9489  2.4208
  159SAPE   C3417824   6.308   1.321   6.986  0.3569  0.3371  0.8808
  159SAPE   H4X17825   6.254   1.358   7.075 -1.7936  0.5643 -0.4990
  159SAPE   H4Y17826   6.362   1.402   6.933  1.2311 -0.0128  1.2275
  159SAPE   C3517827   6.406   1.210   7.026 -0.0800 -0.7359 -0.0536
  159SAPE   H5X17828   6.455   1.170   6.935  1.5286  2.3808 -0.6056
  159SAPE   H5Y17829   6.354   1.123   7.074  0.2600  0.0821  1.8677
  159SAPE   C3617830   6.520   1.260   7.119 -0.4649  0.4826 -0.1555
  159SAPE   H6X17831   6.475   1.308   7.209 -1.0219  3.3015 -1.8879
  159SAPE   H6Y17832   6.577   1.342   7.069  0.9306 -1.1839 -1.3482
  159SAPE   C3717833   6.606   1.152   7.185 -0.3780  0.1138  0.1162
  159SAPE   H7X17834   6.659   1.093   7.107 -0.7370  1.4548 -1.1690
  159SAPE   H7Y17835   6.539   1.080   7.236 -0.7413 -0.0477 -0.5864
  159SAPE   C3817836   6.716   1.220   7.266 -1.0113  0.0559 -0.4912
  159SAPE   H8X17837   6.771   1.289   7.198  2.0089 -4.9453 -3.4321
  159SAPE   H8Y17838   6.785   1.134   7.278  0.1432  0.8336 -1.4143
  159SAPE   C3917839   6.654   1.269   7.401 -0.1494  0.4220 -0.3659
  159SAPE   H9X17840   6.592   1.184   7.436 -0.1803  0.7277  0.3215
  159SAPE   H9Y17841   6.582   1.352   7.391  0.3686  0.6767 -2.1584
  159SAPE  C31017842   6.753   1.316   7.507  0.0291 -0.4353 -0.9284
  159SAPE  H10X17843   6.826   1.381   7.454  0.9389 -0.0550  0.7449
  159SAPE  H10Y17844   6.807   1.233   7.558  3.2748  1.3491 -1.2804
  159SAPE  C31117845   6.685   1.401   7.614 -0.9115 -0.9145 -0.0987
  159SAPE  H11X17846   6.608   1.346   7.673 -3.9788  4.1417  0.9119
  159SAPE  H11Y17847   6.634   1.482   7.558  3.5293  1.1110 -1.4373
  159SAPE  C31217848   6.776   1.468   7.718 -0.7511 -0.2783  0.0710
  159SAPE  H12X17849   6.726   1.555   7.765  0.4107  1.7616 -2.3588
  159SAPE  H12Y17850   6.863   1.519   7.669 -1.5618 -0.2998 -1.4261
  159SAPE  C31317851   6.824   1.374   7.832  0.1188  0.0473  0.3312
  159SAPE  H13X17852   6.905   1.430   7.883 -1.3510  1.5425  1.0666
  159SAPE  H13Y17853   6.873   1.282   7.792  0.2575  1.0816 -1.9847
  159SAPE  C31417854   6.707   1.352   7.928 -0.2325  0.1801  0.2352
  159SAPE  H14X17855   6.638   1.276   7.886 -1.9364  0.2197  2.8868
  159SAPE  H14Y17856   6.651   1.448   7.928  0.5087  0.6172 -0.5881
  159SAPE  C31517857   6.742   1.312   8.073 -1.2907 -0.7245  0.1208
  159SAPE  H15X17858   6.793   1.402   8.114  0.0755 -1.1154 -0.7043
  159SAPE  H15Y17859   6.808   1.223   8.066  0.9416  0.8652  0.4863
  159SAPE  C31617860   6.628   1.281   8.165  0.3377  0.2631  0.8083
  159SAPE  H16X17861   6.566   1.199   8.121 -0.9735  0.8433  1.5527
  159SAPE  H16Y17862   6.569   1.375   8.170  2.6722  1.7656  0.9473
  159SAPE  C31717863   6.662   1.239   8.313  0.8133  0.2894  0.1897
  159SAPE  H17X17864   6.717   1.325   8.358 -0.5475  1.3794 -0.1949
  159SAPE  H17Y17865   6.741   1.161   8.310 -2.2166 -2.8208 -1.3364
  159SAPE  C31817866   6.540   1.190   8.394 -0.0933  0.0810 -0.9097
  159SAPE  H18X17867   6.583   1.182   8.496  3.6995 -0.0114 -2.4467
  159SAPE  H18Y17868   6.517   1.092   8.346  0.4791 -0.3080 -0.4054
  159SAPE  H18Z17869   6.452   1.258   8.392  1.3615  2.0221  0.0914
  160SAPE     N17870   5.062   2.917   6.390  0.5191 -0.8296 -0.3590
  160SAPE   HN117871   5.082   3.018   6.386  2.7318 -1.2207  0.3569
  160SAPE   HN217872   5.027   2.896   6.486 -1.7316  0.8246 -0.7752
  160SAPE   HN317873   5.148   2.861   6.374  0.9756 -1.0539  2.6489
  160SAPE   C1217874   4.958   2.876   6.289  0.6013  0.5088 -0.0796
  160SAPE  H12A17875   4.986   2.919   6.190  1.0107  0.5621  0.0587
  160SAPE  H12B17876   4.858   2.912   6.322  1.2908  1.2446  1.2283
  160SAPE   C1117877   4.936   2.720   6.281  0.1136  0.1793  0.0190
  160SAPE  H11A17878   5.030   2.682   6.236 -1.2562 -3.6315  0.2328
  160SAPE  H11B17879   4.858   2.702   6.204  0.6957  1.7866 -0.9750
  160SAPE     P17880   4.767   2.604   6.442 -0.2510  0.1414  0.3962
  160SAPE   O1317881   4.689   2.705   6.524 -0.3373  0.2158 -0.1219
  160SAPE   O1417882   4.702   2.566   6.313  0.2311 -0.3938 -0.7286
  160SAPE   O1217883   4.907   2.659   6.410  0.4121 -0.0393 -0.6724
  160SAPE   O1117884   4.787   2.476   6.536  0.6245  0.3777  0.8015
  160SAPE    C117885   4.923   2.419   6.545  0.5470 -0.4915 -0.3544
  160SAPE    HA17886   4.914   2.308   6.549 -0.1354 -0.4772 -1.3306
  160SAPE    HB17887   5.002   2.441   6.470  2.0583 -0.5907  1.1862
  160SAPE    C217888   5.002   2.449   6.675  0.1542  0.7349  0.6098
  160SAPE    HS17889   5.092   2.385   6.665 -1.3513 -1.4079  0.3564
  160SAPE   O2117890   4.911   2.403   6.772  0.4363  0.0274  0.2008
  160SAPE   C2117891   4.954   2.395   6.894  0.1407  0.5698 -0.2631
  160SAPE   O2217892   5.071   2.398   6.933 -0.1835 -0.2288 -0.3027
  160SAPE   C2217893   4.833   2.386   6.997 -0.4453 -0.0850 -0.8519
  160SAPE   H2R17894   4.762   2.452   6.943 -0.1313 -2.0190 -3.6885
  160SAPE   H2S17895   4.796   2.281   7.005 -0.7758 -0.0165 -1.5097
  160SAPE    C317896   5.038   2.595   6.704 -0.2012 -1.0305 -0.4397
  160SAPE    HX17897   5.070   2.642   6.608 -1.6711  1.4034  0.2454
  160SAPE    HY17898   5.125   2.578   6.771 -1.2662 -1.0288  0.9502
  160SAPE   O3117899   4.936   2.677   6.766 -0.8858  0.1128  0.0540
  160SAPE   C3117900   4.919   2.808   6.738  0.4412  0.4662 -0.7084
  160SAPE   O3217901   4.983   2.870   6.657  0.2922 -0.1780 -0.2603
  160SAPE   C3217902   4.800   2.871   6.808 -0.2758  0.3468 -0.8184
  160SAPE   H2X17903   4.724   2.799   6.771  1.4115 -1.7953 -0.2966
  160SAPE   H2Y17904   4.781   2.971   6.765 -0.5424  0.9247  0.6270
  160SAPE   C2317905   4.854   2.449   7.138 -0.1003 -0.0913 -0.6057
  160SAPE   H3R17906   4.757   2.486   7.177  0.3929  1.1846 -0.5709
  160SAPE   H3S17907   4.927   2.532   7.128  0.3386 -0.4230 -0.1336
  160SAPE   C2417908   4.907   2.341   7.232 -0.3817  0.1167 -0.5148
  160SAPE   H4R17909   4.981   2.282   7.173  0.3077  0.6228 -0.1641
  160SAPE   H4S17910   4.829   2.268   7.262  1.6053 -0.9048  2.3098
  160SAPE   C2517911   4.979   2.396   7.351  0.2076  0.2442  0.3544
  160SAPE   H5R17912   5.077   2.443   7.339  0.8814 -1.1079  0.5205
  160SAPE   C2617913   4.920   2.407   7.472 -0.4112 -0.1839  0.4749
  160SAPE   H6R17914   4.972   2.463   7.552  1.3706  1.8294 -1.9936
  160SAPE   C2717915   4.784   2.365   7.522 -0.3452 -0.7740 -0.2488
  160SAPE   H7R17916   4.717   2.328   7.442  0.4767 -0.9256 -0.8705
  160SAPE   H7S17917   4.717   2.446   7.558  1.5978 -0.0692  1.9044
  160SAPE   C2817918   4.798   2.258   7.627 -0.6313 -0.2474 -0.7716
  160SAPE   H8R17919   4.840   2.162   7.593 -1.3965 -1.4614  1.5903
  160SAPE   C2917920   4.771   2.263   7.761  0.1409 -0.4227 -0.0531
  160SAPE   H9R17921   4.796   2.172   7.818  1.4708  0.6326  1.0754
  160SAPE  C21017922   4.715   2.377   7.842  0.0831  0.0284 -1.0823
  160SAPE  H10R17923   4.609   2.350   7.862  0.2502  2.5453  4.3161
  160SAPE  H10S17924   4.714   2.470   7.782 -0.2006 -0.0878 -1.2556
  160SAPE  C21117925   4.777   2.404   7.977  0.0101  0.2027 -0.6320
  160SAPE  H11R17926   4.887   2.398   7.975 -0.0593 -0.9562 -2.3811
  160SAPE  C21217927   4.713   2.433   8.091  0.1020  0.0283  0.3290
  160SAPE  H12R17928   4.762   2.452   8.188 -0.1978  0.3719  0.4144
  160SAPE  C21317929   4.559   2.444   8.111 -0.0891  0.5121 -0.6638
  160SAPE  H13R17930   4.535   2.384   8.202 -0.0018  2.6284  0.7890
  160SAPE  H13S17931   4.502   2.400   8.027  0.2435  0.1491 -0.6996
  160SAPE  C21417932   4.501   2.582   8.118 -0.3197  0.2712  0.7757
  160SAPE  H14R17933   4.471   2.621   8.020 -0.4308 -2.1399 -0.1853
  160SAPE  C21517934   4.498   2.658   8.228 -0.3089 -0.4778 -0.5731
  160SAPE  H15R17935   4.441   2.750   8.211 -1.5930 -0.8643  1.3954
  160SAPE  C21617936   4.551   2.628   8.363 -0.2187  0.1838  0.2871
  160SAPE  H16R17937   4.583   2.720   8.417  1.3559  1.0792 -2.0652
  160SAPE  H16S17938   4.638   2.558   8.360 -1.2457 -1.0638 -0.8395
  160SAPE  C21717939   4.443   2.563   8.454 -0.3610 -0.0429  0.2080
  160SAPE  H17R17940   4.400   2.474   8.403 -1.1132  0.9755 -0.9615
  160SAPE  H17S17941   4.358   2.631   8.474 -0.7578 -0.0734 -1.3153
  160SAPE  C21817942   4.507   2.521   8.588 -0.4895 -1.2292  0.4968
  160SAPE  H18R17943   4.569   2.610   8.613 -2.2421 -0.1612  1.1767
  160SAPE  H18S17944   4.581   2.447   8.551  0.0625  0.1569 -1.2336
  160SAPE  C21917945   4.412   2.485   8.695  0.0186 -0.0552  0.0484
  160SAPE  H19R17946   4.312   2.533   8.683  0.4073  1.0726  1.2173
  160SAPE  H19S17947   4.454   2.528   8.788  3.2300  0.1360 -1.4210
  160SAPE  C22017948   4.406   2.334   8.695 -0.5073  0.0654  0.2065
  160SAPE  H20R17949   4.504   2.286   8.715 -1.1170 -0.7272  1.3474
  160SAPE  H20S17950   4.382   2.301   8.591  3.3919 -1.0656 -0.4450
  160SAPE  H20T17951   4.328   2.289   8.760  1.4094 -2.3114  0.9315
  160SAPE   C3317952   4.827   2.870   6.965  0.5195  0.2572  0.0716
  160SAPE   H3X17953   4.925   2.920   6.978  0.2761  0.7704 -0.0534
  160SAPE   H3Y17954   4.833   2.763   6.995  2.9256  0.5076  0.5475
  160SAPE   C3417955   4.717   2.933   7.047  0.1542 -0.0881  0.4972
  160SAPE   H4X17956   4.613   2.902   7.022  0.0110  1.8932 -1.5350
  160SAPE   H4Y17957   4.717   3.040   7.016 -0.2514 -0.5138 -1.0311
  160SAPE   C3517958   4.725   2.911   7.197 -0.3570 -0.1488 -0.1124
  160SAPE   H5X17959   4.617   2.934   7.215 -0.0211  3.2012 -1.9287
  160SAPE   H5Y17960   4.786   2.984   7.253  1.3560 -1.5528 -0.1073
  160SAPE   C3617961   4.754   2.767   7.248  0.5894 -0.3277 -0.5566
  160SAPE   H6X17962   4.861   2.744   7.230  0.9067 -1.3537  2.5101
  160SAPE   H6Y17963   4.693   2.698   7.186  0.9111 -1.9451  0.8925
  160SAPE   C3717964   4.722   2.744   7.395 -0.4902  0.1190 -0.4900
  160SAPE   H7X17965   4.723   2.634   7.414 -3.5641  0.2700  0.8026
  160SAPE   H7Y17966   4.620   2.781   7.418 -0.4741 -0.7611  1.1001
  160SAPE   C3817967   4.813   2.809   7.499  0.0095  0.4681  0.2425
  160SAPE   H8X17968   4.795   2.918   7.492 -0.5468  0.2922 -1.1331
  160SAPE   H8Y17969   4.922   2.794   7.483  0.3317  1.0918  1.7286
  160SAPE   C3917970   4.791   2.760   7.641 -0.1532 -0.5480 -0.7308
  160SAPE   H9X17971   4.828   2.657   7.654  1.6131 -0.1070 -2.0576
  160SAPE   H9Y17972   4.682   2.764   7.661 -0.0074 -1.8450  0.3946
  160SAPE  C31017973   4.869   2.841   7.749 -0.4889  0.0059  1.5229
  160SAPE  H10X17974   4.841   2.949   7.744  2.3535  0.7535  0.8452
  160SAPE  H10Y17975   4.978   2.832   7.732 -0.3715 -0.5075  2.4618
  160SAPE  C31117976   4.836   2.784   7.892  0.1580  0.2267 -0.2133
  160SAPE  H11X17977   4.839   2.673   7.889  2.8729  0.3045 -1.8879
  160SAPE  H11Y17978   4.728   2.808   7.901 -0.4983 -2.5370 -0.2144
  160SAPE  C31217979   4.925   2.820   8.012  0.1076 -0.1174  0.3157
  160SAPE  H12X17980   4.925   2.928   8.038  1.3668  0.1905 -0.9375
  160SAPE  H12Y17981   5.030   2.798   7.985 -0.0896 -0.5397 -0.1174
  160SAPE  C31317982   4.876   2.750   8.141 -0.2541 -1.0436  0.8643
  160SAPE  H13X17983   4.854   2.642   8.121 -1.0183 -0.4915 -1.5264
  160SAPE  H13Y17984   4.773   2.776   8.174 -0.9039  2.1046 -3.1891
  160SAPE  C31417985   4.965   2.759   8.259  0.2669  0.7193 -0.6234
  160SAPE  H14X17986   5.013   2.858   8.270  2.2761 -0.1331 -1.3645
  160SAPE  H14Y17987   5.043   2.679   8.254 -0.4822 -0.0551  0.0160
  160SAPE  C31517988   4.891   2.720   8.392 -0.0445  0.0624 -0.1028
  160SAPE  H15X17989   4.867   2.612   8.381  0.4170  0.1501 -2.0853
  160SAPE  H15Y17990   4.799   2.782   8.399 -0.8004 -1.1361  0.9530
  160SAPE  C31617991   4.991   2.744   8.500 -0.4592  0.8211  0.5382
  160SAPE  H16X17992   5.040   2.841   8.480 -0.2689  1.1821  2.7299
  160SAPE  H16Y17993   5.069   2.665   8.487  0.4241  1.5416  1.4548
  160SAPE  C31717994   4.930   2.748   8.641 -0.3622 -0.4394  0.5071
  160SAPE  H17X17995   5.015   2.725   8.709  0.6726  0.9021 -0.2938
  160SAPE  H17Y17996   4.850   2.672   8.651  1.2104 -2.5536 -2.4547
  160SAPE  C31817997   4.871   2.885   8.683  0.5551 -0.6619 -0.0502
  160SAPE  H18X17998   4.941   2.968   8.659 -2.2696  1.5247 -1.0431
  160SAPE  H18Y17999   4.825   2.901   8.783  1.3205 -1.1974  0.3897
  160SAPE  H18Z18000   4.786   2.898   8.611 -0.2667 -1.5895  0.7332
  161SAPE     N18001   0.519   1.067   6.301 -0.1400  0.3437 -0.0289
  161SAPE   HN118002   0.605   1.027   6.260  0.3356  0.1243  1.1604
  161SAPE   HN218003   0.505   1.167   6.274 -0.7013 -0.0245 -1.1218
  161SAPE   HN318004   0.528   1.057   6.404  0.0107 -0.3579 -0.1108
  161SAPE   C1218005   0.411   0.978   6.242  0.4585  0.0459 -0.5274
  161SAPE  H12A18006   0.406   1.001   6.134  0.9885  0.5775 -0.4481
  161SAPE  H12B18007   0.319   0.995   6.302 -0.1720 -1.9673 -0.9126
  161SAPE   C1118008   0.440   0.828   6.267 -0.1880  0.8345  0.6187
  161SAPE  H11A18009   0.350   0.783   6.219 -0.0998  0.5718  0.7002
  161SAPE  H11B18010   0.445   0.797   6.373  1.9131 -0.2264  0.2305
  161SAPE     P18011   0.692   0.767   6.254  0.1829  0.1714  0.2009
  161SAPE   O1318012   0.773   0.659   6.192 -0.8041 -0.2273  0.1629
  161SAPE   O1418013   0.751   0.904   6.256 -0.0718 -0.7753  0.5291
  161SAPE   O1218014   0.552   0.778   6.192  0.4157 -0.3571  0.2626
  161SAPE   O1118015   0.678   0.729   6.405  1.0752 -0.0606 -0.4606
  161SAPE    C118016   0.643   0.597   6.431 -0.2482  0.1168 -0.2426
  161SAPE    HA18017   0.533   0.596   6.447 -0.1470  1.0183  0.5185
  161SAPE    HB18018   0.657   0.515   6.356 -2.1219 -1.3882  1.0057
  161SAPE    C218019   0.713   0.536   6.553  0.1900 -1.1518  0.3434
  161SAPE    HS18020   0.678   0.434   6.580 -2.6381 -0.0241  1.1609
  161SAPE   O2118021   0.702   0.617   6.669  0.6203 -0.0187 -0.2159
  161SAPE   C2118022   0.595   0.635   6.730 -0.2359 -0.1279 -0.4468
  161SAPE   O2218023   0.484   0.597   6.703  0.0159 -0.4693  0.0809
  161SAPE   C2218024   0.638   0.704   6.864 -0.5456  0.0496  0.0809
  161SAPE   H2R18025   0.748   0.716   6.863 -0.2288 -2.5297  0.9977
  161SAPE   H2S18026   0.596   0.806   6.851  3.0089  1.8577  2.0637
  161SAPE    C318027   0.862   0.528   6.521 -0.6578 -0.8388 -0.5293
  161SAPE    HX18028   0.889   0.632   6.493 -0.7729 -0.4217  0.8965
  161SAPE    HY18029   0.875   0.449   6.444 -0.5105 -0.6711 -0.6756
  161SAPE   O3118030   0.944   0.487   6.639 -0.4807  0.6606  0.3731
  161SAPE   C3118031   1.064   0.448   6.606 -0.1923 -0.7707 -0.0930
  161SAPE   O3218032   1.115   0.453   6.494  0.6645 -0.0602  0.1894
  161SAPE   C3218033   1.143   0.399   6.733 -0.3959  0.4426 -0.3611
  161SAPE   H2X18034   1.073   0.402   6.820 -0.3029  0.1348 -0.2716
  161SAPE   H2Y18035   1.236   0.456   6.750  0.0065 -0.2483 -0.2326
  161SAPE   C2318036   0.580   0.640   6.992  0.2056  0.0529  0.4773
  161SAPE   H3R18037   0.470   0.650   6.981  0.4943  1.2024 -1.5124
  161SAPE   H3S18038   0.609   0.691   7.086  1.6209 -0.7927  0.5237
  161SAPE   C2418039   0.613   0.499   7.024  0.6023 -0.0377  0.0022
  161SAPE   H4R18040   0.569   0.433   6.946  0.6337 -1.4865  1.1922
  161SAPE   H4S18041   0.564   0.471   7.119 -0.7661  1.6895 -0.1764
  161SAPE   C2518042   0.755   0.472   7.050  0.3388  0.2502 -0.2464
  161SAPE   H5R18043   0.816   0.503   6.964 -0.9103  3.0977 -0.1533
  161SAPE   C2618044   0.822   0.420   7.157  0.1024 -0.6235 -0.0945
  161SAPE   H6R18045   0.931   0.413   7.147 -0.1944 -0.5123 -4.1248
  161SAPE   C2718046   0.756   0.372   7.288  0.3445 -0.4705  0.2356
  161SAPE   H7R18047   0.816   0.290   7.332  3.2291  1.4006 -0.0623
  161SAPE   H7S18048   0.656   0.329   7.264  0.0867 -0.6569  1.5984
  161SAPE   C2818049   0.733   0.488   7.386 -0.4640 -0.7349 -0.0572
  161SAPE   H8R18050   0.691   0.574   7.331  2.6033  0.5624 -0.4304
  161SAPE   C2918051   0.740   0.490   7.522 -0.5574  0.2214  0.5348
  161SAPE   H9R18052   0.721   0.584   7.576  0.6920 -0.0742  1.5281
  161SAPE  C21018053   0.777   0.379   7.614  0.1533 -0.5519  0.6016
  161SAPE  H10R18054   0.874   0.384   7.667  0.2369  0.8788  0.3297
  161SAPE  H10S18055   0.780   0.277   7.570  2.0020 -0.2819  0.0731
  161SAPE  C21118056   0.658   0.381   7.717  0.3662  0.3890  0.2400
  161SAPE  H11R18057   0.563   0.414   7.671  0.1703 -0.5396 -0.0278
  161SAPE  C21218058   0.652   0.353   7.848  0.1148 -0.6069 -0.1226
  161SAPE  H12R18059   0.564   0.388   7.904  0.1720 -2.4689  1.2035
  161SAPE  C21318060   0.772   0.305   7.932  0.2311  0.2714  0.1467
  161SAPE  H13R18061   0.842   0.390   7.931  0.5264  0.0364  0.9135
  161SAPE  H13S18062   0.819   0.217   7.883 -0.9349  0.2536 -0.9707
  161SAPE  C21418063   0.730   0.270   8.072 -0.9133  0.4219 -0.3490
  161SAPE  H14R18064   0.637   0.211   8.080  0.3018 -1.8299 -2.3482
  161SAPE  C21518065   0.808   0.288   8.184  0.3321  0.5205  0.0847
  161SAPE  H15R18066   0.781   0.243   8.281  1.5420  1.6233  0.9526
  161SAPE  C21618067   0.939   0.345   8.186  0.1669 -0.5714  0.6050
  161SAPE  H16R18068   0.966   0.409   8.099 -2.1876  0.9721  0.9733
  161SAPE  H16S18069   1.031   0.282   8.193  0.2550 -0.4203  0.8135
  161SAPE  C21718070   0.954   0.440   8.304 -0.6763  0.4922 -0.4042
  161SAPE  H17R18071   0.881   0.523   8.307 -1.6497 -0.3364 -0.9528
  161SAPE  H17S18072   1.052   0.492   8.292  0.2377 -0.6287  1.7157
  161SAPE  C21818073   0.964   0.373   8.447  0.5470 -0.8676 -1.0875
  161SAPE  H18R18074   1.070   0.353   8.474 -0.2245 -0.4795  2.5179
  161SAPE  H18S18075   0.902   0.281   8.445  0.2205 -0.6299 -2.2841
  161SAPE  C21918076   0.894   0.459   8.556  0.1596 -0.9128  0.2015
  161SAPE  H19R18077   0.879   0.387   8.639  2.8242 -0.1071  1.4452
  161SAPE  H19S18078   0.802   0.498   8.507  0.7446 -0.7525 -0.7701
  161SAPE  C22018079   0.982   0.573   8.591  0.5487  0.4699 -0.5613
  161SAPE  H20R18080   1.004   0.643   8.507 -2.4348  0.6410 -1.2776
  161SAPE  H20S18081   1.078   0.534   8.630  1.1628  1.0915 -1.4177
  161SAPE  H20T18082   0.928   0.643   8.658 -1.3530  0.1095 -1.6741
  161SAPE   C3318083   1.177   0.245   6.728  0.0968  0.4266 -0.5789
  161SAPE   H3X18084   1.242   0.230   6.639 -3.7567 -1.0222 -3.3205
  161SAPE   H3Y18085   1.082   0.187   6.719  0.3408 -0.2514  1.1209
  161SAPE   C3418086   1.242   0.191   6.858  0.5246 -0.6466  0.7073
  161SAPE   H4X18087   1.301   0.284   6.872  0.5850 -0.6426  0.4330
  161SAPE   H4Y18088   1.313   0.108   6.838  1.4978  1.0413 -3.1815
  161SAPE   C3518089   1.150   0.164   6.985  0.6177 -0.3152  0.2083
  161SAPE   H5X18090   1.106   0.062   6.981 -1.5281  0.5222  1.7805
  161SAPE   H5Y18091   1.078   0.248   6.980  0.3405 -0.4289  2.0333
  161SAPE   C3618092   1.233   0.169   7.112  0.7506  0.1112 -0.0860
  161SAPE   H6X18093   1.301   0.256   7.122  1.5514 -0.5312  0.1060
  161SAPE   H6Y18094   1.298   0.079   7.102 -0.6316 -0.9509  0.3819
  161SAPE   C3718095   1.147   0.165   7.245 -0.2568  0.2707  0.0332
  161SAPE   H7X18096   1.065   0.091   7.231 -0.1837  0.0756  0.6038
  161SAPE   H7Y18097   1.099   0.264   7.264 -0.7590  0.3632 -1.7076
  161SAPE   C3818098   1.215   0.137   7.388 -0.2491  0.0663 -0.2627
  161SAPE   H8X18099   1.296   0.213   7.395  0.2717 -0.5684  0.7034
  161SAPE   H8Y18100   1.246   0.030   7.393  0.4650  0.2165 -1.4042
  161SAPE   C3918101   1.133   0.167   7.519  0.0391  0.0624 -0.1292
  161SAPE   H9X18102   1.055   0.089   7.531  0.2469 -0.3208 -1.2252
  161SAPE   H9Y18103   1.088   0.268   7.527  0.8676  0.3590  0.9479
  161SAPE  C31018104   1.229   0.145   7.635 -0.3705 -0.0474  1.1408
  161SAPE  H10X18105   1.315   0.215   7.634  0.2336 -0.7781  0.2176
  161SAPE  H10Y18106   1.276   0.046   7.620 -0.1084  0.3199 -0.6367
  161SAPE  C31118107   1.167   0.152   7.779 -0.3820 -0.3637  0.2926
  161SAPE  H11X18108   1.095   0.237   7.788 -1.2258 -0.7744 -2.2230
  161SAPE  H11Y18109   1.255   0.181   7.840 -0.4983 -1.4707  0.9933
  161SAPE  C31218110   1.100   0.032   7.837 -0.0778 -0.8696 -0.5381
  161SAPE  H12X18111   1.161  -0.057   7.809 -0.4527 -0.4972 -2.6068
  161SAPE  H12Y18112   1.004   0.022   7.782 -0.3817  0.3053 -0.2335
  161SAPE  C31318113   1.062   0.042   7.994 -0.1545 -0.1693  0.4762
  161SAPE  H13X18114   0.992   0.127   8.011  1.9643  1.6403  0.3574
  161SAPE  H13Y18115   1.150   0.077   8.053 -0.6405  0.8159  0.6391
  161SAPE  C31418116   1.012  -0.085   8.060  0.1626 -0.5452 -0.0813
  161SAPE  H14X18117   1.084  -0.157   8.018  1.6038  0.4910  0.5598
  161SAPE  H14Y18118   0.912  -0.102   8.015  0.7334 -2.3315 -0.6867
  161SAPE  C31518119   0.998  -0.089   8.214 -0.3241  0.1110 -0.4273
  161SAPE  H15X18120   0.923  -0.018   8.255 -0.6205 -1.0529  1.0836
  161SAPE  H15Y18121   1.094  -0.051   8.254 -1.5474  1.4526  1.3077
  161SAPE  C31618122   0.973  -0.235   8.271  0.4009  0.1662 -0.0816
  161SAPE  H16X18123   1.041  -0.285   8.199 -0.2532  1.5550 -1.6942
  161SAPE  H16Y18124   0.868  -0.263   8.250  0.4174  0.7101 -0.9493
  161SAPE  C31718125   1.023  -0.245   8.414 -0.0081  0.5578  0.3160
  161SAPE  H17X18126   0.965  -0.169   8.470  0.4292  1.7055 -0.7703
  161SAPE  H17Y18127   1.134  -0.235   8.421  0.4834 -2.0579 -2.7978
  161SAPE  C31818128   0.990  -0.376   8.487  0.5578 -0.0638 -0.1844
  161SAPE  H18X18129   1.046  -0.385   8.582  0.6334 -0.3255 -0.2551
  161SAPE  H18Y18130   1.020  -0.455   8.415  1.1894 -0.1439  0.1648
  161SAPE  H18Z18131   0.884  -0.382   8.520  0.6972 -3.5804 -0.2017
  162SAPE     N18132   6.323   3.237   6.052  1.1053 -0.4601 -0.3077
  162SAPE   HN118133   6.419   3.200   6.036  1.5262  1.1419 -1.6479
  162SAPE   HN218134   6.273   3.175   6.119  3.0642 -2.3465 -0.5073
  162SAPE   HN318135   6.268   3.242   5.964 -1.6365  0.7598  1.4339
  162SAPE   C1218136   6.319   3.385   6.092  0.3800 -0.0727 -0.3896
  162SAPE  H12A18137   6.264   3.436   6.009 -0.3835 -1.6443 -0.8751
  162SAPE  H12B18138   6.425   3.410   6.115  0.4167  1.4212 -2.0722
  162SAPE   C1118139   6.239   3.406   6.223  0.0181  0.3587  0.0595
  162SAPE  H11A18140   6.235   3.517   6.237  2.1729  0.6047 -1.0929
  162SAPE  H11B18141   6.292   3.361   6.310 -1.0807 -1.1117 -0.0191
  162SAPE     P18142   6.043   3.226   6.277 -0.2134  0.0111 -0.2262
  162SAPE   O1318143   5.903   3.224   6.242  0.0695  0.2214 -0.3313
  162SAPE   O1418144   6.127   3.116   6.227 -0.3283  0.1323  1.1103
  162SAPE   O1218145   6.101   3.353   6.212 -0.2720  0.1524 -1.2932
  162SAPE   O1118146   6.075   3.251   6.429 -0.5211 -0.0411 -0.3853
  162SAPE    C118147   5.986   3.328   6.510  0.2336 -0.8082 -0.5566
  162SAPE    HA18148   5.887   3.279   6.511 -0.0576 -0.2473 -1.5258
  162SAPE    HB18149   6.022   3.328   6.615  0.0212 -0.3397 -0.4801
  162SAPE    C218150   5.987   3.479   6.475  0.3420 -0.0678  0.0913
  162SAPE    HS18151   5.970   3.487   6.366  0.4388  0.4751  0.1164
  162SAPE   O2118152   6.112   3.532   6.525 -0.7744  0.4133 -0.6013
  162SAPE   C2118153   6.138   3.649   6.480  0.1497  0.1846  0.2379
  162SAPE   O2218154   6.079   3.709   6.393  0.0327 -0.1405  0.1549
  162SAPE   C2218155   6.249   3.706   6.564  0.4929 -0.7443  0.0995
  162SAPE   H2R18156   6.243   3.816   6.567 -1.4154 -0.7720 -2.0786
  162SAPE   H2S18157   6.244   3.667   6.668 -0.1330 -0.9113  0.0038
  162SAPE    C318158   5.857   3.547   6.535  0.8004  0.1335 -0.1146
  162SAPE    HX18159   5.767   3.508   6.484  0.8261 -1.1304  0.7845
  162SAPE    HY18160   5.856   3.654   6.505 -0.9120  0.5545  1.3768
  162SAPE   O3118161   5.844   3.513   6.673 -0.4478  0.2751  0.1981
  162SAPE   C3118162   5.914   3.598   6.758 -0.0994  0.1463 -0.3036
  162SAPE   O3218163   5.965   3.703   6.731  0.2294 -0.3975 -1.0141
  162SAPE   C3218164   5.904   3.537   6.894  0.4519  0.4572 -0.6370
  162SAPE   H2X18165   5.950   3.436   6.899  0.2697  0.3389 -1.3487
  162SAPE   H2Y18166   5.798   3.541   6.927  0.2789 -0.7350 -1.0305
  162SAPE   C2318167   6.387   3.657   6.513 -0.0986  0.1673 -0.0851
  162SAPE   H3R18168   6.405   3.682   6.406  0.8630 -0.8250 -0.1623
  162SAPE   H3S18169   6.385   3.547   6.518  0.5158  0.1867  0.7713
  162SAPE   C2418170   6.497   3.711   6.605 -0.2532  0.0392 -0.3518
  162SAPE   H4R18171   6.470   3.700   6.712 -2.6616 -0.2016 -0.9499
  162SAPE   H4S18172   6.507   3.818   6.574  2.3340 -0.8208 -2.6811
  162SAPE   C2518173   6.630   3.648   6.567  0.5397 -0.2850 -0.2825
  162SAPE   H5R18174   6.655   3.614   6.466  0.7731 -1.6649  0.2255
  162SAPE   C2618175   6.735   3.640   6.658 -0.4215  0.3197  0.0525
  162SAPE   H6R18176   6.831   3.602   6.620 -0.7264  0.8381 -1.2738
  162SAPE   C2718177   6.745   3.676   6.798  0.0366  0.3013 -0.0241
  162SAPE   H7R18178   6.652   3.728   6.831 -0.0392 -0.5606  1.1721
  162SAPE   H7S18179   6.824   3.753   6.811 -1.0845  1.6370 -0.9576
  162SAPE   C2818180   6.790   3.560   6.883 -0.0456 -0.8349 -0.1340
  162SAPE   H8R18181   6.896   3.533   6.874  0.0204 -1.1212  1.3500
  162SAPE   C2918182   6.714   3.509   6.976  0.1876 -0.1977  0.0919
  162SAPE   H9R18183   6.751   3.423   7.035 -2.8187 -2.2102 -0.8025
  162SAPE  C21018184   6.575   3.552   7.023  0.5477  0.5132  0.2392
  162SAPE  H10R18185   6.518   3.473   7.076 -0.2389  0.8745 -0.0421
  162SAPE  H10S18186   6.506   3.578   6.939  1.6951  2.4898 -0.1291
  162SAPE  C21118187   6.582   3.679   7.101 -0.0702  0.4213  0.4282
  162SAPE  H11R18188   6.647   3.758   7.060  0.7218  0.2106  1.2505
  162SAPE  C21218189   6.512   3.702   7.212  0.3634 -0.4300  0.5206
  162SAPE  H12R18190   6.522   3.803   7.254 -3.5830  0.6914 -0.9885
  162SAPE  C21318191   6.417   3.609   7.283  0.0316 -0.1608 -0.6412
  162SAPE  H13R18192   6.360   3.561   7.201 -1.3634  0.3601  0.0013
  162SAPE  H13S18193   6.348   3.667   7.348  1.2098 -0.9893  1.4297
  162SAPE  C21418194   6.493   3.506   7.364  0.0444 -0.5709  0.1063
  162SAPE  H14R18195   6.590   3.465   7.333 -0.5436 -2.1185  0.2918
  162SAPE  C21518196   6.445   3.456   7.480 -0.3030 -0.4809 -1.0794
  162SAPE  H15R18197   6.511   3.379   7.524  0.3475  0.6008 -0.1356
  162SAPE  C21618198   6.320   3.492   7.547  0.3903  0.3989 -0.1086
  162SAPE  H16R18199   6.252   3.404   7.551  0.1497  0.3284 -3.9394
  162SAPE  H16S18200   6.255   3.556   7.484 -0.9648  0.4094  1.2601
  162SAPE  C21718201   6.324   3.563   7.685  0.2526 -0.2618  0.5003
  162SAPE  H17R18202   6.260   3.654   7.687 -1.0126 -1.1049 -0.6002
  162SAPE  H17S18203   6.426   3.607   7.693 -0.4818  1.5371  0.3445
  162SAPE  C21818204   6.281   3.482   7.805  0.1853  0.0083  0.3882
  162SAPE  H18R18205   6.170   3.475   7.802  0.2626 -1.7430  1.4320
  162SAPE  H18S18206   6.305   3.535   7.900  1.0841 -1.7982  1.1958
  162SAPE  C21918207   6.344   3.341   7.814  0.1456 -0.4616  0.1393
  162SAPE  H19R18208   6.444   3.348   7.767  0.1254  1.3493  0.3252
  162SAPE  H19S18209   6.291   3.273   7.744  3.4478 -2.5092 -0.4841
  162SAPE  C22018210   6.342   3.288   7.955  0.5100 -0.1957 -0.3478
  162SAPE  H20R18211   6.416   3.326   8.028  0.8375 -2.4400  0.5376
  162SAPE  H20S18212   6.349   3.178   7.938  2.3021  0.4603 -4.5450
  162SAPE  H20T18213   6.238   3.305   7.990  0.5780 -0.4458 -0.0187
  162SAPE   C3318214   5.985   3.626   6.989 -0.7543 -0.2479 -0.5490
  162SAPE   H3X18215   5.956   3.733   6.993 -0.0237 -0.0745  0.0629
  162SAPE   H3Y18216   6.095   3.613   6.979 -0.4619  0.0246  1.9250
  162SAPE   C3418217   5.945   3.580   7.132  0.6912  0.3208 -0.2036
  162SAPE   H4X18218   5.937   3.469   7.135 -0.1403  0.4121  1.8665
  162SAPE   H4Y18219   5.848   3.625   7.162  2.0488  1.8400  2.0498
  162SAPE   C3518220   6.048   3.613   7.246  0.2593  0.2876 -0.9673
  162SAPE   H5X18221   6.078   3.720   7.244 -0.6220  0.5809  0.5044
  162SAPE   H5Y18222   6.143   3.557   7.240  0.4374  0.7583 -2.6562
  162SAPE   C3618223   5.970   3.591   7.379 -0.5808  0.3224 -0.5070
  162SAPE   H6X18224   6.030   3.545   7.460 -1.2299  3.0923  1.6154
  162SAPE   H6Y18225   5.887   3.518   7.364 -0.2995 -0.7626  2.7407
  162SAPE   C3718226   5.894   3.721   7.426  0.4447  0.0847 -0.7510
  162SAPE   H7X18227   5.848   3.777   7.342  2.0567  2.1989 -0.2546
  162SAPE   H7Y18228   5.963   3.792   7.477  0.0610 -0.8117  1.0787
  162SAPE   C3818229   5.790   3.696   7.538 -0.3162  0.2348  0.3798
  162SAPE   H8X18230   5.706   3.652   7.480 -0.5600 -0.5360  1.3047
  162SAPE   H8Y18231   5.759   3.796   7.575  0.0002  0.5439 -0.1992
  162SAPE   C3918232   5.841   3.626   7.659 -1.1875 -0.0349  0.0665
  162SAPE   H9X18233   5.923   3.689   7.700  1.6506 -1.8881 -2.5002
  162SAPE   H9Y18234   5.895   3.532   7.632  1.0989  1.6533 -1.5411
  162SAPE  C31018235   5.737   3.594   7.763  0.3626 -0.6561 -0.8122
  162SAPE  H10X18236   5.662   3.522   7.724 -0.1685 -0.2574 -0.5312
  162SAPE  H10Y18237   5.692   3.688   7.799  1.3821 -0.9042  1.1881
  162SAPE  C31118238   5.806   3.529   7.888 -0.9815 -0.7529 -0.5163
  162SAPE  H11X18239   5.870   3.448   7.845 -2.0143 -1.1791 -1.2629
  162SAPE  H11Y18240   5.724   3.490   7.952  0.1541 -1.1183  0.7322
  162SAPE  C31218241   5.896   3.617   7.975  0.5665  0.3303  0.0377
  162SAPE  H12X18242   5.844   3.712   8.002  0.2549  1.0299 -2.8906
  162SAPE  H12Y18243   5.976   3.651   7.907  0.6537  0.2157  0.0837
  162SAPE  C31318244   5.966   3.555   8.099  0.7539 -0.3793 -0.3752
  162SAPE  H13X18245   6.049   3.485   8.073  2.6681  1.5900  0.2887
  162SAPE  H13Y18246   5.892   3.502   8.163  0.5699 -0.5280 -0.7135
  162SAPE  C31418247   6.032   3.658   8.200  0.1533  0.1529  0.1333
  162SAPE  H14X18248   5.960   3.741   8.211 -0.7484 -0.7944  1.5272
  162SAPE  H14Y18249   6.116   3.706   8.146  1.0001  0.2335  1.4990
  162SAPE  C31518250   6.086   3.606   8.336  0.0064  0.6355 -0.0901
  162SAPE  H15X18251   6.169   3.535   8.316  0.1723  0.8128 -0.0362
  162SAPE  H15Y18252   6.001   3.545   8.371 -1.2532  1.6972 -1.2654
  162SAPE  C31618253   6.125   3.719   8.434 -0.3074 -0.1899 -0.3615
  162SAPE  H16X18254   6.034   3.772   8.467  0.2375  0.3629  0.2549
  162SAPE  H16Y18255   6.175   3.795   8.371 -0.4855  0.1361 -0.1053
  162SAPE  C31718256   6.200   3.679   8.563  0.4452 -0.3738 -0.2928
  162SAPE  H17X18257   6.279   3.753   8.590 -0.1512 -0.5619  2.0913
  162SAPE  H17Y18258   6.238   3.577   8.543  2.4668 -0.0253  1.5510
  162SAPE  C31818259   6.090   3.663   8.667  0.1267 -0.2652  0.6631
  162SAPE  H18X18260   6.009   3.599   8.625  0.8224 -0.0863 -1.0103
  162SAPE  H18Y18261   6.039   3.757   8.700  0.8896 -0.4208  2.3352
  162SAPE  H18Z18262   6.131   3.607   8.753  0.5590  0.9901  1.2851
  163SAPE     N18263   4.872   1.075   6.688 -0.2770  0.0004 -0.5637
  163SAPE   HN118264   4.854   0.989   6.632 -1.4087 -0.3421  0.2996
  163SAPE   HN218265   4.839   1.155   6.630  1.6976 -0.7977 -2.8872
  163SAPE   HN318266   4.973   1.094   6.702 -0.2677 -1.0739  0.9458
  163SAPE   C1218267   4.784   1.079   6.809 -0.7299 -0.1395 -0.7706
  163SAPE  H12A18268   4.808   0.986   6.864  1.7895 -0.4680 -2.3718
  163SAPE  H12B18269   4.678   1.064   6.778 -1.0047  1.7702 -0.8108
  163SAPE   C1118270   4.808   1.213   6.886 -0.2681  0.5190  0.0038
  163SAPE  H11A18271   4.914   1.207   6.918  0.7808 -0.7685 -3.4727
  163SAPE  H11B18272   4.733   1.227   6.967 -1.1912 -1.8371 -0.4080
  163SAPE     P18273   4.702   1.364   6.684  0.1266  0.4013 -0.3159
  163SAPE   O1318274   4.699   1.507   6.665 -0.0896  0.7751 -0.2854
  163SAPE   O1418275   4.749   1.287   6.569  0.0030 -0.0274  0.3003
  163SAPE   O1218276   4.800   1.328   6.800 -0.7422  0.1802 -0.3386
  163SAPE   O1118277   4.566   1.308   6.744 -0.2567 -0.0421  0.5827
  163SAPE    C118278   4.452   1.387   6.780 -0.1375  0.3848  0.2772
  163SAPE    HA18279   4.466   1.494   6.753  1.2543  0.3258  0.7101
  163SAPE    HB18280   4.364   1.353   6.722 -0.2895  0.5640  0.4040
  163SAPE    C218281   4.436   1.377   6.934 -0.4644 -0.1452  0.5241
  163SAPE    HS18282   4.348   1.428   6.978 -0.0810  1.5597 -0.6510
  163SAPE   O2118283   4.555   1.422   6.998  0.2330 -0.6071  0.0258
  163SAPE   C2118284   4.560   1.557   7.014 -0.1199 -0.3293 -0.2257
  163SAPE   O2218285   4.476   1.639   6.981  0.2772  0.2609  0.4840
  163SAPE   C2218286   4.703   1.585   7.063 -0.2320  0.1166 -0.1584
  163SAPE   H2R18287   4.771   1.511   7.015  0.3366  1.2415 -1.1207
  163SAPE   H2S18288   4.740   1.684   7.031  0.1915 -0.5439 -1.7391
  163SAPE    C318289   4.418   1.226   6.976 -0.1803  0.2700 -0.6058
  163SAPE    HX18290   4.514   1.173   6.959  0.2093  0.2815  1.3719
  163SAPE    HY18291   4.349   1.172   6.908  0.3494 -0.0835 -0.8635
  163SAPE   O3118292   4.377   1.199   7.111 -0.5817  0.0853  0.0351
  163SAPE   C3118293   4.247   1.174   7.134 -0.4899  0.4997 -0.0376
  163SAPE   O3218294   4.158   1.192   7.060  0.3023 -0.3778  0.4618
  163SAPE   C3218295   4.229   1.135   7.280 -0.1076  0.7018  0.6063
  163SAPE   H2X18296   4.273   1.218   7.341 -0.0288  0.3676  1.0048
  163SAPE   H2Y18297   4.297   1.050   7.303  0.2210  0.7110 -0.3453
  163SAPE   C2318298   4.710   1.588   7.214 -0.8581 -0.0211 -0.1680
  163SAPE   H3R18299   4.631   1.659   7.249  0.2512  0.7705  0.7837
  163SAPE   H3S18300   4.807   1.635   7.239 -0.7561 -0.4610  0.2653
  163SAPE   C2418301   4.714   1.450   7.286 -0.5082 -0.4611  0.0608
  163SAPE   H4R18302   4.775   1.446   7.378 -1.5654 -0.6634  0.7655
  163SAPE   H4S18303   4.767   1.382   7.216  1.6900  1.3994 -0.1399
  163SAPE   C2518304   4.583   1.391   7.324  0.0443 -0.1173  0.2435
  163SAPE   H5R18305   4.522   1.351   7.241 -2.0414 -0.1224  1.7326
  163SAPE   C2618306   4.528   1.395   7.442  0.4651  0.9286 -0.1085
  163SAPE   H6R18307   4.435   1.344   7.469  1.4270 -0.8618 -0.0940
  163SAPE   C2718308   4.583   1.450   7.571 -0.1920  0.2822  0.0741
  163SAPE   H7R18309   4.501   1.493   7.632 -0.9410 -1.5466  0.4008
  163SAPE   H7S18310   4.664   1.524   7.562  1.0775 -1.0699  0.2150
  163SAPE   C2818311   4.654   1.333   7.632  0.2771  0.0780  0.0570
  163SAPE   H8R18312   4.744   1.293   7.583  1.3599  0.4465  1.7106
  163SAPE   C2918313   4.621   1.265   7.741 -0.6732 -0.6064 -0.1445
  163SAPE   H9R18314   4.687   1.184   7.773 -1.5473 -2.3628 -2.5820
  163SAPE  C21018315   4.500   1.290   7.824  0.1118 -0.1052  0.0281
  163SAPE  H10R18316   4.490   1.192   7.877 -3.6625 -0.6254 -1.4909
  163SAPE  H10S18317   4.410   1.297   7.759  0.1295 -0.3433 -0.0212
  163SAPE  C21118318   4.509   1.409   7.918  0.3786  0.4623  0.0624
  163SAPE  H11R18319   4.451   1.498   7.889  0.0447  0.1519 -0.2368
  163SAPE  C21218320   4.581   1.414   8.029  1.0547 -0.7852  0.5437
  163SAPE  H12R18321   4.586   1.511   8.079  0.8209 -0.2487 -0.4645
  163SAPE  C21318322   4.669   1.313   8.083  0.1762  0.0669 -0.4212
  163SAPE  H13R18323   4.696   1.226   8.019  1.8083  0.1697  0.1189
  163SAPE  H13S18324   4.613   1.262   8.164  1.8213 -2.3926 -0.7995
  163SAPE  C21418325   4.799   1.372   8.140  0.1614 -0.2462  0.3323
  163SAPE  H14R18326   4.852   1.445   8.077 -0.4345 -1.3106 -1.4202
  163SAPE  C21518327   4.845   1.344   8.264 -0.3499  0.7307  0.7391
  163SAPE  H15R18328   4.941   1.387   8.298 -0.9388  0.6026  2.5932
  163SAPE  C21618329   4.777   1.255   8.364  0.0254 -0.0148 -0.7216
  163SAPE  H16R18330   4.671   1.282   8.387  0.6916  0.3456  2.1723
  163SAPE  H16S18331   4.815   1.259   8.469 -0.1815 -1.2066 -0.5853
  163SAPE  C21718332   4.780   1.100   8.333  0.2069  0.0430  0.5717
  163SAPE  H17R18333   4.887   1.069   8.323  0.3486  1.4472 -3.3597
  163SAPE  H17S18334   4.729   1.074   8.238  2.1380  3.0489 -1.3908
  163SAPE  C21818335   4.703   1.023   8.448  0.1596  0.0704 -0.4067
  163SAPE  H18R18336   4.599   1.061   8.462  0.3045  0.0627  0.6974
  163SAPE  H18S18337   4.752   1.042   8.545 -0.7430  1.4133 -0.2042
  163SAPE  C21918338   4.703   0.871   8.425 -0.0372  0.2642  0.3234
  163SAPE  H19R18339   4.674   0.834   8.324  0.0569 -2.7257  1.3387
  163SAPE  H19S18340   4.626   0.843   8.501  1.0733  1.1046  1.7783
  163SAPE  C22018341   4.833   0.806   8.467 -0.2468  0.3715 -0.0916
  163SAPE  H20R18342   4.901   0.816   8.379  0.7461  1.0766  0.7374
  163SAPE  H20S18343   4.826   0.700   8.497 -0.4428  0.9041  1.8108
  163SAPE  H20T18344   4.877   0.870   8.546 -1.6915  2.0123 -0.5822
  163SAPE   C3318345   4.081   1.114   7.318 -0.1401 -0.5953  0.0561
  163SAPE   H3X18346   4.029   1.072   7.230  0.2112 -0.9076  0.0004
  163SAPE   H3Y18347   4.026   1.204   7.353  0.7224 -0.1372  0.2386
  163SAPE   C3418348   4.071   1.006   7.432  0.3803  0.0203  0.2583
  163SAPE   H4X18349   4.104   0.907   7.395 -1.2156 -0.1909 -0.6750
  163SAPE   H4Y18350   3.962   1.002   7.454  0.4646  0.6702  0.8226
  163SAPE   C3518351   4.138   1.051   7.564 -0.2714  0.3849 -0.0788
  163SAPE   H5X18352   4.104   1.153   7.593  0.0908  0.5318 -0.1680
  163SAPE   H5Y18353   4.245   1.068   7.541  0.0147  0.5322  1.3242
  163SAPE   C3618354   4.118   0.963   7.684 -0.4253 -0.3592  0.3288
  163SAPE   H6X18355   4.164   0.865   7.661  0.4877 -0.1343  1.1653
  163SAPE   H6Y18356   4.012   0.960   7.719 -0.4896 -0.0547  0.1596
  163SAPE   C3718357   4.213   1.010   7.795 -0.4256  0.9467  0.1579
  163SAPE   H7X18358   4.191   1.113   7.831  2.2378  1.3423  0.7476
  163SAPE   H7Y18359   4.316   1.012   7.754 -1.2876  0.9093 -2.0856
  163SAPE   C3818360   4.210   0.907   7.911  0.1723  0.3458 -0.0158
  163SAPE   H8X18361   4.251   0.806   7.888 -1.4959 -0.2733 -0.3485
  163SAPE   H8Y18362   4.102   0.893   7.932  0.3382  0.7535  1.1530
  163SAPE   C3918363   4.274   0.971   8.035  0.1749 -0.3733 -0.7838
  163SAPE   H9X18364   4.229   1.072   8.050  1.2018  0.0228 -0.3546
  163SAPE   H9Y18365   4.381   0.999   8.026  0.2244 -1.0747 -2.5488
  163SAPE  C31018366   4.254   0.899   8.167  0.7564  0.6587 -0.6292
  163SAPE  H10X18367   4.335   0.822   8.175  0.2450 -0.1190 -2.6401
  163SAPE  H10Y18368   4.152   0.857   8.174  2.1509 -2.7528  0.7196
  163SAPE  C31118369   4.262   0.997   8.276 -0.1208 -0.4889  0.0443
  163SAPE  H11X18370   4.179   1.071   8.283  0.7606  0.5118 -0.0482
  163SAPE  H11Y18371   4.351   1.055   8.246 -0.6130  0.8496  1.1390
  163SAPE  C31218372   4.297   0.929   8.411  0.2336 -0.1567 -0.3935
  163SAPE  H12X18373   4.389   0.868   8.395  1.8098  1.6631  1.5521
  163SAPE  H12Y18374   4.214   0.860   8.438  2.0750 -2.2831 -0.0602
  163SAPE  C31318375   4.319   1.032   8.518  0.3086 -0.0446  0.2720
  163SAPE  H13X18376   4.326   1.135   8.476 -1.9776 -0.1348 -0.3770
  163SAPE  H13Y18377   4.419   1.022   8.567  0.7249  0.5168 -0.4435
  163SAPE  C31418378   4.206   1.055   8.625 -0.5203  0.8189  0.1405
  163SAPE  H14X18379   4.186   0.967   8.689  3.1791 -0.0590  0.2192
  163SAPE  H14Y18380   4.120   1.074   8.557 -0.1231 -1.6662 -1.1051
  163SAPE  C31518381   4.246   1.169   8.722 -0.0813 -0.2359  0.0318
  163SAPE  H15X18382   4.287   1.259   8.670  0.4922 -0.6454 -0.2252
  163SAPE  H15Y18383   4.324   1.133   8.792  0.3602 -2.2728 -1.4607
  163SAPE  C31618384   4.128   1.219   8.799  0.1613 -1.0405  0.4963
  163SAPE  H16X18385   4.176   1.266   8.887 -1.9822  1.2321  0.5189
  163SAPE  H16Y18386   4.079   1.125   8.832  0.0046 -0.8991  0.6673
  163SAPE  C31718387   4.029   1.316   8.727 -0.1310 -0.6343 -0.0348
  163SAPE  H17X18388   4.000   1.273   8.629  0.2274  0.8765 -0.8234
  163SAPE  H17Y18389   4.087   1.411   8.720  0.1222 -0.8757 -1.3569
  163SAPE  C31818390   3.902   1.339   8.813  0.1712  0.2388 -0.0016
  163SAPE  H18X18391   3.838   1.249   8.807 -0.3008  0.6457 -1.3203
  163SAPE  H18Y18392   3.833   1.417   8.775 -1.4046 -1.4647 -0.6953
  163SAPE  H18Z18393   3.921   1.361   8.920  0.5807  3.0259 -0.6091
  164SAPE     N18394   1.143   4.313   5.984 -0.3849  0.3755  0.2876
  164SAPE   HN118395   1.222   4.299   6.050  0.0655  0.4252 -0.2361
  164SAPE   HN218396   1.063   4.352   6.037  1.5036  0.6043  3.0991
  164SAPE   HN318397   1.107   4.229   5.935  0.5620 -0.8299  1.6245
  164SAPE   C1218398   1.205   4.405   5.897 -0.7542 -0.1958 -0.2828
  164SAPE  H12A18399   1.162   4.395   5.795  0.9341 -3.0438 -0.7678
  164SAPE  H12B18400   1.312   4.377   5.883 -0.1219  0.4676  2.7437
  164SAPE   C1118401   1.210   4.550   5.972 -0.1164  0.4478 -0.6138
  164SAPE  H11A18402   1.260   4.629   5.911 -1.3963  1.8919  0.1689
  164SAPE  H11B18403   1.274   4.520   6.057 -0.6041 -0.8859 -0.7080
  164SAPE     P18404   1.070   4.717   6.114  0.0703 -0.3466 -0.1250
  164SAPE   O1318405   1.107   4.837   6.041 -0.1338  0.0404  0.4764
  164SAPE   O1418406   0.936   4.716   6.174  0.2564  0.0742  0.1687
  164SAPE   O1218407   1.082   4.594   6.015  0.3370 -0.2321 -0.0088
  164SAPE   O1118408   1.181   4.682   6.226 -0.2796 -0.4306 -0.2775
  164SAPE    C118409   1.157   4.575   6.315  0.2770  0.8579  0.3606
  164SAPE    HA18410   1.067   4.512   6.298  0.8494 -0.1094  0.9165
  164SAPE    HB18411   1.244   4.507   6.312 -0.3381  0.0214  1.4091
  164SAPE    C218412   1.150   4.630   6.461  0.1011  0.4726 -0.0575
  164SAPE    HS18413   1.071   4.708   6.451 -1.1991 -0.7320  0.6209
  164SAPE   O2118414   1.277   4.679   6.505  0.3390 -0.7956  0.1591
  164SAPE   C2118415   1.269   4.769   6.595  0.4700  0.4918 -0.2791
  164SAPE   O2218416   1.165   4.828   6.622 -0.1477 -0.3125 -0.0675
  164SAPE   C2218417   1.399   4.810   6.648 -0.4271  0.7241  0.7064
  164SAPE   H2R18418   1.459   4.821   6.555  1.5297  3.5275  2.2154
  164SAPE   H2S18419   1.388   4.913   6.688 -0.6407  0.5675  1.0468
  164SAPE    C318420   1.100   4.524   6.558  0.2824  0.0897 -1.1092
  164SAPE    HX18421   1.186   4.455   6.574  0.2086  0.6527  2.1498
  164SAPE    HY18422   1.012   4.466   6.523  1.2006 -1.5534 -0.7378
  164SAPE   O3118423   1.071   4.581   6.680  0.2764 -0.0152 -0.4329
  164SAPE   C3118424   0.958   4.632   6.703 -0.4440 -0.3634  0.2634
  164SAPE   O3218425   0.874   4.659   6.623 -0.4483  0.1003  0.2198
  164SAPE   C3218426   0.933   4.638   6.850 -0.2134  0.4451  0.9227
  164SAPE   H2X18427   0.859   4.717   6.875 -0.2694  1.0197 -0.9700
  164SAPE   H2Y18428   1.026   4.678   6.897 -0.1837  1.7099 -0.1858
  164SAPE   C2318429   1.474   4.730   6.752 -0.9895 -0.1273 -0.7143
  164SAPE   H3R18430   1.575   4.773   6.770  0.0555 -2.3018 -1.2758
  164SAPE   H3S18431   1.499   4.630   6.711  0.1822 -0.3125  0.4263
  164SAPE   C2418432   1.397   4.714   6.883  0.5610  0.4289  0.2595
  164SAPE   H4R18433   1.298   4.668   6.863  1.5036 -0.9686 -1.3128
  164SAPE   H4S18434   1.370   4.815   6.921 -0.3291  0.0787  0.5612
  164SAPE   C2518435   1.472   4.623   6.975  0.3409 -0.2788 -0.5128
  164SAPE   H5R18436   1.580   4.643   6.978  0.1898  0.4044  1.3202
  164SAPE   C2618437   1.424   4.517   7.035 -0.4204 -0.2667  0.0310
  164SAPE   H6R18438   1.487   4.474   7.114 -0.3975  0.2499  0.2977
  164SAPE   C2718439   1.277   4.464   7.032 -0.0668 -0.2582 -0.1829
  164SAPE   H7R18440   1.246   4.465   6.925 -0.8078 -0.1202  0.0321
  164SAPE   H7S18441   1.217   4.548   7.073  0.5783 -0.3498  0.9635
  164SAPE   C2818442   1.252   4.330   7.100 -0.6066 -0.2999  0.5217
  164SAPE   H8R18443   1.259   4.244   7.031 -0.0050  0.2610 -0.1302
  164SAPE   C2918444   1.204   4.314   7.224  0.7532 -0.3168 -0.1718
  164SAPE   H9R18445   1.213   4.209   7.253  0.2329  0.1437  1.7485
  164SAPE  C21018446   1.173   4.423   7.331 -0.5418  0.1506  0.0855
  164SAPE  H10R18447   1.112   4.378   7.413  1.9028  0.3654  2.0915
  164SAPE  H10S18448   1.115   4.510   7.294 -0.0692  0.0359 -0.9272
  164SAPE  C21118449   1.307   4.474   7.388  0.3899  0.1169 -0.0147
  164SAPE  H11R18450   1.356   4.550   7.325  0.3485  1.0847  1.1153
  164SAPE  C21218451   1.357   4.445   7.514 -0.4942 -0.0928  0.1424
  164SAPE  H12R18452   1.464   4.470   7.519 -0.7193  0.7231  1.0262
  164SAPE  C21318453   1.298   4.355   7.620 -0.3230 -0.3172 -0.2325
  164SAPE  H13R18454   1.307   4.246   7.600 -1.4530 -0.3073 -0.8543
  164SAPE  H13S18455   1.189   4.374   7.609  0.4233  3.9807 -1.2916
  164SAPE  C21418456   1.341   4.394   7.761 -0.1335 -0.1419 -0.4324
  164SAPE  H14R18457   1.449   4.410   7.774  0.5703 -3.0217 -2.4567
  164SAPE  C21518458   1.264   4.386   7.875 -0.1150  0.3707  0.2140
  164SAPE  H15R18459   1.307   4.410   7.974  2.5426 -1.8400 -0.3429
  164SAPE  C21618460   1.125   4.342   7.879  0.6903 -0.0277 -0.3051
  164SAPE  H16R18461   1.090   4.301   7.782  0.7524 -0.5032 -0.1284
  164SAPE  H16S18462   1.052   4.422   7.903  0.3640 -0.4813  0.2147
  164SAPE  C21718463   1.124   4.232   7.983  0.2295 -0.3327  0.2630
  164SAPE  H17R18464   1.203   4.155   7.966 -0.7398 -1.3019  0.0802
  164SAPE  H17S18465   1.025   4.185   7.965  0.5220 -1.0485  0.5091
  164SAPE  C21818466   1.123   4.285   8.125 -0.4542 -0.2469  0.9227
  164SAPE  H18R18467   1.034   4.351   8.131  0.6938  1.3639  0.4487
  164SAPE  H18S18468   1.217   4.341   8.144 -0.7470  0.8455 -0.8224
  164SAPE  C21918469   1.092   4.179   8.234  0.4366 -0.6331  0.5848
  164SAPE  H19R18470   1.182   4.116   8.243  0.4418 -0.7559 -0.2466
  164SAPE  H19S18471   1.016   4.110   8.192 -1.5603  0.5674  2.0858
  164SAPE  C22018472   1.043   4.227   8.366 -0.0151 -0.6147 -0.0126
  164SAPE  H20R18473   0.951   4.289   8.362  1.0475  0.8795 -3.0169
  164SAPE  H20S18474   1.121   4.292   8.412  0.3423 -1.4802  0.6249
  164SAPE  H20T18475   1.039   4.142   8.437 -0.6228 -0.9679 -0.4675
  164SAPE   C3318476   0.890   4.510   6.916  0.6031 -0.4030  0.4586
  164SAPE   H3X18477   0.972   4.439   6.891  1.4343  0.6751  0.0873
  164SAPE   H3Y18478   0.795   4.470   6.875  1.0175 -1.6218  0.6437
  164SAPE   C3418479   0.867   4.531   7.062  0.4822 -0.1543  0.0720
  164SAPE   H4X18480   0.775   4.593   7.070  0.6572  0.3823 -1.7477
  164SAPE   H4Y18481   0.949   4.588   7.110 -0.3497  0.9237  0.2161
  164SAPE   C3518482   0.834   4.404   7.139  0.0674 -0.3038 -0.2027
  164SAPE   H5X18483   0.922   4.337   7.148  0.7373  0.4566 -0.9991
  164SAPE   H5Y18484   0.752   4.347   7.090 -0.1682 -0.4962  0.4099
  164SAPE   C3618485   0.810   4.454   7.285  0.4672 -0.7849  0.4357
  164SAPE   H6X18486   0.722   4.521   7.296  0.2784 -1.0299  0.4311
  164SAPE   H6Y18487   0.902   4.502   7.324  0.9678  0.2178 -1.8769
  164SAPE   C3718488   0.781   4.337   7.381 -0.1081 -0.0387  0.1135
  164SAPE   H7X18489   0.863   4.262   7.387 -3.1492 -3.3206  3.0932
  164SAPE   H7Y18490   0.696   4.272   7.349  1.4189 -2.3830  0.6364
  164SAPE   C3818491   0.772   4.394   7.524 -0.5358 -0.6857  0.2717
  164SAPE   H8X18492   0.680   4.457   7.523 -0.0093  0.0936  0.7181
  164SAPE   H8Y18493   0.859   4.455   7.557  1.5364 -3.4351  0.0651
  164SAPE   C3918494   0.740   4.273   7.614 -0.2486 -0.1325 -0.4163
  164SAPE   H9X18495   0.833   4.217   7.637 -0.3799  0.0453  0.5781
  164SAPE   H9Y18496   0.668   4.209   7.557  0.2816  0.6405 -1.9706
  164SAPE  C31018497   0.683   4.316   7.749  0.2823  1.0081  0.4109
  164SAPE  H10X18498   0.576   4.340   7.728  1.0134  2.0507 -2.3147
  164SAPE  H10Y18499   0.734   4.412   7.768 -0.6074  1.4015  0.8488
  164SAPE  C31118500   0.690   4.206   7.854 -0.6291 -0.2413 -0.0500
  164SAPE  H11X18501   0.800   4.213   7.864 -0.8156  2.2506  0.3852
  164SAPE  H11Y18502   0.660   4.106   7.815 -1.1014 -1.7225  3.7962
  164SAPE  C31218503   0.634   4.236   7.995  0.4969  0.2057 -0.4820
  164SAPE  H12X18504   0.523   4.228   7.993  0.3512  0.7440  2.6495
  164SAPE  H12Y18505   0.647   4.343   8.023 -1.1900  0.6902 -1.4708
  164SAPE  C31318506   0.701   4.161   8.115 -0.0695 -0.2028  0.2032
  164SAPE  H13X18507   0.800   4.204   8.143 -1.1483  3.5466 -1.3323
  164SAPE  H13Y18508   0.731   4.063   8.072 -0.1630 -0.0838 -0.1313
  164SAPE  C31418509   0.615   4.136   8.242  0.5699 -0.3565 -0.7373
  164SAPE  H14X18510   0.640   4.034   8.278  0.4626 -0.3762 -0.7188
  164SAPE  H14Y18511   0.507   4.147   8.217  0.6405  1.1696 -0.4486
  164SAPE  C31518512   0.624   4.234   8.355 -0.4707  0.1114  0.4369
  164SAPE  H15X18513   0.609   4.341   8.330  0.5774  0.4407  1.1639
  164SAPE  H15Y18514   0.730   4.225   8.388 -0.1624 -1.2845 -0.9104
  164SAPE  C31618515   0.536   4.196   8.479  0.3271  0.1585 -0.3300
  164SAPE  H16X18516   0.517   4.088   8.498  0.2730  0.0204 -1.1524
  164SAPE  H16Y18517   0.434   4.223   8.443 -0.1516 -0.2109  0.7323
  164SAPE  C31718518   0.581   4.276   8.596  0.3957 -0.7327 -0.1700
  164SAPE  H17X18519   0.607   4.381   8.570  2.2122 -1.0738  0.2451
  164SAPE  H17Y18520   0.680   4.236   8.625  0.4737 -0.1277  0.4328
  164SAPE  C31818521   0.481   4.270   8.709  0.0402  0.8832 -0.4793
  164SAPE  H18X18522   0.382   4.301   8.669  0.5835  0.2287 -2.3618
  164SAPE  H18Y18523   0.504   4.342   8.791 -0.5098  0.7666 -0.2163
  164SAPE  H18Z18524   0.460   4.174   8.761  1.3652  2.0576  2.2855
  165SAPE     N18525   0.939   1.087   6.250  0.0683  0.4305 -0.7699
  165SAPE   HN118526   0.926   1.125   6.346 -0.3203  0.1858 -0.7237
  165SAPE   HN218527   0.861   1.019   6.243  1.6729 -1.4644 -0.5188
  165SAPE   HN318528   1.036   1.053   6.242 -0.5143 -1.0151 -1.9993
  165SAPE   C1218529   0.946   1.209   6.170 -0.0406  0.1004  0.0374
  165SAPE  H12A18530   0.841   1.243   6.155  0.4182  1.5976  0.1593
  165SAPE  H12B18531   0.988   1.188   6.070 -0.2728 -1.1782  0.2005
  165SAPE   C1118532   1.030   1.321   6.234 -0.1265 -0.2763  0.0182
  165SAPE  H11A18533   1.051   1.404   6.162 -0.9550  0.4142  0.5582
  165SAPE  H11B18534   1.122   1.274   6.275 -0.5658 -0.4077  0.8671
  165SAPE     P18535   0.855   1.503   6.326 -0.2651 -0.1991  0.4127
  165SAPE   O1318536   0.916   1.598   6.232  0.2321  0.0245  0.2992
  165SAPE   O1418537   0.714   1.457   6.298 -0.2377 -0.4009 -0.8376
  165SAPE   O1218538   0.955   1.377   6.350 -0.2686 -0.4245 -0.4552
  165SAPE   O1118539   0.851   1.576   6.462 -0.3169 -0.0720  0.6207
  165SAPE    C118540   0.957   1.588   6.560 -0.0471  0.2344 -0.5220
  165SAPE    HA18541   1.050   1.549   6.513 -1.5979 -1.3278 -2.3682
  165SAPE    HB18542   0.987   1.695   6.568 -0.2243  0.2562 -0.1445
  165SAPE    C218543   0.918   1.534   6.704 -0.5369 -0.0498  0.0625
  165SAPE    HS18544   0.893   1.627   6.760  0.9120  0.8433 -0.7253
  165SAPE   O2118545   1.022   1.446   6.754 -0.2712  0.3410  0.5935
  165SAPE   C2118546   1.131   1.510   6.789 -0.4205 -0.8003 -0.1472
  165SAPE   O2218547   1.136   1.629   6.814  0.3363  0.1537  0.0450
  165SAPE   C2218548   1.254   1.424   6.793  0.3746 -0.5963 -0.2003
  165SAPE   H2R18549   1.222   1.323   6.759 -0.8612 -0.3155  0.0883
  165SAPE   H2S18550   1.316   1.460   6.708 -1.9707 -0.3923 -1.8996
  165SAPE    C318551   0.795   1.442   6.692 -0.0251  1.1705 -0.4201
  165SAPE    HX18552   0.807   1.364   6.613 -1.2083  0.3567  0.1768
  165SAPE    HY18553   0.707   1.497   6.653 -0.9543  1.1155  1.5374
  165SAPE   O3118554   0.737   1.368   6.805  0.1279  0.0942  0.3971
  165SAPE   C3118555   0.708   1.439   6.911  0.1004 -0.4687  0.2157
  165SAPE   O3218556   0.712   1.559   6.913  0.3365 -0.4693  0.5080
  165SAPE   C3218557   0.671   1.354   7.025  0.2117 -0.4006 -0.5909
  165SAPE   H2X18558   0.747   1.273   7.022  1.9827  1.2962 -3.0782
  165SAPE   H2Y18559   0.566   1.318   7.022  0.0734  0.1248 -2.4267
  165SAPE   C2318560   1.329   1.416   6.926  0.1110 -0.4735 -0.7181
  165SAPE   H3R18561   1.345   1.522   6.957  1.4794 -0.3960 -1.6440
  165SAPE   H3S18562   1.432   1.378   6.909  0.1846 -0.4029 -0.4368
  165SAPE   C2418563   1.259   1.330   7.024  0.0548  0.6147  0.7317
  165SAPE   H4R18564   1.245   1.229   6.979  0.4302 -0.1835  2.3771
  165SAPE   H4S18565   1.158   1.367   7.052 -0.9936 -0.4550 -1.4838
  165SAPE   C2518566   1.347   1.312   7.149  0.6622 -0.1507 -0.0388
  165SAPE   H5R18567   1.453   1.288   7.132  0.2833 -1.6434 -0.3907
  165SAPE   C2618568   1.297   1.320   7.277 -0.3587 -0.6339  0.1184
  165SAPE   H6R18569   1.373   1.303   7.356  1.7266 -1.1061 -1.9356
  165SAPE   C2718570   1.158   1.348   7.338 -0.2857  0.5972  0.4659
  165SAPE   H7R18571   1.150   1.285   7.429 -1.6633 -0.2528 -0.2311
  165SAPE   H7S18572   1.072   1.325   7.272  0.8497  2.5321 -1.7657
  165SAPE   C2818573   1.139   1.488   7.378 -1.0725 -0.2145 -0.2815
  165SAPE   H8R18574   1.179   1.555   7.300  0.3145  1.1512  1.5826
  165SAPE   C2918575   1.078   1.538   7.489  0.0114 -0.1350 -0.3158
  165SAPE   H9R18576   1.068   1.647   7.499  2.4387  0.0365  0.7457
  165SAPE  C21018577   1.015   1.461   7.605 -0.1950  0.5147 -0.9399
  165SAPE  H10R18578   1.085   1.378   7.629  0.8125  1.6279  0.0074
  165SAPE  H10S18579   0.921   1.407   7.578  0.4654 -1.2604  0.2340
  165SAPE  C21118580   0.997   1.545   7.725 -0.4987  0.5807 -0.9821
  165SAPE  H11R18581   1.028   1.651   7.721 -0.8990  0.7677  0.5148
  165SAPE  C21218582   0.943   1.496   7.840  0.3401 -1.1728  0.6775
  165SAPE  H12R18583   0.924   1.561   7.926  2.3145 -0.7083  0.7937
  165SAPE  C21318584   0.894   1.357   7.859  0.5073 -0.1981  0.3248
  165SAPE  H13R18585   0.980   1.286   7.848 -0.0222 -1.1728  2.3870
  165SAPE  H13S18586   0.827   1.326   7.776  1.5067 -1.2365 -0.1220
  165SAPE  C21418587   0.808   1.317   7.981 -0.4858 -0.3555  0.4938
  165SAPE  H14R18588   0.700   1.336   7.968 -0.2342  1.1622  0.4388
  165SAPE  C21518589   0.854   1.272   8.104  0.2163 -0.0732  0.2911
  165SAPE  H15R18590   0.787   1.242   8.186  3.4528 -1.5989  2.4428
  165SAPE  C21618591   1.001   1.266   8.142 -0.0415 -0.0222  0.5603
  165SAPE  H16R18592   1.059   1.335   8.077  0.7958 -0.9122  0.3669
  165SAPE  H16S18593   1.045   1.165   8.127  0.6298  0.0919  1.6791
  165SAPE  C21718594   1.026   1.310   8.291 -0.1471 -0.1304  0.0593
  165SAPE  H17R18595   1.128   1.276   8.319  0.3881 -2.1240 -3.9786
  165SAPE  H17S18596   0.952   1.260   8.357  0.0040 -0.8575 -0.3162
  165SAPE  C21818597   1.029   1.458   8.311 -0.6461 -0.0528 -0.0627
  165SAPE  H18R18598   1.087   1.495   8.224  0.5776  0.8432  1.1188
  165SAPE  H18S18599   1.084   1.482   8.405 -1.0612 -3.4840  1.1555
  165SAPE  C21918600   0.897   1.531   8.308 -0.3193 -0.6385 -0.3258
  165SAPE  H19R18601   0.834   1.526   8.216 -0.0703  0.6840 -0.5767
  165SAPE  H19S18602   0.916   1.640   8.314  0.6230 -0.7723 -0.8557
  165SAPE  C22018603   0.804   1.492   8.424  1.1355  0.4486  0.1881
  165SAPE  H20R18604   0.715   1.556   8.409  0.0042 -1.8481 -3.5812
  165SAPE  H20S18605   0.839   1.517   8.526 -0.2719 -1.6686  1.2057
  165SAPE  H20T18606   0.777   1.385   8.436 -4.7643  1.8394  0.6623
  165SAPE   C3318607   0.675   1.431   7.160 -0.1314  0.2728  0.2312
  165SAPE   H3X18608   0.588   1.499   7.161 -0.5215 -0.1823 -1.1922
  165SAPE   H3Y18609   0.765   1.495   7.169  0.5870 -0.8816  1.5278
  165SAPE   C3418610   0.664   1.327   7.274  0.5203  0.2812  0.6837
  165SAPE   H4X18611   0.759   1.274   7.299  1.5079  0.3055 -2.7375
  165SAPE   H4Y18612   0.590   1.245   7.261  1.4902 -0.7010  1.2766
  165SAPE   C3518613   0.612   1.395   7.399  0.0213 -0.0789  0.2094
  165SAPE   H5X18614   0.507   1.430   7.383 -0.3253 -0.0441  2.4876
  165SAPE   H5Y18615   0.677   1.478   7.434 -0.1516  0.6190 -1.0924
  165SAPE   C3618616   0.604   1.286   7.511 -0.1443 -0.4447  0.3900
  165SAPE   H6X18617   0.703   1.249   7.546 -0.2700  0.4747  1.7614
  165SAPE   H6Y18618   0.544   1.199   7.477  0.9731 -0.8182 -0.6448
  165SAPE   C3718619   0.547   1.338   7.638  0.1517 -0.3117  0.4276
  165SAPE   H7X18620   0.452   1.390   7.612  2.2668  3.0742 -0.9873
  165SAPE   H7Y18621   0.610   1.420   7.679  2.2363  0.0558 -3.2267
  165SAPE   C3818622   0.516   1.235   7.747 -0.2755  0.0453  0.3928
  165SAPE   H8X18623   0.609   1.202   7.797 -0.1339  0.6256  0.5144
  165SAPE   H8Y18624   0.455   1.155   7.701  0.2993  1.8997 -3.8497
  165SAPE   C3918625   0.427   1.293   7.855 -0.5054 -0.1770  0.2807
  165SAPE   H9X18626   0.324   1.311   7.816  0.4755  0.7579 -1.9773
  165SAPE   H9Y18627   0.470   1.383   7.903 -1.2105 -0.3601  1.2597
  165SAPE  C31018628   0.435   1.198   7.978 -0.2500 -0.2868 -0.2607
  165SAPE  H10X18629   0.540   1.163   7.982  0.7624  2.4637 -1.0113
  165SAPE  H10Y18630   0.376   1.110   7.944 -1.8907  0.1284  1.4372
  165SAPE  C31118631   0.384   1.255   8.105  0.5144  0.8579  0.1169
  165SAPE  H11X18632   0.283   1.295   8.082 -0.2192  0.1674  2.0724
  165SAPE  H11Y18633   0.444   1.339   8.147  1.0043 -0.1390  1.4275
  165SAPE  C31218634   0.371   1.143   8.206  0.3525  0.7151 -0.2512
  165SAPE  H12X18635   0.475   1.111   8.229  0.6615  0.2935 -2.1598
  165SAPE  H12Y18636   0.322   1.061   8.149  1.8112  0.3852 -1.0508
  165SAPE  C31318637   0.288   1.175   8.333 -0.5660 -0.0903  0.5614
  165SAPE  H13X18638   0.191   1.219   8.304  0.0768  0.6840 -0.4603
  165SAPE  H13Y18639   0.348   1.255   8.381 -0.5181  1.1846 -1.5493
  165SAPE  C31418640   0.264   1.057   8.431  0.2789  0.2703  0.3987
  165SAPE  H14X18641   0.356   1.005   8.463 -0.7645 -1.8339  0.0292
  165SAPE  H14Y18642   0.203   0.982   8.377  0.6992 -0.0067  0.3083
  165SAPE  C31518643   0.186   1.100   8.557  0.2060 -0.3555  0.1498
  165SAPE  H15X18644   0.112   1.177   8.526  2.0420  1.4161  0.0732
  165SAPE  H15Y18645   0.262   1.151   8.619  2.4001 -1.2843 -1.6689
  165SAPE  C31618646   0.110   0.986   8.632 -1.1262 -0.9010 -0.0643
  165SAPE  H16X18647   0.082   1.025   8.732  1.2171  1.8904 -0.4120
  165SAPE  H16Y18648   0.187   0.909   8.652 -1.4495 -1.2409 -0.1381
  165SAPE  C31718649  -0.005   0.909   8.561 -0.2641  0.3244 -0.4693
  165SAPE  H17X18650   0.044   0.860   8.474 -2.9260  0.2697 -1.9897
  165SAPE  H17Y18651  -0.078   0.983   8.523 -0.4449  0.8153  0.8144
  165SAPE  C31818652  -0.079   0.809   8.650  0.0609 -0.5784  0.4417
  165SAPE  H18X18653  -0.005   0.759   8.716 -0.1633 -0.0005  1.1383
  165SAPE  H18Y18654  -0.113   0.729   8.581  0.5886 -1.0463  0.7173
  165SAPE  H18Z18655  -0.165   0.839   8.713 -0.3666 -1.6112  0.3520
  166SAPE     N18656   1.064   4.864   5.771  0.3683  0.3300  0.0854
  166SAPE   HN118657   1.090   4.853   5.871  0.6975 -1.9891 -0.2451
  166SAPE   HN218658   1.137   4.816   5.714  0.8165 -0.4485  1.2935
  166SAPE   HN318659   1.061   4.964   5.743  0.5780  0.7399  1.4841
  166SAPE   C1218660   0.926   4.814   5.738  0.1966 -0.2682 -0.2627
  166SAPE  H12A18661   0.933   4.705   5.758 -0.6953 -0.0705  1.1527
  166SAPE  H12B18662   0.899   4.840   5.633  0.7340  1.7657  0.0738
  166SAPE   C1118663   0.819   4.894   5.816  0.4362  0.3830  0.8224
  166SAPE  H11A18664   0.823   4.862   5.922  0.8714 -0.1235  0.6554
  166SAPE  H11B18665   0.728   4.848   5.773  1.1806 -0.8976  0.5613
  166SAPE     P18666   0.752   5.141   5.868  0.1515 -0.2058  0.3587
  166SAPE   O1318667   0.815   5.273   5.858 -0.4253 -0.0799 -0.8658
  166SAPE   O1418668   0.617   5.139   5.813  0.8197  0.0830  0.0948
  166SAPE   O1218669   0.831   5.036   5.794  0.0301 -0.1333  0.0568
  166SAPE   O1118670   0.746   5.095   6.016 -0.1263  0.5347  0.4167
  166SAPE    C118671   0.858   5.101   6.108  0.1008 -0.6574 -0.7161
  166SAPE    HA18672   0.941   5.039   6.067  1.2859 -0.8861  1.9354
  166SAPE    HB18673   0.887   5.208   6.115 -4.1608  0.5295  0.4154
  166SAPE    C218674   0.803   5.052   6.248  0.4618  0.3017 -0.0750
  166SAPE    HS18675   0.765   4.949   6.236  1.3945  0.0374 -0.8269
  166SAPE   O2118676   0.711   5.148   6.290 -0.1708  0.0560 -0.2046
  166SAPE   C2118677   0.591   5.107   6.268 -0.7548  0.7128 -0.6115
  166SAPE   O2218678   0.562   5.008   6.200 -0.2642 -0.6637 -0.2687
  166SAPE   C2218679   0.487   5.200   6.346  0.5844  0.6792 -0.1149
  166SAPE   H2R18680   0.542   5.277   6.405  0.5402  1.4226 -1.0378
  166SAPE   H2S18681   0.440   5.248   6.258  2.1751 -0.9618 -1.9036
  166SAPE    C318682   0.918   5.042   6.352 -0.1573  0.6610  0.5224
  166SAPE    HX18683   0.955   5.147   6.347  0.5387  0.3701 -0.7847
  166SAPE    HY18684   0.995   4.977   6.305 -0.3362 -0.3100  1.5693
  166SAPE   O3118685   0.875   4.992   6.484 -0.5425 -0.3656 -0.3296
  166SAPE   C3118686   0.919   5.054   6.590 -0.0875  0.3550  0.1734
  166SAPE   O3218687   1.000   5.145   6.591 -0.4415 -0.3457  0.2331
  166SAPE   C3218688   0.850   4.991   6.711 -0.9673 -0.0646  0.0346
  166SAPE   H2X18689   0.930   4.935   6.764  0.7815  1.5465 -0.8696
  166SAPE   H2Y18690   0.757   4.935   6.685 -0.4877 -0.2160 -1.3633
  166SAPE   C2318691   0.418   5.109   6.447 -0.0266 -0.4950 -0.4008
  166SAPE   H3R18692   0.494   5.041   6.490  0.5696  0.4396  0.0473
  166SAPE   H3S18693   0.337   5.057   6.392 -0.9201  0.0206  0.4119
  166SAPE   C2418694   0.350   5.191   6.562  0.1188  0.0968 -0.0519
  166SAPE   H4R18695   0.247   5.217   6.531  0.1519  0.6643  0.3131
  166SAPE   H4S18696   0.411   5.281   6.584 -1.7750  0.9635  1.7907
  166SAPE   C2518697   0.327   5.117   6.689  0.5361  0.3299 -1.2404
  166SAPE   H5R18698   0.277   5.020   6.675 -0.3414  0.6612 -0.5360
  166SAPE   C2618699   0.346   5.163   6.820 -0.1883  0.8731 -1.0475
  166SAPE   H6R18700   0.318   5.097   6.903 -2.4682  0.0821 -2.3848
  166SAPE   C2718701   0.398   5.307   6.855  0.9934 -0.2409 -0.2524
  166SAPE   H7R18702   0.460   5.344   6.770  1.6672  0.2125  0.4264
  166SAPE   H7S18703   0.475   5.300   6.934  1.8412  1.8392 -0.8623
  166SAPE   C2818704   0.285   5.402   6.868 -0.0522 -0.8082  0.0577
  166SAPE   H8R18705   0.234   5.419   6.772  3.5044 -1.2326 -1.9970
  166SAPE   C2918706   0.234   5.460   6.983  0.2392  0.3642 -0.0554
  166SAPE   H9R18707   0.152   5.532   6.976 -0.9824 -1.0243 -0.2859
  166SAPE  C21018708   0.287   5.437   7.126 -1.0388  0.0182  0.6482
  166SAPE  H10R18709   0.372   5.366   7.131 -0.8208  0.1764 -0.5076
  166SAPE  H10S18710   0.205   5.390   7.183  0.2077 -0.0738  2.3932
  166SAPE  C21118711   0.330   5.562   7.198 -0.2437  0.4950  0.2397
  166SAPE  H11R18712   0.380   5.635   7.132  2.3832 -1.3019  0.1994
  166SAPE  C21218713   0.302   5.595   7.328 -1.2377  0.0247 -0.3863
  166SAPE  H12R18714   0.349   5.683   7.376 -3.9927  1.9070 -0.9909
  166SAPE  C21318715   0.220   5.508   7.419  0.0488 -0.1711  0.7859
  166SAPE  H13R18716   0.270   5.412   7.446  1.8366  0.7210  0.7498
  166SAPE  H13S18717   0.127   5.472   7.370  1.2831 -1.8829 -0.3523
  166SAPE  C21418718   0.182   5.567   7.552  0.2112 -0.0222 -0.1704
  166SAPE  H14R18719   0.088   5.625   7.548 -0.2516 -0.4118  3.3500
  166SAPE  C21518720   0.243   5.553   7.672 -0.6214 -0.5540  0.4803
  166SAPE  H15R18721   0.197   5.613   7.751 -1.5902 -0.4113 -0.1720
  166SAPE  C21618722   0.376   5.486   7.700 -0.4448  0.2350 -0.2473
  166SAPE  H16R18723   0.423   5.441   7.610 -0.4280 -0.9566  0.3594
  166SAPE  H16S18724   0.353   5.396   7.760  1.1811 -0.9774 -1.3966
  166SAPE  C21718725   0.470   5.588   7.774 -0.4074  0.6011  0.6879
  166SAPE  H17R18726   0.554   5.537   7.825 -1.0662 -1.5351 -0.3317
  166SAPE  H17S18727   0.407   5.650   7.842  0.9185  2.3501  0.3590
  166SAPE  C21818728   0.548   5.680   7.677 -0.1655 -0.4424 -0.2185
  166SAPE  H18R18729   0.581   5.764   7.742  2.1502 -1.6232  0.1721
  166SAPE  H18S18730   0.495   5.729   7.592  2.0658  0.4765 -1.1100
  166SAPE  C21918731   0.678   5.619   7.621  0.1475  0.3446 -0.9756
  166SAPE  H19R18732   0.645   5.542   7.548  1.0047 -2.4781  1.5046
  166SAPE  H19S18733   0.731   5.571   7.706 -1.6165  0.7273  0.3751
  166SAPE  C22018734   0.774   5.728   7.553  0.0876 -0.1047  0.4372
  166SAPE  H20R18735   0.863   5.690   7.497 -0.0781  0.8979 -0.5240
  166SAPE  H20S18736   0.805   5.809   7.623  2.6678 -1.6545  1.1727
  166SAPE  H20T18737   0.721   5.786   7.475 -1.1541 -0.5430  0.9456
  166SAPE   C3318738   0.807   5.113   6.798  0.0545 -0.3989 -0.2173
  166SAPE   H3X18739   0.765   5.192   6.732 -1.9109 -1.0089  0.2575
  166SAPE   H3Y18740   0.897   5.131   6.860 -0.8566 -1.3272  1.4227
  166SAPE   C3418741   0.685   5.076   6.879  0.6675 -0.6278 -0.0197
  166SAPE   H4X18742   0.605   5.032   6.815 -0.6413 -1.1122  1.9227
  166SAPE   H4Y18743   0.632   5.169   6.907 -1.2392 -2.3557  2.3932
  166SAPE   C3518744   0.706   4.987   7.005 -0.2340 -0.0849 -0.2762
  166SAPE   H5X18745   0.782   5.036   7.070 -0.7990  2.2167 -1.2602
  166SAPE   H5Y18746   0.745   4.891   6.967 -1.3074 -0.4409 -0.4862
  166SAPE   C3618747   0.583   4.978   7.101  0.8430 -0.1026  0.1861
  166SAPE   H6X18748   0.500   4.918   7.058  1.0529  0.6681 -1.3510
  166SAPE   H6Y18749   0.550   5.080   7.131  0.3970 -0.3099  0.3990
  166SAPE   C3718750   0.623   4.902   7.228 -0.3733  0.5417 -0.0999
  166SAPE   H7X18751   0.703   4.947   7.290 -0.8213  0.0104  0.8756
  166SAPE   H7Y18752   0.673   4.811   7.188 -0.2002  0.4363  0.3466
  166SAPE   C3818753   0.497   4.869   7.307  0.8514 -0.5546 -0.1249
  166SAPE   H8X18754   0.431   4.797   7.254 -1.1258 -0.5412  2.2275
  166SAPE   H8Y18755   0.445   4.966   7.319 -0.7339 -1.1690 -1.7456
  166SAPE   C3918756   0.528   4.789   7.438 -0.9079  0.3429 -0.0376
  166SAPE   H9X18757   0.620   4.827   7.488 -1.3093  2.2277 -0.6707
  166SAPE   H9Y18758   0.559   4.688   7.406 -0.7330  0.9067 -1.6965
  166SAPE  C31018759   0.417   4.784   7.549  0.2295 -0.1061 -0.0312
  166SAPE  H10X18760   0.323   4.755   7.498  0.0239 -0.3530  0.4857
  166SAPE  H10Y18761   0.405   4.889   7.584  2.6995  0.3241 -0.3315
  166SAPE  C31118762   0.453   4.681   7.657  0.4134  0.0955  0.0957
  166SAPE  H11X18763   0.549   4.712   7.705  1.5284 -3.1747  0.1106
  166SAPE  H11Y18764   0.473   4.578   7.621  0.2422 -0.4798  1.6127
  166SAPE  C31218765   0.349   4.669   7.766 -0.3272 -0.3019 -0.1776
  166SAPE  H12X18766   0.268   4.600   7.731 -0.2681 -0.0022 -0.9058
  166SAPE  H12Y18767   0.295   4.764   7.785 -1.0219 -1.2130  2.5620
  166SAPE  C31318768   0.405   4.608   7.889  0.3793 -0.8656 -0.1876
  166SAPE  H13X18769   0.491   4.669   7.925  2.0755 -3.2419 -0.1049
  166SAPE  H13Y18770   0.432   4.504   7.862 -1.7395 -1.5554  0.2621
  166SAPE  C31418771   0.294   4.608   8.005 -0.4362 -0.2012 -0.3749
  166SAPE  H14X18772   0.209   4.539   7.995 -1.2650  0.6859  0.4431
  166SAPE  H14Y18773   0.254   4.711   8.017 -0.8817 -0.3666 -0.4700
  166SAPE  C31518774   0.365   4.570   8.133  0.6982  0.2309  0.0335
  166SAPE  H15X18775   0.421   4.659   8.170  2.5851  0.4909 -3.3189
  166SAPE  H15Y18776   0.445   4.498   8.108 -2.8393 -3.0974 -2.3800
  166SAPE  C31618777   0.280   4.508   8.241 -0.2443 -0.3356  0.4946
  166SAPE  H16X18778   0.244   4.410   8.202  0.0758 -0.0712 -0.4758
  166SAPE  H16Y18779   0.187   4.565   8.265  0.9503  2.6088 -1.5992
  166SAPE  C31718780   0.335   4.502   8.387 -0.2000 -0.4031  0.1429
  166SAPE  H17X18781   0.431   4.446   8.392  0.2921  0.5328  1.7992
  166SAPE  H17Y18782   0.263   4.456   8.458  1.9377 -2.6719  0.9419
  166SAPE  C31818783   0.353   4.637   8.444  0.3933  0.4957 -0.1809
  166SAPE  H18X18784   0.396   4.641   8.546 -1.6622  0.1460  0.7206
  166SAPE  H18Y18785   0.262   4.700   8.443 -0.1209 -0.2512 -0.4504
  166SAPE  H18Z18786   0.438   4.677   8.385  0.1781  1.2855  0.0336
  167SAPE     N18787   1.497   3.309   6.500 -0.2263  0.4030  0.3845
  167SAPE   HN118788   1.456   3.404   6.512 -2.1410 -0.6678  2.9518
  167SAPE   HN218789   1.408   3.262   6.475  0.4983  0.2963 -2.1333
  167SAPE   HN318790   1.534   3.280   6.593 -0.2695  2.1791  0.9882
  167SAPE   C1218791   1.585   3.306   6.381 -0.2914  0.1487 -0.2321
  167SAPE  H12A18792   1.616   3.201   6.364 -0.2249  0.1900 -0.3697
  167SAPE  H12B18793   1.682   3.354   6.406 -0.8475  1.2705 -0.1505
  167SAPE   C1118794   1.524   3.375   6.263 -0.2690  0.7311 -0.5733
  167SAPE  H11A18795   1.435   3.326   6.217  0.4566  0.0135 -1.2241
  167SAPE  H11B18796   1.604   3.380   6.186  0.8289 -1.4081  0.3924
  167SAPE     P18797   1.471   3.628   6.190 -0.0420  0.0278 -0.1003
  167SAPE   O1318798   1.550   3.611   6.069 -0.0316  0.2242  0.9311
  167SAPE   O1418799   1.328   3.658   6.175  0.2499 -0.1165  0.5628
  167SAPE   O1218800   1.486   3.506   6.299  0.0027  0.7245  0.6639
  167SAPE   O1118801   1.542   3.747   6.269 -0.1276 -0.2263  0.4721
  167SAPE    C118802   1.633   3.726   6.369 -0.4947 -0.3423 -0.0853
  167SAPE    HA18803   1.700   3.639   6.353 -0.2954 -0.1710 -0.1872
  167SAPE    HB18804   1.697   3.817   6.380 -1.3711  0.1742  0.8123
  167SAPE    C218805   1.564   3.721   6.505 -0.5082  0.6037 -0.1429
  167SAPE    HS18806   1.501   3.630   6.515  0.0494  0.2446  0.1555
  167SAPE   O2118807   1.473   3.838   6.511 -0.6840 -0.1801  0.3512
  167SAPE   C2118808   1.370   3.824   6.601  0.6170 -0.5176 -0.7181
  167SAPE   O2218809   1.345   3.724   6.670 -0.0870 -0.0291  0.5580
  167SAPE   C2218810   1.299   3.958   6.605 -0.0433  0.0152  0.0769
  167SAPE   H2R18811   1.379   4.033   6.623  0.6744 -0.3709 -1.4291
  167SAPE   H2S18812   1.263   3.986   6.503  2.3110 -2.3555 -1.4576
  167SAPE    C318813   1.666   3.730   6.629  0.4555  0.3617  0.4785
  167SAPE    HX18814   1.706   3.831   6.648  0.5973  0.3175  0.4154
  167SAPE    HY18815   1.745   3.656   6.605 -1.2856 -2.0444  1.8964
  167SAPE   O3118816   1.610   3.706   6.756  0.3973 -0.0282  0.3071
  167SAPE   C3118817   1.579   3.582   6.783 -1.1469  0.4044  0.3478
  167SAPE   O3218818   1.592   3.490   6.706 -0.1461  0.9496  0.3037
  167SAPE   C3218819   1.503   3.570   6.913 -0.0244 -0.4889  0.5906
  167SAPE   H2X18820   1.474   3.466   6.941 -0.3372 -0.5962 -0.1200
  167SAPE   H2Y18821   1.418   3.640   6.898  2.5168  2.4528 -0.6719
  167SAPE   C2318822   1.201   3.966   6.723  0.0836 -0.0787 -0.2367
  167SAPE   H3R18823   1.240   3.907   6.808  1.2558 -0.7965 -1.2559
  167SAPE   H3S18824   1.115   3.906   6.687 -0.9413 -0.2218  2.3276
  167SAPE   C2418825   1.165   4.104   6.767  0.4443 -0.0258  0.1205
  167SAPE   H4R18826   1.154   4.162   6.672  0.4067 -3.9322 -2.3709
  167SAPE   H4S18827   1.245   4.136   6.836 -0.8236 -0.4055  1.7938
  167SAPE   C2518828   1.035   4.131   6.827 -0.2064  0.2197 -0.1588
  167SAPE   H5R18829   0.963   4.196   6.775  1.4059  0.6779 -1.9215
  167SAPE   C2618830   0.996   4.083   6.947  0.0347 -0.2119  0.9231
  167SAPE   H6R18831   0.893   4.091   6.984 -0.4707 -3.0934  0.2741
  167SAPE   C2718832   1.083   3.995   7.041 -0.6181  0.5422  0.1104
  167SAPE   H7R18833   1.105   4.057   7.130 -0.0561  0.1897  0.2234
  167SAPE   H7S18834   1.185   3.990   6.997 -0.2037  0.6220  1.0546
  167SAPE   C2818835   1.022   3.859   7.053 -0.8558  0.6248 -0.3973
  167SAPE   H8R18836   1.036   3.793   6.965 -0.2458 -0.6065  0.6101
  167SAPE   C2918837   0.958   3.814   7.161  0.3211 -1.2935 -0.2019
  167SAPE   H9R18838   0.910   3.715   7.160 -4.4996  0.9151 -1.5501
  167SAPE  C21018839   0.936   3.877   7.293  0.3660 -0.0008 -0.8919
  167SAPE  H10R18840   0.857   3.822   7.348  0.0575  1.0128 -0.3101
  167SAPE  H10S18841   0.894   3.979   7.278 -2.1066 -0.6671  1.1325
  167SAPE  C21118842   1.057   3.912   7.379  0.1557 -0.2419  0.6701
  167SAPE  H11R18843   1.149   3.915   7.317  0.3681  3.8135  1.0368
  167SAPE  C21218844   1.060   3.921   7.509 -0.0484  0.2259 -0.7963
  167SAPE  H12R18845   1.152   3.955   7.559 -1.0644  0.0008  1.3165
  167SAPE  C21318846   0.943   3.897   7.603 -0.1811 -0.5196  0.2676
  167SAPE  H13R18847   0.842   3.898   7.556 -1.0224 -0.4817  2.0201
  167SAPE  H13S18848   0.941   3.983   7.674 -0.1257 -0.8871  0.7171
  167SAPE  C21418849   0.962   3.761   7.666  0.9871 -0.2012 -0.0829
  167SAPE  H14R18850   0.926   3.685   7.594 -0.6903  1.1511 -0.7189
  167SAPE  C21518851   1.016   3.713   7.777 -0.1826  0.0724  0.3936
  167SAPE  H15R18852   1.019   3.605   7.796 -1.8178  0.2015  1.4242
  167SAPE  C21618853   1.088   3.792   7.891  0.2374  0.0767  0.4660
  167SAPE  H16R18854   1.022   3.812   7.978  1.5989  1.1266  1.2824
  167SAPE  H16S18855   1.104   3.894   7.852  3.8352  0.3245  2.4025
  167SAPE  C21718856   1.226   3.738   7.931 -0.0233 -0.6159 -0.0107
  167SAPE  H17R18857   1.281   3.826   7.970  0.3576 -0.7975 -0.1306
  167SAPE  H17S18858   1.289   3.717   7.841  0.6277  0.6379  0.1498
  167SAPE  C21818859   1.217   3.639   8.048 -0.4596 -0.2883  0.4423
  167SAPE  H18R18860   1.298   3.563   8.052 -0.9755 -0.7806  2.2892
  167SAPE  H18S18861   1.125   3.578   8.039 -1.0646  0.9394 -1.8127
  167SAPE  C21918862   1.229   3.712   8.187  0.1107  0.1073  0.5363
  167SAPE  H19R18863   1.179   3.649   8.263  1.3745  0.6674  1.8367
  167SAPE  H19S18864   1.167   3.804   8.188 -0.6621 -0.3992  0.2236
  167SAPE  C22018865   1.371   3.735   8.235  0.3722 -0.3567  0.7954
  167SAPE  H20R18866   1.426   3.645   8.268 -0.9559 -1.2154  0.6821
  167SAPE  H20S18867   1.380   3.800   8.325 -1.3660  0.0416  0.7006
  167SAPE  H20T18868   1.433   3.780   8.154  2.0529  0.2329  2.3799
  167SAPE   C3318869   1.587   3.624   7.034  0.3827  0.1921  0.3743
  167SAPE   H3X18870   1.606   3.733   7.021  0.9024  0.1589  0.8662
  167SAPE   H3Y18871   1.681   3.566   7.036  1.0558  1.2559 -0.2605
  167SAPE   C3418872   1.520   3.593   7.170  0.6307  0.3352  0.1895
  167SAPE   H4X18873   1.474   3.492   7.165  2.1903 -0.3609 -0.4282
  167SAPE   H4Y18874   1.437   3.665   7.185 -1.1620 -1.5791 -0.1369
  167SAPE   C3518875   1.611   3.610   7.296 -0.1172  0.1261  0.3449
  167SAPE   H5X18876   1.653   3.713   7.295 -0.0490  0.0837 -1.2794
  167SAPE   H5Y18877   1.691   3.534   7.281 -0.8197 -0.6306  0.4013
  167SAPE   C3618878   1.524   3.590   7.417  0.2345  0.1574 -0.1822
  167SAPE   H6X18879   1.478   3.489   7.421  1.6922 -0.5116  0.1607
  167SAPE   H6Y18880   1.437   3.658   7.414 -1.4488 -1.9034  0.7021
  167SAPE   C3718881   1.600   3.638   7.543 -0.1202 -0.4234  0.0320
  167SAPE   H7X18882   1.629   3.745   7.529  2.5177 -1.1194 -0.0576
  167SAPE   H7Y18883   1.698   3.586   7.544  0.0628 -0.0800  1.6767
  167SAPE   C3818884   1.537   3.628   7.682  0.5814  0.1157 -0.5226
  167SAPE   H8X18885   1.519   3.518   7.686 -1.2964  0.2786 -3.2490
  167SAPE   H8Y18886   1.443   3.687   7.688  1.2678  1.4048 -2.1208
  167SAPE   C3918887   1.637   3.681   7.785 -0.7429  0.2254 -0.4034
  167SAPE   H9X18888   1.636   3.792   7.788  2.2238  0.3530 -2.3523
  167SAPE   H9Y18889   1.736   3.650   7.746  0.7654  2.6414  1.3853
  167SAPE  C31018890   1.622   3.613   7.925 -1.1903  0.1658  0.5766
  167SAPE  H10X18891   1.655   3.507   7.910  0.3885  0.8552 -1.0168
  167SAPE  H10Y18892   1.516   3.594   7.951 -2.2575  3.4425 -1.2158
  167SAPE  C31118893   1.716   3.674   8.024  0.1806  0.4408  0.6668
  167SAPE  H11X18894   1.683   3.779   8.036 -2.7122 -0.1922 -1.2009
  167SAPE  H11Y18895   1.821   3.652   7.992 -0.2868  1.2201 -1.5133
  167SAPE  C31218896   1.715   3.607   8.163  0.2194  0.1151 -0.0146
  167SAPE  H12X18897   1.760   3.506   8.157 -0.7271 -0.3511  0.5421
  167SAPE  H12Y18898   1.607   3.585   8.179 -0.0140  1.5282  0.5149
  167SAPE  C31318899   1.754   3.703   8.272 -0.2868 -0.3863 -0.3254
  167SAPE  H13X18900   1.714   3.804   8.246  0.0197 -0.4753 -1.1526
  167SAPE  H13Y18901   1.865   3.709   8.278 -0.3051  2.0125 -1.6540
  167SAPE  C31418902   1.700   3.662   8.403  0.0731 -0.1153  0.3597
  167SAPE  H14X18903   1.741   3.562   8.429  1.8555 -0.1652 -2.3967
  167SAPE  H14Y18904   1.593   3.639   8.389  0.1686 -0.4600  0.2077
  167SAPE  C31518905   1.727   3.766   8.511  0.2744  0.3910 -0.0669
  167SAPE  H15X18906   1.702   3.872   8.491  0.3982  0.4008 -0.1757
  167SAPE  H15Y18907   1.836   3.763   8.537 -0.0658 -0.4061  1.3448
  167SAPE  C31618908   1.658   3.728   8.642  0.5430  0.3104 -0.8985
  167SAPE  H16X18909   1.671   3.623   8.678  1.2229  1.0723  1.1120
  167SAPE  H16Y18910   1.551   3.757   8.631  0.1281 -0.1740  1.5337
  167SAPE  C31718911   1.704   3.810   8.767 -0.3058 -0.6480  0.7651
  167SAPE  H17X18912   1.647   3.779   8.857 -0.0068  0.2616  1.2705
  167SAPE  H17Y18913   1.677   3.917   8.755  1.5044 -0.0576  1.7229
  167SAPE  C31818914   1.854   3.800   8.789  0.2704 -0.7167 -0.2107
  167SAPE  H18X18915   1.883   3.859   8.878  2.1147  1.8412 -2.4330
  167SAPE  H18Y18916   1.919   3.842   8.709  1.8770  2.5281  2.6844
  167SAPE  H18Z18917   1.895   3.701   8.819  0.7902 -0.4856 -0.1573
  168SAPE     N18918   2.544   5.971   6.397  0.2982  0.1674 -0.5937
  168SAPE   HN118919   2.637   5.939   6.364 -0.0625 -1.5713 -0.0186
  168SAPE   HN218920   2.481   5.890   6.379 -1.8174  1.7581 -0.4954
  168SAPE   HN318921   2.512   6.050   6.338  0.7080 -1.3359 -2.8682
  168SAPE   C1218922   2.531   5.988   6.546  0.2339 -0.6676  0.4965
  168SAPE  H12A18923   2.429   5.975   6.588  0.1668  0.4158  0.6825
  168SAPE  H12B18924   2.546   6.094   6.574 -4.0464 -0.0270  0.7063
  168SAPE   C1118925   2.627   5.890   6.622  0.3007 -0.0752 -0.2421
  168SAPE  H11A18926   2.594   5.881   6.727  0.9924  1.4985  0.1207
  168SAPE  H11B18927   2.727   5.936   6.613  0.9084 -0.8380  2.2197
  168SAPE     P18928   2.731   5.700   6.460 -0.2326 -0.3623 -0.0137
  168SAPE   O1318929   2.698   5.570   6.397 -0.3448  0.3540  0.3372
  168SAPE   O1418930   2.749   5.812   6.363 -0.7327  0.6173  0.6743
  168SAPE   O1218931   2.617   5.758   6.559  0.4561 -0.0659 -0.2284
  168SAPE   O1118932   2.856   5.687   6.545  0.3202  0.0585  0.7452
  168SAPE    C118933   2.869   5.590   6.657 -0.4056  0.4856  0.0971
  168SAPE    HA18934   2.771   5.565   6.703 -0.0776 -1.1742 -0.0926
  168SAPE    HB18935   2.909   5.495   6.616  2.0803  0.5297  2.2725
  168SAPE    C218936   2.982   5.644   6.751  0.2724  0.3814  0.0449
  168SAPE    HS18937   3.022   5.565   6.818  0.8768  1.5468  1.0794
  168SAPE   O2118938   2.935   5.760   6.821  0.0549  0.3533  0.3835
  168SAPE   C2118939   2.845   5.733   6.923 -0.3506 -0.0831  0.4105
  168SAPE   O2218940   2.826   5.624   6.961  0.3412  0.5294  0.1028
  168SAPE   C2218941   2.780   5.865   6.975  0.2605 -0.6674 -0.4343
  168SAPE   H2R18942   2.853   5.945   6.950 -1.8278  1.1684 -0.7835
  168SAPE   H2S18943   2.690   5.877   6.911  0.3791  1.3776 -0.2481
  168SAPE    C318944   3.107   5.692   6.664  0.2852 -0.1195  0.4770
  168SAPE    HX18945   3.069   5.771   6.596 -0.5349  1.0841  2.3017
  168SAPE    HY18946   3.133   5.616   6.587  0.7694  0.2242  0.2984
  168SAPE   O3118947   3.219   5.724   6.749 -0.5300 -0.8213 -0.0998
  168SAPE   C3118948   3.267   5.849   6.756 -0.4655  0.4411  0.0662
  168SAPE   O3218949   3.228   5.942   6.686 -0.1003  0.0019  0.2747
  168SAPE   C3218950   3.378   5.866   6.851 -0.1931  0.2287  0.8582
  168SAPE   H2X18951   3.437   5.954   6.817  2.1057 -0.8560  1.9707
  168SAPE   H2Y18952   3.446   5.779   6.857  1.2566  1.2812  0.2367
  168SAPE   C2318953   2.743   5.867   7.132  0.7759 -0.1101 -0.0691
  168SAPE   H3R18954   2.663   5.792   7.148 -0.0273  1.0192  1.2417
  168SAPE   H3S18955   2.707   5.970   7.150  1.1670  0.0720 -0.3096
  168SAPE   C2418956   2.865   5.836   7.214 -0.3462 -0.0742 -0.3831
  168SAPE   H4R18957   2.938   5.914   7.184 -1.2431  1.6413  1.7976
  168SAPE   H4S18958   2.903   5.732   7.202 -0.0107 -0.2990  2.3118
  168SAPE   C2518959   2.834   5.859   7.359  0.1455 -0.4179  0.0878
  168SAPE   H5R18960   2.817   5.964   7.388 -3.7847 -1.1934  0.7695
  168SAPE   C2618961   2.847   5.773   7.460 -0.8035  0.6630 -0.6221
  168SAPE   H6R18962   2.824   5.811   7.561  1.6531  0.4799  0.0363
  168SAPE   C2718963   2.888   5.625   7.460 -0.0922  0.5991  0.0795
  168SAPE   H7R18964   2.970   5.609   7.532  1.5553  0.4716 -1.7881
  168SAPE   H7S18965   2.940   5.594   7.367 -0.1805  1.5641 -0.2888
  168SAPE   C2818966   2.771   5.524   7.467 -0.3398  0.5397 -0.1025
  168SAPE   H8R18967   2.730   5.492   7.370  1.8027  0.5429 -1.0429
  168SAPE   C2918968   2.695   5.486   7.574  0.6396  0.2581  0.4286
  168SAPE   H9R18969   2.604   5.425   7.565 -1.8537  3.3159  3.7394
  168SAPE  C21018970   2.715   5.533   7.720 -0.0953  1.0019  0.0709
  168SAPE  H10R18971   2.617   5.517   7.770  0.9435  1.0535  2.2028
  168SAPE  H10S18972   2.746   5.639   7.721  1.4180  0.6093 -1.7638
  168SAPE  C21118973   2.818   5.444   7.786 -0.3899 -0.3958 -0.3277
  168SAPE  H11R18974   2.922   5.440   7.750 -0.6255 -0.3733 -1.0171
  168SAPE  C21218975   2.797   5.371   7.899  0.0788 -1.1153  0.8748
  168SAPE  H12R18976   2.883   5.339   7.960  0.8890  0.6738  0.6900
  168SAPE  C21318977   2.676   5.377   7.987  0.1360 -0.1827 -0.1444
  168SAPE  H13R18978   2.594   5.364   7.913  0.7726  0.1773 -0.9270
  168SAPE  H13S18979   2.665   5.470   8.046  0.8162  1.0813 -1.9673
  168SAPE  C21418980   2.666   5.270   8.093 -0.1723 -0.1570  0.8080
  168SAPE  H14R18981   2.755   5.223   8.136  0.5986  0.8133  0.2809
  168SAPE  C21518982   2.548   5.235   8.146  0.3781  0.3142  0.4059
  168SAPE  H15R18983   2.548   5.151   8.217  1.1268  0.7584  0.9429
  168SAPE  C21618984   2.412   5.303   8.114 -0.4446  0.1265  0.0330
  168SAPE  H16R18985   2.348   5.219   8.078 -0.2210  0.0763 -0.2510
  168SAPE  H16S18986   2.411   5.380   8.034  1.7033 -1.4105 -1.5175
  168SAPE  C21718987   2.347   5.382   8.223 -0.6289 -0.2599 -0.2538
  168SAPE  H17R18988   2.333   5.315   8.310  2.1541  0.3544  0.6977
  168SAPE  H17S18989   2.243   5.410   8.195 -1.1990 -1.0650  1.0414
  168SAPE  C21818990   2.443   5.500   8.270  0.0233 -0.3910 -0.1977
  168SAPE  H18R18991   2.479   5.556   8.180  0.1151  0.9231  0.6483
  168SAPE  H18S18992   2.523   5.457   8.334  0.1272  1.1899  0.7690
  168SAPE  C21918993   2.377   5.607   8.358  0.5312 -0.1108 -0.5276
  168SAPE  H19R18994   2.343   5.563   8.454 -0.6544  1.6369 -0.1323
  168SAPE  H19S18995   2.286   5.643   8.306 -0.0856 -2.1885 -0.9372
  168SAPE  C22018996   2.471   5.719   8.408 -0.0616 -0.4926 -0.0554
  168SAPE  H20R18997   2.403   5.787   8.463 -0.3326 -1.0155  0.2524
  168SAPE  H20S18998   2.512   5.769   8.317  0.6752  1.1862  1.1723
  168SAPE  H20T18999   2.552   5.674   8.469  2.0130  1.1890 -1.4494
  168SAPE   C3319000   3.324   5.906   6.995 -0.4402  0.2576 -0.1106
  168SAPE   H3X19001   3.250   5.989   6.994  0.1003  0.8804  3.7676
  168SAPE   H3Y19002   3.419   5.947   7.035 -0.2891  0.8963 -1.1236
  168SAPE   C3419003   3.273   5.789   7.082  0.7606 -0.0144  0.1637
  168SAPE   H4X19004   3.333   5.705   7.041 -0.1122 -0.8781  0.6465
  168SAPE   H4Y19005   3.165   5.770   7.066  0.2725  1.8119  1.1323
  168SAPE   C3519006   3.286   5.836   7.229 -0.1974 -0.0066  0.7374
  168SAPE   H5X19007   3.232   5.933   7.223  1.2704  0.8110  0.5360
  168SAPE   H5Y19008   3.387   5.858   7.269 -0.0444 -0.0112  0.3544
  168SAPE   C3619009   3.231   5.728   7.321 -0.0417  0.0496  0.3621
  168SAPE   H6X19010   3.216   5.643   7.250 -1.1191  1.7226 -1.4870
  168SAPE   H6Y19011   3.134   5.758   7.365  0.8721  1.1915  1.6173
  168SAPE   C3719012   3.317   5.693   7.443 -0.2159  0.3757  0.1177
  168SAPE   H7X19013   3.423   5.702   7.410 -0.7644  1.1743 -1.4914
  168SAPE   H7Y19014   3.311   5.590   7.483  0.5326  0.1027 -0.4623
  168SAPE   C3819015   3.292   5.785   7.561 -0.5604 -0.3778  0.6736
  168SAPE   H8X19016   3.197   5.754   7.609  0.3935  0.1286  2.9331
  168SAPE   H8Y19017   3.291   5.893   7.534  3.6116 -0.2114  0.7641
  168SAPE   C3919018   3.401   5.778   7.674 -0.4472 -0.1108 -0.5399
  168SAPE   H9X19019   3.496   5.810   7.627 -0.5454 -0.4662 -0.9975
  168SAPE   H9Y19020   3.414   5.671   7.700 -0.1728  0.0797  0.0956
  168SAPE  C31019021   3.373   5.865   7.800  0.1222  0.3906  0.4846
  168SAPE  H10X19022   3.266   5.861   7.831 -0.1571 -3.5489 -0.7141
  168SAPE  H10Y19023   3.388   5.969   7.764 -2.8158  0.6570 -0.0738
  168SAPE  C31119024   3.464   5.842   7.921 -0.0216  0.2607  1.1069
  168SAPE  H11X19025   3.567   5.877   7.896 -0.6467  0.7250 -0.8600
  168SAPE  H11Y19026   3.459   5.734   7.945 -1.1121  0.2398  0.8264
  168SAPE  C31219027   3.415   5.920   8.041 -0.5769 -0.1163 -0.1595
  168SAPE  H12X19028   3.311   5.895   8.070 -0.6203 -0.0162 -0.2345
  168SAPE  H12Y19029   3.414   6.029   8.021  5.2057  0.7589  3.1553
  168SAPE  C31319030   3.496   5.901   8.167 -0.6228  0.6851  0.9249
  168SAPE  H13X19031   3.598   5.939   8.145 -1.2853  1.0512 -1.6236
  168SAPE  H13Y19032   3.495   5.790   8.168 -0.8321  0.6685 -0.1387
  168SAPE  C31419033   3.435   5.969   8.284  0.3348  1.0699 -0.1086
  168SAPE  H14X19034   3.324   5.967   8.286  0.3519 -1.2903 -0.1763
  168SAPE  H14Y19035   3.460   6.077   8.286  1.3789  0.8658 -1.6903
  168SAPE  C31519036   3.507   5.920   8.408 -0.0060  0.5733 -0.1867
  168SAPE  H15X19037   3.617   5.932   8.400 -0.1375  1.8333 -0.1158
  168SAPE  H15Y19038   3.496   5.809   8.417 -2.3834  0.9002  1.2759
  168SAPE  C31619039   3.447   5.992   8.530  0.2553  0.2348  0.6386
  168SAPE  H16X19040   3.437   6.099   8.504  3.6927  0.1537 -1.4079
  168SAPE  H16Y19041   3.515   5.969   8.615 -0.2776  2.1126  1.5917
  168SAPE  C31719042   3.308   5.935   8.575 -0.0462 -0.1284 -0.1548
  168SAPE  H17X19043   3.325   5.890   8.675 -1.8542  0.4976  0.4485
  168SAPE  H17Y19044   3.277   5.848   8.514  0.6197  0.4803 -1.3920
  168SAPE  C31819045   3.213   6.057   8.571 -0.0291  0.3864  0.2915
  168SAPE  H18X19046   3.259   6.146   8.618  0.3184  0.4635 -0.1977
  168SAPE  H18Y19047   3.121   6.031   8.628 -0.7685 -0.9516 -1.4457
  168SAPE  H18Z19048   3.170   6.070   8.470 -0.8229 -2.1280  0.2621
  169SAPE     N19049   1.748   0.270   6.211  0.3227 -0.5018 -0.2664
  169SAPE   HN119050   1.723   0.267   6.110  0.9515 -0.0474 -0.4414
  169SAPE   HN219051   1.684   0.208   6.265 -0.5633  0.6055 -0.0228
  169SAPE   HN319052   1.725   0.369   6.236  1.2028 -0.2159 -0.5924
  169SAPE   C1219053   1.893   0.261   6.226  0.1917  0.7080 -0.0268
  169SAPE  H12A19054   1.943   0.335   6.161  0.8363  1.3815  1.2014
  169SAPE  H12B19055   1.928   0.158   6.202  2.2946  1.0391  1.3598
  169SAPE   C1119056   1.943   0.292   6.372 -0.1973 -0.4099  0.8966
  169SAPE  H11A19057   2.050   0.261   6.375 -0.2976 -0.8653 -0.0647
  169SAPE  H11B19058   1.888   0.235   6.451  1.1443  1.1324  2.9829
  169SAPE     P19059   2.038   0.535   6.391 -0.3844  0.0236 -0.1229
  169SAPE   O1319060   2.056   0.555   6.246  0.3842  0.1786  0.0595
  169SAPE   O1419061   1.994   0.656   6.466  0.3875 -0.1982  0.2308
  169SAPE   O1219062   1.933   0.424   6.398 -0.1524 -0.1465 -0.8811
  169SAPE   O1119063   2.168   0.467   6.452  0.1074 -1.1902  0.1307
  169SAPE    C119064   2.172   0.432   6.588  0.4252  0.3958  0.1332
  169SAPE    HA19065   2.070   0.432   6.633  0.2186  2.3017 -0.2948
  169SAPE    HB19066   2.203   0.326   6.598  4.0598  1.1906 -1.7581
  169SAPE    C219067   2.276   0.514   6.673 -0.3664 -0.3723  0.4490
  169SAPE    HS19068   2.276   0.480   6.779 -2.9028  3.6938  1.9039
  169SAPE   O2119069   2.244   0.652   6.671  0.5534 -0.6430 -0.0361
  169SAPE   C2119070   2.152   0.692   6.756 -0.0178  0.0274 -0.7781
  169SAPE   O2219071   2.103   0.622   6.844 -0.1589  0.0904  0.0925
  169SAPE   C2219072   2.135   0.847   6.750 -0.6173 -0.1140  0.6368
  169SAPE   H2R19073   2.235   0.895   6.755 -0.9453  0.7643 -1.1233
  169SAPE   H2S19074   2.090   0.873   6.652  0.5585  1.5465  0.5190
  169SAPE    C319075   2.427   0.487   6.624  0.4481  0.4361  0.4761
  169SAPE    HX19076   2.444   0.537   6.526  0.6566 -0.0871  0.2428
  169SAPE    HY19077   2.437   0.378   6.608 -0.8496  0.0813  1.9040
  169SAPE   O3119078   2.526   0.520   6.727 -0.0624  1.4648  0.2609
  169SAPE   C3119079   2.546   0.651   6.740 -0.3758  0.0788 -0.0552
  169SAPE   O3219080   2.505   0.743   6.678  0.7433 -0.1077  0.3962
  169SAPE   C3219081   2.644   0.663   6.854  0.2901  0.0543 -0.2125
  169SAPE   H2X19082   2.666   0.771   6.867 -0.4551  0.2374 -0.4122
  169SAPE   H2Y19083   2.744   0.618   6.835  0.6422  1.2641 -1.2956
  169SAPE   C2319084   2.047   0.910   6.860  0.0815  0.1953  0.4068
  169SAPE   H3R19085   2.062   0.869   6.962 -0.3645 -0.5453  0.1839
  169SAPE   H3S19086   1.942   0.909   6.823 -0.5077  0.5215  2.0042
  169SAPE   C2419087   2.068   1.059   6.855  0.0266 -0.9729  0.2035
  169SAPE   H4R19088   1.991   1.103   6.923 -0.7327  0.4012 -1.5170
  169SAPE   H4S19089   2.054   1.088   6.749 -1.5302  0.7309  0.8440
  169SAPE   C2519090   2.213   1.094   6.899  0.2733  0.5496 -0.2351
  169SAPE   H5R19091   2.277   1.133   6.818 -0.8825  0.9010 -0.9959
  169SAPE   C2619092   2.262   1.096   7.023  0.0011  0.6125 -0.4475
  169SAPE   H6R19093   2.366   1.127   7.042  1.5457 -3.7517 -1.3259
  169SAPE   C2719094   2.171   1.068   7.144 -0.0441  0.4131  0.5586
  169SAPE   H7R19095   2.209   0.986   7.208 -0.9996 -0.5128 -0.0444
  169SAPE   H7S19096   2.073   1.028   7.110  0.4190 -0.3609  0.1169
  169SAPE   C2819097   2.155   1.200   7.211 -0.4792  0.2742  0.2846
  169SAPE   H8R19098   2.172   1.289   7.149  1.9416 -1.7074 -1.9890
  169SAPE   C2919099   2.132   1.223   7.342  0.0641 -0.7805  0.1113
  169SAPE   H9R19100   2.146   1.329   7.366  1.1747 -0.6825 -0.9202
  169SAPE  C21019101   2.110   1.118   7.447 -0.6693  0.6157  0.6724
  169SAPE  H10R19102   2.093   1.021   7.395 -0.2593  0.4262  0.8869
  169SAPE  H10S19103   2.022   1.139   7.511 -2.8695 -1.0816 -1.6941
  169SAPE  C21119104   2.232   1.087   7.536  0.0953  0.6882 -0.2137
  169SAPE  H11R19105   2.307   1.021   7.491  1.1868  0.7381  1.4722
  169SAPE  C21219106   2.261   1.143   7.651 -0.0533 -0.3385 -0.0614
  169SAPE  H12R19107   2.358   1.112   7.693  1.4956  2.0848 -1.6945
  169SAPE  C21319108   2.184   1.253   7.716  0.2046 -0.2537  1.0777
  169SAPE  H13R19109   2.172   1.340   7.648 -0.5536  0.0755  1.6306
  169SAPE  H13S19110   2.249   1.296   7.795  1.1615 -1.8419  1.1828
  169SAPE  C21419111   2.048   1.217   7.777 -0.8819 -0.1384  0.2517
  169SAPE  H14R19112   1.969   1.290   7.753  1.5006  2.0023 -1.4035
  169SAPE  C21519113   2.014   1.112   7.856 -0.2388  0.1217  0.4394
  169SAPE  H15R19114   1.909   1.092   7.879 -0.1219 -1.6241 -0.4356
  169SAPE  C21619115   2.111   1.001   7.902 -0.3501 -0.3153 -0.2723
  169SAPE  H16R19116   2.215   1.027   7.875 -0.3296 -0.3101 -0.1885
  169SAPE  H16S19117   2.096   0.899   7.861 -1.5109 -0.2763  0.0371
  169SAPE  C21719118   2.111   0.992   8.056 -0.7073  0.1423  0.1653
  169SAPE  H17R19119   2.008   0.974   8.096 -1.3210 -1.4831 -2.0499
  169SAPE  H17S19120   2.139   1.093   8.092 -0.7578 -0.6850  2.6751
  169SAPE  C21819121   2.209   0.893   8.113  0.1394  0.2645  0.7514
  169SAPE  H18R19122   2.299   0.886   8.048 -1.6044  0.2048 -1.6977
  169SAPE  H18S19123   2.163   0.792   8.108  0.2959  0.2684 -0.9299
  169SAPE  C21919124   2.262   0.912   8.257 -0.4239  0.3196  0.1992
  169SAPE  H19R19125   2.178   0.901   8.328 -2.0773  1.2396 -1.5639
  169SAPE  H19S19126   2.292   1.019   8.264  5.4927 -1.2046  0.9239
  169SAPE  C22019127   2.382   0.826   8.295 -0.0814  0.5425  0.4419
  169SAPE  H20R19128   2.358   0.722   8.267 -2.1320  1.2012 -0.3066
  169SAPE  H20S19129   2.400   0.815   8.404  0.1487 -0.1280  0.3361
  169SAPE  H20T19130   2.473   0.862   8.241 -0.2785 -1.7193 -1.4525
  169SAPE   C3319131   2.586   0.620   6.986 -0.2090 -0.0313  0.2850
  169SAPE   H3X19132   2.665   0.577   7.051  2.3933  0.8832 -2.1803
  169SAPE   H3Y19133   2.501   0.549   6.976  1.7975 -2.1842 -2.3471
  169SAPE   C3419134   2.554   0.738   7.082 -0.3682  0.8255  0.3838
  169SAPE   H4X19135   2.483   0.808   7.033 -0.4967  0.1850 -0.3681
  169SAPE   H4Y19136   2.650   0.792   7.094  1.0463 -1.8180  1.4704
  169SAPE   C3519137   2.505   0.691   7.219 -0.0894 -0.3435 -0.6304
  169SAPE   H5X19138   2.578   0.611   7.245 -1.6390 -1.5696  0.0474
  169SAPE   H5Y19139   2.406   0.641   7.216  1.0315 -3.0007  2.9383
  169SAPE   C3619140   2.505   0.803   7.326  0.4289 -0.7806  0.8133
  169SAPE   H6X19141   2.442   0.884   7.282  0.3609  0.4298  3.0794
  169SAPE   H6Y19142   2.609   0.839   7.340  0.1194  0.0542  0.9990
  169SAPE   C3719143   2.441   0.766   7.458 -0.4576 -0.4401  0.7474
  169SAPE   H7X19144   2.449   0.851   7.530 -1.9614 -0.6354  1.1735
  169SAPE   H7Y19145   2.483   0.675   7.506  1.3539  0.6865  1.3580
  169SAPE   C3819146   2.288   0.742   7.453 -0.2300  0.1986 -0.3131
  169SAPE   H8X19147   2.264   0.649   7.397  0.3376  0.1629 -0.5046
  169SAPE   H8Y19148   2.242   0.830   7.403 -0.9891  0.2027  0.3909
  169SAPE   C3919149   2.228   0.738   7.587  0.2818 -0.0569 -0.4886
  169SAPE   H9X19150   2.117   0.734   7.576  0.4384 -0.5328 -2.0055
  169SAPE   H9Y19151   2.250   0.827   7.649  1.0532 -1.9413  2.0123
  169SAPE  C31019152   2.269   0.610   7.668 -0.3342  0.0855 -0.0889
  169SAPE  H10X19153   2.376   0.604   7.696 -1.0201 -0.5199  2.6527
  169SAPE  H10Y19154   2.255   0.514   7.615  1.1334 -0.3266  0.2523
  169SAPE  C31119155   2.183   0.587   7.799  0.0609  0.2905  0.1366
  169SAPE  H11X19156   2.080   0.560   7.768 -0.1908  1.2183  0.1646
  169SAPE  H11Y19157   2.186   0.679   7.861  0.6145 -0.1547  0.7830
  169SAPE  C31219158   2.239   0.470   7.885 -0.2828  0.5581 -0.4060
  169SAPE  H12X19159   2.298   0.401   7.822 -0.4941 -1.5047  1.5668
  169SAPE  H12Y19160   2.164   0.415   7.945  3.5757 -1.9333  2.3907
  169SAPE  C31319161   2.346   0.525   7.984  0.6624 -0.9880  0.1741
  169SAPE  H13X19162   2.298   0.613   8.031 -0.1059 -1.4118  0.1931
  169SAPE  H13Y19163   2.435   0.566   7.932 -1.0941  1.7210 -0.7964
  169SAPE  C31419164   2.380   0.430   8.096  0.2650  0.2632  0.3992
  169SAPE  H14X19165   2.288   0.370   8.115 -0.4151  1.4392  0.8437
  169SAPE  H14Y19166   2.403   0.487   8.188  1.0050  0.4654  0.0901
  169SAPE  C31519167   2.508   0.350   8.079  0.8044  0.1530  0.5349
  169SAPE  H15X19168   2.590   0.424   8.079 -0.0136  1.0605  0.1372
  169SAPE  H15Y19169   2.507   0.292   7.985 -0.4313 -0.2462  0.7860
  169SAPE  C31619170   2.520   0.242   8.185  0.1604  0.4541 -0.2088
  169SAPE  H16X19171   2.429   0.186   8.214  0.9424 -0.9623 -0.4414
  169SAPE  H16Y19172   2.548   0.308   8.270 -0.2168 -1.3704  1.3738
  169SAPE  C31719173   2.632   0.141   8.159 -0.6473  0.1774 -0.4765
  169SAPE  H17X19174   2.712   0.193   8.100  2.5597 -1.8280  1.9390
  169SAPE  H17Y19175   2.582   0.060   8.101  1.2633 -1.7591  0.4992
  169SAPE  C31819176   2.683   0.060   8.279  0.0146 -0.0746 -0.0380
  169SAPE  H18X19177   2.605   0.012   8.343  1.2856 -1.5027  0.4649
  169SAPE  H18Y19178   2.722   0.123   8.362 -0.7900  0.8631 -0.3602
  169SAPE  H18Z19179   2.761  -0.011   8.243 -0.8235 -1.0284 -0.0079
  170SAPE     N19180   2.885   5.383   6.360  0.5141 -0.1469 -0.0328
  170SAPE   HN119181   2.929   5.343   6.445  3.5062 -0.3222 -1.5788
  170SAPE   HN219182   2.810   5.451   6.384  1.0847 -0.1696  1.8327
  170SAPE   HN319183   2.831   5.305   6.317 -1.0050  0.7000  0.2873
  170SAPE   C1219184   2.983   5.429   6.249  0.4019 -0.5195  0.0992
  170SAPE  H12A19185   3.016   5.530   6.282  0.1001 -0.4198  0.0900
  170SAPE  H12B19186   2.915   5.439   6.162 -0.5140  0.9707  0.9557
  170SAPE   C1119187   3.102   5.333   6.219  0.4952 -0.0393 -0.1048
  170SAPE  H11A19188   3.163   5.332   6.312 -1.1218 -0.6847  0.9684
  170SAPE  H11B19189   3.163   5.371   6.134  2.1926 -1.1361  0.5878
  170SAPE     P19190   3.055   5.073   6.252 -0.3633 -0.0777 -0.2618
  170SAPE   O1319191   2.937   4.988   6.222  0.5661  0.3361 -0.0359
  170SAPE   O1419192   3.193   5.017   6.224 -0.2944  0.1464  0.3942
  170SAPE   O1219193   3.049   5.207   6.175  0.0651 -0.2571 -0.3015
  170SAPE   O1119194   3.037   5.105   6.406  0.3055  0.0190  0.4681
  170SAPE    C119195   3.066   5.005   6.503  0.6449 -0.2865  0.6508
  170SAPE    HA19196   2.980   4.935   6.511  1.3435 -1.1720  0.4343
  170SAPE    HB19197   3.155   4.943   6.480 -0.7439 -1.0890 -2.8648
  170SAPE    C219198   3.079   5.078   6.636  0.0130  0.4442  0.1900
  170SAPE    HS19199   2.990   5.140   6.660  1.3687  2.4907  0.0482
  170SAPE   O2119200   3.193   5.161   6.638 -0.5872 -1.1322 -0.1871
  170SAPE   C2119201   3.186   5.291   6.596 -0.2955 -0.0883  0.3566
  170SAPE   O2219202   3.082   5.346   6.560 -0.3531  0.3551 -0.2149
  170SAPE   C2219203   3.315   5.367   6.632 -0.1619  0.4155 -0.1025
  170SAPE   H2R19204   3.396   5.327   6.568  0.4929  0.1191  0.9016
  170SAPE   H2S19205   3.302   5.476   6.614  1.0835  0.4907 -0.6116
  170SAPE    C319206   3.091   4.971   6.757 -0.4252 -0.2397 -0.5873
  170SAPE    HX19207   3.132   5.015   6.850 -0.4042 -2.6394  0.5561
  170SAPE    HY19208   3.167   4.893   6.737  0.6801  0.2165  1.7463
  170SAPE   O3119209   2.968   4.903   6.781 -0.5455 -0.6440 -0.3331
  170SAPE   C3119210   2.937   4.865   6.905  0.3849  0.0597  1.2599
  170SAPE   O3219211   3.006   4.884   7.002  0.1582  0.1202  0.6720
  170SAPE   C3219212   2.794   4.815   6.894  0.1698 -1.0220  0.3796
  170SAPE   H2X19213   2.795   4.723   6.832 -0.3482 -1.0097  0.3556
  170SAPE   H2Y19214   2.737   4.889   6.835  0.4327 -1.9384 -1.0411
  170SAPE   C2319215   3.347   5.331   6.780  0.2046  0.1867 -0.2284
  170SAPE   H3R19216   3.293   5.238   6.810 -1.0214 -0.1523 -3.2730
  170SAPE   H3S19217   3.300   5.410   6.842 -0.5171 -1.1661  0.9689
  170SAPE   C2419218   3.489   5.310   6.813 -0.0108  0.7036  1.1719
  170SAPE   H4R19219   3.544   5.246   6.740 -0.7921 -1.8141  2.7058
  170SAPE   H4S19220   3.482   5.259   6.912 -0.7388  0.4276  0.9836
  170SAPE   C2519221   3.553   5.444   6.839 -0.4700  0.1451 -0.4423
  170SAPE   H5R19222   3.573   5.504   6.748 -0.9532 -0.4964 -0.9747
  170SAPE   C2619223   3.581   5.502   6.959  0.6276 -0.0755 -0.4467
  170SAPE   H6R19224   3.617   5.606   6.951 -1.3634  0.6426 -0.3660
  170SAPE   C2719225   3.554   5.443   7.096  0.2711 -0.2273 -0.0017
  170SAPE   H7R19226   3.594   5.341   7.112  0.8901  0.0135 -0.0308
  170SAPE   H7S19227   3.445   5.418   7.097 -0.2429  1.8791  1.7079
  170SAPE   C2819228   3.577   5.521   7.221  0.7139  0.1578 -0.1227
  170SAPE   H8R19229   3.574   5.629   7.202 -1.1944  0.2082  0.3473
  170SAPE   C2919230   3.599   5.476   7.348 -0.1066  0.0014 -0.0803
  170SAPE   H9R19231   3.615   5.545   7.432  2.3889 -0.2431 -0.3159
  170SAPE  C21019232   3.599   5.333   7.401 -0.6590 -0.3037  0.1937
  170SAPE  H10R19233   3.541   5.261   7.339 -0.6882  0.4937 -0.7097
  170SAPE  H10S19234   3.533   5.337   7.491 -0.2177 -2.6906  0.6712
  170SAPE  C21119235   3.730   5.283   7.456 -0.1541 -0.1690 -0.3548
  170SAPE  H11R19236   3.765   5.192   7.404 -2.0291 -0.7185 -0.6714
  170SAPE  C21219237   3.788   5.318   7.571  0.0997 -0.1354 -0.4794
  170SAPE  H12R19238   3.887   5.273   7.588  0.3996  0.6170 -0.2430
  170SAPE  C21319239   3.748   5.432   7.664 -0.4699 -0.6350 -0.8939
  170SAPE  H13R19240   3.698   5.510   7.602 -1.1826 -0.6440 -0.3371
  170SAPE  H13S19241   3.837   5.482   7.709 -1.2779  0.7505 -0.7894
  170SAPE  C21419242   3.651   5.388   7.779  0.4177  0.0778  0.2325
  170SAPE  H14R19243   3.571   5.322   7.742  1.7926 -3.7924  3.7352
  170SAPE  C21519244   3.641   5.420   7.911  0.1846 -0.0678  0.4889
  170SAPE  H15R19245   3.558   5.367   7.960  0.5999 -2.3539 -1.1532
  170SAPE  C21619246   3.722   5.515   7.997  0.4232 -0.4350  0.3454
  170SAPE  H16R19247   3.641   5.583   8.032  0.8168  0.5718 -0.7012
  170SAPE  H16S19248   3.797   5.571   7.937  0.1882  0.7776  1.1482
  170SAPE  C21719249   3.785   5.442   8.116  0.7640  0.5757  0.1133
  170SAPE  H17R19250   3.850   5.518   8.164  1.3006  0.4081 -0.3335
  170SAPE  H17S19251   3.856   5.362   8.083 -2.2153 -1.7093 -1.0063
  170SAPE  C21819252   3.687   5.382   8.215  0.5270  0.2439 -0.6590
  170SAPE  H18R19253   3.637   5.295   8.166 -0.6524  0.4004  0.2486
  170SAPE  H18S19254   3.611   5.456   8.248  0.1828  0.1043 -1.1325
  170SAPE  C21919255   3.775   5.332   8.342  0.0749 -0.3854  0.2994
  170SAPE  H19R19256   3.818   5.431   8.368  0.8160 -0.3530 -0.9900
  170SAPE  H19S19257   3.857   5.268   8.305 -0.1465  0.2012 -1.2487
  170SAPE  C22019258   3.696   5.278   8.462 -0.1666  0.1366  0.5668
  170SAPE  H20R19259   3.634   5.190   8.436 -1.2843  1.1498 -0.2840
  170SAPE  H20S19260   3.626   5.356   8.499  0.5677  0.1952  1.8340
  170SAPE  H20T19261   3.765   5.250   8.545  1.3521  2.6630  0.2160
  170SAPE   C3319262   2.739   4.802   7.043 -0.1862 -0.6574  0.0595
  170SAPE   H3X19263   2.813   4.746   7.103 -2.1271 -2.9684  0.3756
  170SAPE   H3Y19264   2.648   4.738   7.040 -0.6725  0.0133  0.2915
  170SAPE   C3419265   2.726   4.941   7.113 -0.2884 -0.2013 -0.2271
  170SAPE   H4X19266   2.680   5.015   7.044 -2.0922  0.0426  1.1722
  170SAPE   H4Y19267   2.829   4.978   7.128  0.2389 -0.9609 -1.8698
  170SAPE   C3519268   2.646   4.931   7.241  0.0337 -0.1288 -0.1604
  170SAPE   H5X19269   2.699   4.844   7.286 -0.9898 -1.4517 -1.4334
  170SAPE   H5Y19270   2.542   4.901   7.215  0.0805 -1.3801  1.0026
  170SAPE   C3619271   2.637   5.051   7.336  0.0983  0.0050 -0.3494
  170SAPE   H6X19272   2.590   5.133   7.277 -2.0826 -1.6181 -0.9447
  170SAPE   H6Y19273   2.732   5.093   7.374 -1.7056  3.0039  1.0625
  170SAPE   C3719274   2.561   5.027   7.475  0.8811 -0.3556 -0.5835
  170SAPE   H7X19275   2.620   4.946   7.524  0.2713 -0.6758 -0.3701
  170SAPE   H7Y19276   2.468   4.973   7.445  2.5166 -2.4368 -2.0456
  170SAPE   C3819277   2.543   5.150   7.560  0.1154  0.1085  0.3099
  170SAPE   H8X19278   2.476   5.223   7.510  1.3600  0.3253 -1.0728
  170SAPE   H8Y19279   2.646   5.188   7.579  0.4092 -0.5513  0.0393
  170SAPE   C3919280   2.477   5.106   7.687  0.2127 -0.0690  0.3705
  170SAPE   H9X19281   2.370   5.078   7.673  0.8063 -2.9344  1.2848
  170SAPE   H9Y19282   2.473   5.203   7.742  0.7699 -0.4181  1.0234
  170SAPE  C31019283   2.553   5.011   7.774 -0.4706 -0.2182  0.9317
  170SAPE  H10X19284   2.654   5.055   7.790 -0.6622 -0.1455  1.9970
  170SAPE  H10Y19285   2.559   4.912   7.723 -1.4444 -1.2912  2.8390
  170SAPE  C31119286   2.475   4.987   7.898 -0.7721  0.0824  0.4263
  170SAPE  H11X19287   2.379   4.941   7.867 -0.2386  0.7141 -2.3182
  170SAPE  H11Y19288   2.460   5.085   7.948 -1.5178  0.7767 -1.1154
  170SAPE  C31219289   2.552   4.899   7.993 -0.6931  0.7104 -0.3526
  170SAPE  H12X19290   2.648   4.948   8.022  0.6315 -1.4308 -1.0426
  170SAPE  H12Y19291   2.580   4.804   7.943  0.4508  1.7398 -1.7144
  170SAPE  C31319292   2.473   4.847   8.120 -0.4098 -0.0492  0.2340
  170SAPE  H13X19293   2.409   4.765   8.081 -1.2541  1.0965 -0.8304
  170SAPE  H13Y19294   2.409   4.927   8.162  0.1309  0.6137 -0.2070
  170SAPE  C31419295   2.566   4.792   8.225 -0.2364 -0.7873  0.2712
  170SAPE  H14X19296   2.511   4.754   8.314  2.2443 -1.7957  1.4252
  170SAPE  H14Y19297   2.637   4.869   8.264  0.6122 -1.4848  0.1198
  170SAPE  C31519298   2.653   4.668   8.178  0.0568 -0.3771 -1.0658
  170SAPE  H15X19299   2.712   4.706   8.092 -1.3275 -2.1716 -2.8498
  170SAPE  H15Y19300   2.580   4.594   8.137 -0.1169  0.4839 -2.3333
  170SAPE  C31619301   2.742   4.602   8.285  0.0396 -0.4080  0.5744
  170SAPE  H16X19302   2.688   4.517   8.332  1.4789 -0.5658  1.9952
  170SAPE  H16Y19303   2.772   4.675   8.364  0.1489  2.0607 -1.6997
  170SAPE  C31719304   2.878   4.555   8.226  0.1774  0.6251 -0.1976
  170SAPE  H17X19305   2.951   4.549   8.310 -0.0556  2.3221  0.1369
  170SAPE  H17Y19306   2.913   4.624   8.146  3.1397 -0.3328  0.2117
  170SAPE  C31819307   2.862   4.412   8.169 -0.3834 -0.0851 -0.9820
  170SAPE  H18X19308   2.962   4.374   8.139  0.0499  1.1019 -1.0940
  170SAPE  H18Y19309   2.786   4.422   8.089 -1.6115  0.4773  0.2335
  170SAPE  H18Z19310   2.828   4.351   8.255  0.6497  1.4282  0.5387
  171SAPE     N19311   5.053   6.290   6.172  0.2890 -0.2016 -0.8779
  171SAPE   HN119312   4.958   6.282   6.131 -0.2469 -0.2325  0.3362
  171SAPE   HN219313   5.083   6.389   6.175 -0.5009  0.0714 -1.8937
  171SAPE   HN319314   5.118   6.245   6.105  0.6040  1.1785 -1.5174
  171SAPE   C1219315   5.038   6.227   6.306 -0.1307  0.1110  0.4769
  171SAPE  H12A19316   4.968   6.294   6.360 -0.0209  0.0672  0.6766
  171SAPE  H12B19317   5.140   6.232   6.350 -0.7503  0.6571  1.8929
  171SAPE   C1119318   4.994   6.080   6.310  0.4370 -0.0811 -0.3804
  171SAPE  H11A19319   4.961   6.046   6.410 -2.6016  1.1383 -0.8979
  171SAPE  H11B19320   5.073   6.008   6.278  0.2915 -0.1924 -0.4904
  171SAPE     P19321   4.824   5.918   6.187 -0.3524  0.2595  0.0955
  171SAPE   O1319322   4.772   5.943   6.052  0.3731 -0.1021  0.1854
  171SAPE   O1419323   4.930   5.820   6.198 -0.3065 -0.1642 -0.0363
  171SAPE   O1219324   4.877   6.063   6.228  0.1476 -0.6095 -0.4626
  171SAPE   O1119325   4.715   5.892   6.291  0.0209  0.0377  0.2540
  171SAPE    C119326   4.632   5.985   6.361 -0.5017  0.3116  0.0183
  171SAPE    HA19327   4.644   6.089   6.324  2.1576 -0.0294 -0.1712
  171SAPE    HB19328   4.528   5.952   6.337 -0.3952 -1.2931  1.6688
  171SAPE    C219329   4.654   5.968   6.502  0.3144  0.0958  0.2362
  171SAPE    HS19330   4.560   5.991   6.557 -0.1308  2.5433 -1.4722
  171SAPE   O2119331   4.758   6.063   6.544 -0.6729  0.6424 -0.3394
  171SAPE   C2119332   4.774   6.093   6.668  0.2529 -0.1617  0.8698
  171SAPE   O2219333   4.711   6.059   6.765  0.1445  0.4618 -0.1742
  171SAPE   C2219334   4.903   6.172   6.669 -1.0540  0.6996 -0.0061
  171SAPE   H2R19335   4.915   6.240   6.582  3.5191  2.5550  1.8974
  171SAPE   H2S19336   4.891   6.243   6.754  0.6048  0.6133  0.3154
  171SAPE    C319337   4.686   5.823   6.547 -0.1163 -0.0086 -0.2174
  171SAPE    HX19338   4.786   5.807   6.502  0.8789 -2.7986  2.7569
  171SAPE    HY19339   4.606   5.764   6.498  0.3826  0.3788 -1.4956
  171SAPE   O3119340   4.694   5.807   6.687 -0.0921 -0.0779 -0.1160
  171SAPE   C3119341   4.575   5.794   6.751  0.1207 -0.6489 -0.4480
  171SAPE   O3219342   4.464   5.801   6.694 -0.6268 -0.3880 -0.4225
  171SAPE   C3219343   4.601   5.788   6.900  0.2000 -0.4332 -0.2011
  171SAPE   H2X19344   4.685   5.860   6.912  1.2158 -1.2507 -2.0860
  171SAPE   H2Y19345   4.633   5.685   6.927 -0.5089 -1.4326 -3.0011
  171SAPE   C2319346   5.033   6.092   6.699  0.9806 -0.7026  0.0431
  171SAPE   H3R19347   5.122   6.158   6.691 -0.4670  1.2540 -0.2209
  171SAPE   H3S19348   5.035   6.019   6.615 -2.7313  0.6796 -1.3428
  171SAPE   C2419349   5.032   6.025   6.842  0.0194 -0.2058  0.2357
  171SAPE   H4R19350   5.113   5.949   6.846 -0.1191 -0.3720 -0.1023
  171SAPE   H4S19351   4.937   5.968   6.856  0.3641 -0.4514  1.6196
  171SAPE   C2519352   5.053   6.110   6.963  0.4582 -0.5161  0.5593
  171SAPE   H5R19353   5.136   6.182   6.956  0.3517 -0.3712  0.7717
  171SAPE   C2619354   4.991   6.102   7.081 -0.2559 -0.5582 -0.1582
  171SAPE   H6R19355   5.039   6.163   7.159 -1.0907 -0.9383  0.6653
  171SAPE   C2719356   4.875   6.021   7.130 -0.3215  0.0773 -0.2709
  171SAPE   H7R19357   4.892   5.984   7.233  1.3792 -2.5514 -1.4752
  171SAPE   H7S19358   4.872   5.931   7.065  0.1981  0.4388 -0.8009
  171SAPE   C2819359   4.743   6.097   7.120 -0.0194 -0.1428 -0.5972
  171SAPE   H8R19360   4.700   6.120   7.021  1.7045  0.2701 -1.2595
  171SAPE   C2919361   4.669   6.147   7.223 -0.0355 -0.6879  0.1048
  171SAPE   H9R19362   4.583   6.210   7.195  0.3724 -0.8142 -1.4837
  171SAPE  C21019363   4.704   6.141   7.367  0.3439 -0.6802  0.8322
  171SAPE  H10R19364   4.811   6.167   7.382  0.4031 -0.8072  0.6372
  171SAPE  H10S19365   4.699   6.031   7.386 -0.7133 -0.7265  0.2862
  171SAPE  C21119366   4.605   6.216   7.454 -0.8216  0.2683  0.5553
  171SAPE  H11R19367   4.526   6.273   7.403 -2.0016 -1.4084  0.4884
  171SAPE  C21219368   4.596   6.202   7.586 -0.6167 -0.6366 -0.2624
  171SAPE  H12R19369   4.513   6.253   7.637 -0.5782  2.2165 -2.9184
  171SAPE  C21319370   4.690   6.109   7.670 -0.4838 -0.6197  0.2689
  171SAPE  H13R19371   4.768   6.186   7.686 -0.0981 -0.5482 -1.8269
  171SAPE  H13S19372   4.732   6.032   7.602 -1.8684 -0.1877 -1.1068
  171SAPE  C21419373   4.637   6.060   7.799 -0.5309  0.3958 -0.3482
  171SAPE  H14R19374   4.619   5.952   7.793 -1.3241  0.5890 -1.9473
  171SAPE  C21519375   4.609   6.136   7.909 -0.3207  0.4965 -0.7025
  171SAPE  H15R19376   4.568   6.084   7.997 -0.4909 -0.2762 -1.2309
  171SAPE  C21619377   4.626   6.281   7.921 -0.1995 -0.4909 -0.3732
  171SAPE  H16R19378   4.570   6.314   8.010  1.9745 -1.5074  1.4435
  171SAPE  H16S19379   4.590   6.330   7.828 -1.6520  1.4465  1.1744
  171SAPE  C21719380   4.772   6.319   7.947  0.3720  0.3005  0.4957
  171SAPE  H17R19381   4.784   6.429   7.941  0.8108  0.1953 -0.6679
  171SAPE  H17S19382   4.841   6.270   7.874 -0.7329 -2.0846  0.9868
  171SAPE  C21819383   4.807   6.262   8.087 -0.4995 -0.2931  0.2321
  171SAPE  H18R19384   4.795   6.152   8.093  2.1906 -0.5669  0.8815
  171SAPE  H18S19385   4.746   6.319   8.161  0.8060  0.8938  0.4070
  171SAPE  C21919386   4.957   6.271   8.133  0.3078 -0.3941  0.4282
  171SAPE  H19R19387   4.986   6.377   8.149 -0.2007 -0.2957  0.7374
  171SAPE  H19S19388   5.028   6.219   8.065  0.0806 -1.1901  0.7893
  171SAPE  C22019389   4.971   6.210   8.271  0.2241  0.1486 -0.6007
  171SAPE  H20R19390   5.056   6.255   8.327 -0.4528  1.7839 -0.8430
  171SAPE  H20S19391   4.962   6.100   8.278 -0.6107  0.1659 -1.2295
  171SAPE  H20T19392   4.881   6.239   8.331 -0.2627 -0.9159 -0.8057
  171SAPE   C3319393   4.482   5.841   6.986  0.3671 -0.3613 -0.7373
  171SAPE   H3X19394   4.394   5.785   6.950 -1.0385  0.4269  1.3712
  171SAPE   H3Y19395   4.453   5.948   6.975  0.6843 -0.1384  0.4878
  171SAPE   C3419396   4.508   5.811   7.136  0.5758  0.6658  0.6784
  171SAPE   H4X19397   4.600   5.869   7.161 -0.3781  2.0339  1.0872
  171SAPE   H4Y19398   4.523   5.702   7.152 -0.6384  0.0780 -1.9031
  171SAPE   C3519399   4.389   5.851   7.221  0.4302  0.2268 -0.1943
  171SAPE   H5X19400   4.302   5.796   7.181 -0.1538 -0.1639  1.6041
  171SAPE   H5Y19401   4.379   5.961   7.207 -1.6159  0.2582  1.4215
  171SAPE   C3619402   4.401   5.812   7.372  0.7780  0.0431 -0.3607
  171SAPE   H6X19403   4.500   5.834   7.416 -0.3900  1.1019  1.8672
  171SAPE   H6Y19404   4.385   5.703   7.386  0.6368  0.0450 -0.4980
  171SAPE   C3719405   4.309   5.897   7.454 -0.6493  0.3355 -0.3596
  171SAPE   H7X19406   4.206   5.888   7.413 -1.1121 -0.6292  0.9794
  171SAPE   H7Y19407   4.339   6.004   7.452 -0.1498  0.2136  0.3065
  171SAPE   C3819408   4.316   5.850   7.598  0.1163  0.0798 -0.0629
  171SAPE   H8X19409   4.424   5.823   7.609  0.1119  0.6551  1.4445
  171SAPE   H8Y19410   4.258   5.756   7.606  2.4041 -1.3505  0.3016
  171SAPE   C3919411   4.267   5.956   7.701  0.1088 -0.4729 -0.2794
  171SAPE   H9X19412   4.165   5.993   7.680  0.1170  0.3417  1.0234
  171SAPE   H9Y19413   4.331   6.047   7.704  0.4446 -0.7334  1.0959
  171SAPE  C31019414   4.288   5.899   7.844 -0.5801  0.1158  0.1054
  171SAPE  H10X19415   4.397   5.878   7.847 -0.6536 -0.6319 -2.0680
  171SAPE  H10Y19416   4.236   5.801   7.854  1.3096 -1.0241 -1.0672
  171SAPE  C31119417   4.260   6.010   7.945  0.6237  0.4272 -0.5378
  171SAPE  H11X19418   4.159   6.053   7.926 -0.8206 -3.8331 -3.1444
  171SAPE  H11Y19419   4.343   6.083   7.939  0.7031  0.5653  1.8915
  171SAPE  C31219420   4.256   5.958   8.087  0.2418  0.4499  0.4198
  171SAPE  H12X19421   4.347   5.896   8.104 -0.6937 -1.3362 -0.9589
  171SAPE  H12Y19422   4.176   5.882   8.095  0.7142  0.0098  1.0283
  171SAPE  C31319423   4.237   6.068   8.194 -0.1605 -0.1295 -0.8081
  171SAPE  H13X19424   4.164   6.031   8.270  0.0418  0.0251 -0.5372
  171SAPE  H13Y19425   4.196   6.161   8.148 -1.2807 -1.4209 -2.4788
  171SAPE  C31419426   4.361   6.104   8.269 -0.0030  0.1596  0.5313
  171SAPE  H14X19427   4.445   6.127   8.199 -0.1850  1.4324  0.7137
  171SAPE  H14Y19428   4.386   6.016   8.333 -1.9177 -0.6465  0.1870
  171SAPE  C31519429   4.341   6.224   8.357 -0.1546  0.1668 -0.3624
  171SAPE  H15X19430   4.257   6.210   8.428 -0.4181  1.1081 -0.4867
  171SAPE  H15Y19431   4.307   6.301   8.284  0.8022 -1.2909 -2.4020
  171SAPE  C31619432   4.468   6.262   8.429  0.4587 -0.0792 -0.3332
  171SAPE  H16X19433   4.560   6.248   8.369 -0.6960 -1.7702 -1.7529
  171SAPE  H16Y19434   4.485   6.185   8.507  0.7329  0.1098 -0.2079
  171SAPE  C31719435   4.479   6.406   8.479  0.1896 -0.4987  0.7392
  171SAPE  H17X19436   4.394   6.427   8.547 -0.4916  1.5938 -0.7011
  171SAPE  H17Y19437   4.454   6.482   8.401 -1.8475 -0.8044  1.0593
  171SAPE  C31819438   4.605   6.454   8.549  0.1546  0.4236  0.6956
  171SAPE  H18X19439   4.700   6.432   8.497 -0.4369 -3.1130  0.9590
  171SAPE  H18Y19440   4.611   6.397   8.645 -0.2637 -3.3696 -1.4095
  171SAPE  H18Z19441   4.597   6.560   8.579  2.4779  0.1890  2.2552
  172SAPE     N19442   3.549   3.952   6.418  0.4350 -0.0176  0.1293
  172SAPE   HN119443   3.554   3.917   6.516  0.2014  0.4159  0.3017
  172SAPE   HN219444   3.542   3.872   6.352  1.3514  1.0484 -1.2860
  172SAPE   HN319445   3.639   4.001   6.400  1.0290 -0.2383  2.3603
  172SAPE   C1219446   3.443   4.061   6.399 -0.7361 -0.3569  0.5510
  172SAPE  H12A19447   3.483   4.141   6.465  2.4491 -0.1701 -1.5041
  172SAPE  H12B19448   3.346   4.012   6.421 -0.6105 -2.5328 -3.3304
  172SAPE   C1119449   3.445   4.120   6.253 -0.0319  0.2256 -0.4356
  172SAPE  H11A19450   3.358   4.186   6.234 -1.5816 -1.4070  0.7558
  172SAPE  H11B19451   3.425   4.035   6.185  0.7646 -0.8460  0.6398
  172SAPE     P19452   3.584   4.340   6.249  0.1039 -0.2444  0.4330
  172SAPE   O1319453   3.720   4.378   6.234 -0.5458 -0.5485 -0.4784
  172SAPE   O1419454   3.491   4.416   6.167  0.0154 -0.4293  1.2708
  172SAPE   O1219455   3.566   4.185   6.231  0.4580 -0.1977 -0.5213
  172SAPE   O1119456   3.544   4.364   6.402  0.3354  0.5680 -0.1168
  172SAPE    C119457   3.551   4.492   6.464 -0.2730  0.3329  0.0227
  172SAPE    HA19458   3.609   4.560   6.398  1.2749 -1.8067 -0.8864
  172SAPE    HB19459   3.448   4.533   6.458 -0.4431 -0.3698 -2.1908
  172SAPE    C219460   3.594   4.489   6.609 -0.2730 -0.0496  0.7928
  172SAPE    HS19461   3.584   4.595   6.642  0.6893  0.7173 -1.2518
  172SAPE   O2119462   3.730   4.444   6.627 -0.4924 -0.1227  0.6673
  172SAPE   C2119463   3.806   4.482   6.725 -0.0829 -0.2896  0.2671
  172SAPE   O2219464   3.774   4.565   6.807  0.3333  0.2146  0.0455
  172SAPE   C2219465   3.945   4.408   6.719  0.1364  0.2053  0.5990
  172SAPE   H2R19466   3.924   4.313   6.772 -0.8749  1.0045  1.6580
  172SAPE   H2S19467   3.956   4.398   6.609 -2.0126 -3.6352  0.6420
  172SAPE    C319468   3.494   4.398   6.692  0.6428 -0.5521  0.6361
  172SAPE    HX19469   3.514   4.292   6.666  0.9191  0.2312 -2.4800
  172SAPE    HY19470   3.391   4.431   6.669  1.3685  1.8273  0.6739
  172SAPE   O3119471   3.506   4.409   6.836 -0.0665  0.0593  0.1215
  172SAPE   C3119472   3.466   4.534   6.881  0.2127 -0.3091  0.4509
  172SAPE   O3219473   3.401   4.614   6.817 -0.1631 -0.0505  0.1480
  172SAPE   C3219474   3.536   4.560   7.013  0.3341 -0.6175  0.1123
  172SAPE   H2X19475   3.538   4.671   7.022 -0.6249 -0.6407  0.7877
  172SAPE   H2Y19476   3.643   4.532   7.006  0.7226  0.9796 -0.5986
  172SAPE   C2319477   4.044   4.488   6.803  0.4169  0.6492 -0.1032
  172SAPE   H3R19478   3.998   4.499   6.904 -0.3394 -1.2646 -0.2104
  172SAPE   H3S19479   4.057   4.589   6.761  0.5145  0.6679 -0.0272
  172SAPE   C2419480   4.179   4.420   6.818 -0.2412 -0.1722  0.0403
  172SAPE   H4R19481   4.248   4.488   6.873 -0.2065 -0.2761  0.1234
  172SAPE   H4S19482   4.224   4.403   6.718  0.3184 -0.2036  0.2969
  172SAPE   C2519483   4.179   4.285   6.883 -0.2981  0.6268  0.7669
  172SAPE   H5R19484   4.157   4.204   6.812  0.8523  1.3123 -0.3841
  172SAPE   C2619485   4.207   4.251   7.011 -0.2482 -0.3140 -0.2627
  172SAPE   H6R19486   4.207   4.146   7.043 -1.2688  0.8658  3.9548
  172SAPE   C2719487   4.244   4.349   7.119 -0.3225  0.0147  0.1201
  172SAPE   H7R19488   4.169   4.317   7.194  1.4932 -2.3239  0.9914
  172SAPE   H7S19489   4.225   4.456   7.092  1.4145  0.5346  0.8963
  172SAPE   C2819490   4.377   4.348   7.185  0.2088  0.1586 -0.5395
  172SAPE   H8R19491   4.458   4.296   7.132 -0.2134 -2.8273  1.6391
  172SAPE   C2919492   4.410   4.397   7.307  0.7006  0.3643 -0.0777
  172SAPE   H9R19493   4.509   4.381   7.352  0.4447  0.4782  0.5384
  172SAPE  C21019494   4.310   4.455   7.403 -0.2134  0.3911  0.4911
  172SAPE  H10R19495   4.235   4.509   7.342  1.2876  0.1199 -1.6643
  172SAPE  H10S19496   4.368   4.536   7.454  0.7633 -0.0347  0.0856
  172SAPE  C21119497   4.261   4.337   7.492  0.1837  0.4319  0.1693
  172SAPE  H11R19498   4.173   4.282   7.455 -1.0936  0.6923  2.6772
  172SAPE  C21219499   4.304   4.279   7.607 -0.2164  0.1040  0.0740
  172SAPE  H12R19500   4.246   4.196   7.651  1.8662 -1.3416  0.1719
  172SAPE  C21319501   4.435   4.320   7.679  0.0344 -0.2220 -0.4674
  172SAPE  H13R19502   4.407   4.393   7.757 -2.7268  0.1565 -1.7219
  172SAPE  H13S19503   4.517   4.368   7.622  2.7865 -1.0282  2.6628
  172SAPE  C21419504   4.504   4.194   7.728 -0.8124  0.5080 -0.7017
  172SAPE  H14R19505   4.522   4.115   7.653  1.0663 -1.7969  2.0595
  172SAPE  C21519506   4.524   4.166   7.858  0.6893  0.8954  0.1547
  172SAPE  H15R19507   4.575   4.072   7.886 -0.9485 -0.2938 -0.7477
  172SAPE  C21619508   4.488   4.254   7.969  0.4409 -0.1237  0.6620
  172SAPE  H16R19509   4.388   4.300   7.958  1.1131  1.2300  0.1114
  172SAPE  H16S19510   4.546   4.349   7.972 -1.5216  1.1448 -0.6749
  172SAPE  C21719511   4.493   4.189   8.102 -0.4816  0.0978 -0.1449
  172SAPE  H17R19512   4.593   4.146   8.124 -1.1185 -0.9768  0.6809
  172SAPE  H17S19513   4.437   4.094   8.112  0.7011 -0.5007  1.0299
  172SAPE  C21819514   4.448   4.291   8.207 -0.2398 -0.1885 -0.1478
  172SAPE  H18R19515   4.337   4.286   8.211 -0.1770 -0.1515  2.2156
  172SAPE  H18S19516   4.494   4.388   8.179 -1.7221  1.1214  1.8174
  172SAPE  C21919517   4.495   4.248   8.345 -0.1938 -0.0406 -0.1740
  172SAPE  H19R19518   4.431   4.310   8.412  0.7361  0.6066  0.1277
  172SAPE  H19S19519   4.602   4.276   8.354  0.2881 -1.3026 -1.8330
  172SAPE  C22019520   4.477   4.104   8.393  0.5022 -0.2904 -0.4851
  172SAPE  H20R19521   4.544   4.040   8.332  2.7723  0.7753  0.7792
  172SAPE  H20S19522   4.376   4.060   8.380 -0.7171  2.5012 -0.7810
  172SAPE  H20T19523   4.507   4.101   8.500 -1.3540  0.1609  0.0704
  172SAPE   C3319524   3.457   4.486   7.122  0.0638  0.0675  0.1562
  172SAPE   H3X19525   3.524   4.501   7.210  0.3141  1.9577 -0.3183
  172SAPE   H3Y19526   3.437   4.379   7.105  1.5208  0.3579 -3.9452
  172SAPE   C3419527   3.342   4.571   7.156 -0.0295  0.2524  0.1447
  172SAPE   H4X19528   3.259   4.554   7.084 -0.6948  1.8288  0.5210
  172SAPE   H4Y19529   3.372   4.678   7.152  3.4738 -0.6199  1.4557
  172SAPE   C3519530   3.276   4.560   7.289 -0.2763  0.1820  0.2886
  172SAPE   H5X19531   3.339   4.603   7.369  0.0716 -0.7236  0.4972
  172SAPE   H5Y19532   3.247   4.457   7.319 -0.3813 -0.1958 -1.0814
  172SAPE   C3619533   3.149   4.659   7.285  0.6782  0.0303  0.1560
  172SAPE   H6X19534   3.064   4.593   7.260  0.3788 -0.2858  1.9675
  172SAPE   H6Y19535   3.165   4.729   7.200 -1.6775  2.2180  1.4428
  172SAPE   C3719536   3.121   4.734   7.413 -0.1533  0.1360 -0.6812
  172SAPE   H7X19537   3.203   4.809   7.418  0.0593 -0.2319  2.6627
  172SAPE   H7Y19538   3.135   4.655   7.491  1.0403 -2.8388 -3.7862
  172SAPE   C3819539   2.984   4.802   7.418  0.0805 -0.1161 -0.5820
  172SAPE   H8X19540   2.903   4.726   7.424 -1.4908  1.5772 -0.0557
  172SAPE   H8Y19541   2.979   4.869   7.330  1.4205 -0.9134 -1.2734
  172SAPE   C3919542   2.983   4.900   7.535 -0.0023  0.1046 -0.2096
  172SAPE   H9X19543   2.880   4.941   7.546  0.0102  0.4793 -1.4235
  172SAPE   H9Y19544   3.036   4.992   7.503 -1.4695  0.8818 -0.4367
  172SAPE  C31019545   3.028   4.830   7.657 -0.2895 -0.1758  0.0053
  172SAPE  H10X19546   3.139   4.824   7.661 -0.4075 -1.6113  1.7162
  172SAPE  H10Y19547   2.982   4.729   7.665 -0.1332 -0.1365  1.4897
  172SAPE  C31119548   2.985   4.898   7.790 -0.1729  1.0446 -0.8880
  172SAPE  H11X19549   2.874   4.906   7.797 -0.2709 -0.4933 -0.5273
  172SAPE  H11Y19550   3.027   5.001   7.785 -2.8631  2.1260 -2.1957
  172SAPE  C31219551   3.050   4.836   7.923  0.2144  0.4763  0.1372
  172SAPE  H12X19552   3.161   4.837   7.927  0.2371  0.8047 -0.5558
  172SAPE  H12Y19553   3.026   4.728   7.929 -0.0944  0.2266 -4.2107
  172SAPE  C31319554   3.011   4.907   8.058 -1.0035  0.6258  0.9024
  172SAPE  H13X19555   3.105   4.876   8.108 -0.1598  0.9124 -0.4905
  172SAPE  H13Y19556   2.929   4.851   8.109  0.7232 -1.8573  1.0358
  172SAPE  C31419557   2.990   5.064   8.041 -1.1931  0.2952  0.1475
  172SAPE  H14X19558   2.898   5.093   7.986 -1.2278 -0.4647 -0.2081
  172SAPE  H14Y19559   3.076   5.106   7.984 -1.5427  0.7181 -0.0707
  172SAPE  C31519560   2.997   5.143   8.171 -0.4684 -0.2576 -0.4961
  172SAPE  H15X19561   2.958   5.247   8.163  2.1388  0.6989 -1.0883
  172SAPE  H15Y19562   3.099   5.154   8.214 -0.7185 -1.7542  0.5219
  172SAPE  C31619563   2.911   5.078   8.284 -0.4305 -0.2680  0.2408
  172SAPE  H16X19564   2.954   4.977   8.305 -1.4699 -1.2211 -2.0084
  172SAPE  H16Y19565   2.808   5.069   8.244  0.0401  0.1742 -1.0676
  172SAPE  C31719566   2.914   5.162   8.411  0.2727  0.1132  0.0858
  172SAPE  H17X19567   2.846   5.248   8.391 -1.0233 -0.5157  1.6406
  172SAPE  H17Y19568   3.015   5.198   8.439  0.9249 -1.8064  0.2500
  172SAPE  C31819569   2.856   5.088   8.535 -0.3171 -0.3222  0.6447
  172SAPE  H18X19570   2.919   4.997   8.544 -1.3646 -1.4251 -2.3936
  172SAPE  H18Y19571   2.759   5.044   8.503 -0.6795 -0.4961  1.9833
  172SAPE  H18Z19572   2.857   5.146   8.630 -3.1626 -0.1163  0.5853
  173SOPE     N19573   5.216   2.050  10.970  0.3893 -0.2490 -0.6629
  173SOPE   HN119574   5.154   2.021  11.048  1.9860 -2.0698 -0.0101
  173SOPE   HN219575   5.292   2.105  11.014 -0.3024 -1.0150  1.5744
  173SOPE   HN319576   5.164   2.091  10.890  0.0674  1.1849  0.2659
  173SOPE   C1219577   5.275   1.921  10.916 -0.0779  0.2975 -0.4949
  173SOPE  H12A19578   5.305   1.851  10.997  1.9373  0.1962 -1.2961
  173SOPE  H12B19579   5.362   1.953  10.855 -0.6467  0.4283 -1.2445
  173SOPE   C1119580   5.169   1.852  10.832  0.3744 -0.2913  0.6333
  173SOPE  H11A19581   5.226   1.770  10.783 -0.8076 -1.7547  1.6787
  173SOPE  H11B19582   5.139   1.914  10.744 -0.5376 -0.7765  0.5946
  173SOPE     P19583   5.057   1.667  10.974 -0.4208 -0.2642 -0.3059
  173SOPE   O1319584   4.944   1.657  11.069 -0.0800  0.2402 -0.8468
  173SOPE   O1419585   5.193   1.643  11.025 -0.7413  0.4503  0.1479
  173SOPE   O1219586   5.059   1.814  10.911  0.3607  0.5175 -0.4444
  173SOPE   O1119587   5.034   1.577  10.849 -0.5933  0.1574  0.3603
  173SOPE    C119588   5.086   1.441  10.843 -0.5187  0.1100  0.2577
  173SOPE    HA19589   5.014   1.381  10.903 -0.7020 -1.1636 -1.1996
  173SOPE    HB19590   5.187   1.426  10.886 -0.7008 -1.6496  0.1221
  173SOPE    C219591   5.089   1.394  10.694  0.2805  0.6952 -0.4104
  173SOPE    HS19592   5.097   1.283  10.695  0.8126  0.7429  0.7731
  173SOPE   O2119593   5.207   1.443  10.628  0.0050  0.3352  0.4245
  173SOPE   C2119594   5.315   1.374  10.660  0.9327 -0.1125 -0.4969
  173SOPE   O2219595   5.324   1.283  10.737 -0.1379  0.0630 -0.7453
  173SOPE   C2219596   5.429   1.436  10.584 -0.0350 -0.2539  0.5795
  173SOPE   H2R19597   5.519   1.414  10.645  0.9678  0.6990 -0.5325
  173SOPE   H2S19598   5.417   1.546  10.574  0.0884 -0.3820 -1.0995
  173SOPE    C319599   4.964   1.441  10.617 -0.6168  0.5105 -0.2012
  173SOPE    HX19600   4.977   1.550  10.596 -0.1059  0.7896  1.4882
  173SOPE    HY19601   4.871   1.430  10.677 -1.9966  3.8147 -1.5630
  173SOPE   O3119602   4.960   1.363  10.495  0.3172  0.0428  0.7891
  173SOPE   C3119603   4.916   1.238  10.503  0.0963  0.6988  0.2607
  173SOPE   O3219604   4.867   1.190  10.605 -0.0479 -0.0109  0.4671
  173SOPE   C3219605   4.933   1.165  10.363 -0.5314  0.4224 -0.4496
  173SOPE   H2X19606   4.971   1.062  10.382 -2.2702  0.0326  1.0451
  173SOPE   H2Y19607   5.004   1.224  10.302 -0.1755 -0.9586 -1.3905
  173SOPE   C2319608   5.454   1.383  10.444 -0.0398  0.3249  0.1984
  173SOPE   H3R19609   5.482   1.278  10.467 -0.6877  0.7464  3.1627
  173SOPE   H3S19610   5.549   1.426  10.405  0.0962 -0.8044 -0.7550
  173SOPE   C2419611   5.346   1.418  10.349  0.3752  0.3134  0.2839
  173SOPE   H4R19612   5.245   1.389  10.386 -0.1499  0.5356 -0.9642
  173SOPE   H4S19613   5.333   1.528  10.340 -0.1581  0.1058 -1.7054
  173SOPE   C2519614   5.371   1.375  10.199  1.2869  0.3431  0.0099
  173SOPE   H5R19615   5.474   1.392  10.162  1.3586  1.4916  0.6861
  173SOPE   H5S19616   5.366   1.265  10.189  1.5982  0.2947  0.3873
  173SOPE   C2619617   5.260   1.425  10.107  0.3953 -0.4388 -0.4697
  173SOPE   H6R19618   5.158   1.391  10.135  0.1278 -0.2110 -1.1465
  173SOPE   H6S19619   5.273   1.535  10.103  0.6971 -0.1817  4.5712
  173SOPE   C2719620   5.268   1.373   9.958  0.9813  0.3907 -0.1777
  173SOPE   H7R19621   5.182   1.420   9.906  0.1272  1.2467  1.9498
  173SOPE   H7S19622   5.365   1.421   9.931  1.9229 -1.1624  0.3964
  173SOPE   C2819623   5.260   1.220   9.940 -0.1701  0.0395  0.1493
  173SOPE   H8R19624   5.191   1.163  10.006 -0.4640 -2.5302 -2.2697
  173SOPE   H8S19625   5.203   1.207   9.845  0.3530  2.7273 -0.5791
  173SOPE   C2919626   5.396   1.149   9.941  0.1363 -0.3260 -0.3822
  173SOPE   H9119627   5.462   1.176  10.024  3.4152  0.4787 -3.1185
  173SOPE  C21019628   5.451   1.094   9.832 -0.3504  0.0009  0.0933
  173SOPE  H10119629   5.549   1.046   9.851  0.0541 -0.7756 -3.6348
  173SOPE  C21119630   5.400   1.097   9.694 -0.0701 -0.2816  0.0420
  173SOPE  H11R19631   5.289   1.087   9.694 -0.1923  0.9513  1.8759
  173SOPE  H11S19632   5.449   1.011   9.643 -1.2470 -1.3616  0.7140
  173SOPE  C21219633   5.449   1.222   9.612  1.1174  0.9740  0.1093
  173SOPE  H12R19634   5.543   1.199   9.557 -1.0602 -1.0362 -2.9654
  173SOPE  H12S19635   5.471   1.303   9.684 -1.9025 -0.3477  2.6241
  173SOPE  C21319636   5.341   1.276   9.509 -0.2451  0.0977 -0.6312
  173SOPE  H13R19637   5.383   1.361   9.451  2.0327 -1.0300 -0.6956
  173SOPE  H13S19638   5.256   1.306   9.574  2.5289  1.4097  2.5587
  173SOPE  C21419639   5.292   1.167   9.412  0.9385 -0.7865 -0.8006
  173SOPE  H14R19640   5.209   1.109   9.460  3.0605 -1.5516  2.0546
  173SOPE  H14S19641   5.381   1.101   9.401  1.1928 -0.8620  1.5061
  173SOPE  C21519642   5.254   1.220   9.273  0.8114 -0.8941 -0.4095
  173SOPE  H15R19643   5.307   1.318   9.263 -1.1248  0.1446 -0.7550
  173SOPE  H15S19644   5.143   1.225   9.274  0.8359  0.0247 -1.2018
  173SOPE  C21619645   5.301   1.129   9.161  0.0910 -0.0503  0.5126
  173SOPE  H16R19646   5.230   1.044   9.157 -2.0472  1.7012  0.2692
  173SOPE  H16S19647   5.409   1.106   9.171  0.6528  2.3183  0.1043
  173SOPE  C21719648   5.257   1.200   9.026 -0.5301  0.3582  0.2864
  173SOPE  H17R19649   5.299   1.303   9.030  1.0040 -0.2810  1.3502
  173SOPE  H17S19650   5.146   1.198   9.027 -0.5653  1.7790  1.3284
  173SOPE  C21819651   5.310   1.126   8.893 -0.6793 -0.0403 -0.1641
  173SOPE  H18R19652   5.421   1.137   8.895 -0.4283 -2.3576  2.7649
  173SOPE  H18S19653   5.263   1.167   8.802 -2.4162 -0.4177  0.5363
  173SOPE  H18T19654   5.273   1.022   8.909 -0.0033  0.1437  2.9867
  173SOPE   C3319655   4.800   1.154  10.288 -0.0735 -0.6171  0.0887
  173SOPE   H3X19656   4.782   1.261  10.263  1.1628 -0.2340  0.8199
  173SOPE   H3Y19657   4.713   1.116  10.346 -0.0674 -1.8596 -0.7037
  173SOPE   C3419658   4.795   1.071  10.149 -0.3296 -0.2278  0.2704
  173SOPE   H4X19659   4.692   1.032  10.139 -0.2324 -0.0401 -1.6761
  173SOPE   H4Y19660   4.861   0.982  10.150  2.4295  1.7662  1.9273
  173SOPE   C3519661   4.824   1.138  10.017  0.3619 -0.7036  0.5785
  173SOPE   H5X19662   4.930   1.171  10.028 -0.1169 -0.1049  3.8713
  173SOPE   H5Y19663   4.770   1.234  10.005 -0.6932 -1.2578  0.7692
  173SOPE   C3619664   4.791   1.051   9.893  0.8705  0.1179 -0.2049
  173SOPE   H6X19665   4.700   0.988   9.905  1.2055 -0.2088  0.6780
  173SOPE   H6Y19666   4.872   0.975   9.890  1.2497  0.5127  0.0210
  173SOPE   C3719667   4.798   1.130   9.767  0.2424 -0.7843  0.0955
  173SOPE   H7X19668   4.899   1.170   9.747 -0.4847  2.1167  1.9969
  173SOPE   H7Y19669   4.730   1.218   9.766 -0.9412 -1.6655 -1.6182
  173SOPE   C3819670   4.756   1.049   9.644  0.3303 -0.1010 -0.8293
  173SOPE   H8X19671   4.646   1.039   9.639  0.2674  0.1041 -0.0013
  173SOPE   H8Y19672   4.789   0.944   9.660  0.3029  0.0355  0.1486
  173SOPE   C3919673   4.813   1.125   9.526  0.8221  0.3187 -0.1170
  173SOPE   H9X19674   4.911   1.169   9.552  1.5018 -0.0895 -1.9380
  173SOPE   H9Y19675   4.737   1.202   9.500 -1.4399 -1.9174 -0.4005
  173SOPE  C31019676   4.839   1.033   9.405 -0.1638 -0.0961 -0.3380
  173SOPE  H10X19677   4.887   1.084   9.319  0.5964 -2.0228 -1.0766
  173SOPE  H10Y19678   4.749   1.012   9.342  0.0269  2.8871 -1.6479
  173SOPE  C31119679   4.925   0.903   9.434  0.9361 -0.5183 -0.3814
  173SOPE  H11X19680   4.860   0.831   9.489 -0.4087  1.3968  0.5628
  173SOPE  H11Y19681   5.006   0.935   9.502  0.1100  1.2624 -0.2295
  173SOPE  C31219682   4.975   0.841   9.308 -0.5601  0.1006 -0.0880
  173SOPE  H12X19683   5.064   0.777   9.324  0.2690  1.5954  1.3077
  173SOPE  H12Y19684   5.025   0.927   9.259 -1.6956  1.2464  0.7215
  173SOPE  C31319685   4.875   0.760   9.230  0.5711  0.1632 -0.8584
  173SOPE  H13X19686   4.794   0.829   9.200 -0.7411 -1.0116 -0.0845
  173SOPE  H13Y19687   4.826   0.676   9.284  0.1881  2.1230  1.9864
  173SOPE  C31419688   4.933   0.725   9.090  0.3467 -0.3534  0.6400
  173SOPE  H14X19689   5.021   0.657   9.096 -0.1728 -1.2744 -1.7873
  173SOPE  H14Y19690   4.968   0.825   9.055  1.1081 -0.5755  0.7572
  173SOPE  C31519691   4.823   0.666   8.998 -0.6302 -0.1136  0.5893
  173SOPE  H15X19692   4.738   0.736   8.986  1.0347  1.3171 -3.6136
  173SOPE  H15Y19693   4.775   0.572   9.032  0.3678 -1.3394 -1.2658
  173SOPE  C31619694   4.873   0.647   8.856  0.4335  0.4756 -0.6069
  173SOPE  H16X19695   4.949   0.724   8.829  1.8594 -0.4920  0.5830
  173SOPE  H16Y19696   4.790   0.668   8.785 -0.2760  2.7303  0.8129
  173SOPE  C31719697   4.923   0.510   8.823  0.7959  1.0652 -0.5732
  173SOPE  H17X19698   4.859   0.430   8.865  3.0216 -1.5598 -1.9827
  173SOPE  H17Y19699   5.019   0.494   8.876 -0.3561  1.7987  1.7567
  173SOPE  C31819700   4.960   0.480   8.682 -0.3209  0.4164  0.0035
  173SOPE  H18X19701   4.983   0.371   8.675 -0.4443  0.4890 -1.8409
  173SOPE  H18Y19702   5.045   0.537   8.637  0.1313 -1.4224 -1.5629
  173SOPE  H18Z19703   4.873   0.487   8.614  0.7831 -1.7829 -1.7255
  174SOPE     N19704   4.824   0.969  10.907 -0.6953  0.3922  0.3863
  174SOPE   HN119705   4.769   0.951  10.821 -0.0625 -0.4927  0.1505
  174SOPE   HN219706   4.765   1.030  10.966 -1.1749  0.5055 -0.2044
  174SOPE   HN319707   4.912   1.011  10.870 -0.7400  0.9707  0.9280
  174SOPE   C1219708   4.862   0.845  10.978 -0.2977 -0.0706  0.0228
  174SOPE  H12A19709   4.888   0.851  11.085 -1.6448  0.1540  0.3495
  174SOPE  H12B19710   4.945   0.805  10.916 -0.3989  1.9518 -1.4927
  174SOPE   C1119711   4.739   0.748  10.988 -0.9803 -0.1956  0.8620
  174SOPE  H11A19712   4.676   0.783  11.073 -2.2383  0.7832 -0.4428
  174SOPE  H11B19713   4.775   0.651  11.027  0.8744  0.2936  0.4080
  174SOPE     P19714   4.707   0.632  10.760  0.3597 -0.2110  0.2103
  174SOPE   O1319715   4.594   0.570  10.691 -0.0473  0.5891  0.0352
  174SOPE   O1419716   4.804   0.535  10.828 -0.1934 -0.2318  0.1352
  174SOPE   O1219717   4.661   0.737  10.870 -0.2329 -0.2856  0.0780
  174SOPE   O1119718   4.783   0.726  10.669  0.1848  0.0207  1.0292
  174SOPE    C119719   4.906   0.691  10.602  0.0096 -0.0085 -0.3606
  174SOPE    HA19720   4.922   0.581  10.605 -3.0219 -0.4822  2.1129
  174SOPE    HB19721   4.992   0.737  10.655  0.4057 -1.3642  0.2128
  174SOPE    C219722   4.912   0.757  10.459 -0.0505  0.4634  0.0898
  174SOPE    HS19723   4.891   0.866  10.465 -1.8582  0.2534 -1.8289
  174SOPE   O2119724   4.808   0.701  10.374  0.6444 -0.2635 -0.0512
  174SOPE   C2119725   4.699   0.776  10.375  0.6117 -0.1716  0.1661
  174SOPE   O2219726   4.688   0.892  10.413  0.6278 -0.0414 -0.2099
  174SOPE   C2219727   4.580   0.694  10.316 -0.0355 -0.1457 -0.1436
  174SOPE   H2R19728   4.490   0.759  10.326 -0.2557 -0.7741  2.4659
  174SOPE   H2S19729   4.582   0.602  10.378 -1.0203 -1.0382 -1.4421
  174SOPE    C319730   5.050   0.731  10.386  0.5864 -0.3744  0.0012
  174SOPE    HX19731   5.062   0.621  10.391  0.3290 -0.4531 -0.9590
  174SOPE    HY19732   5.131   0.777  10.445 -0.9083 -0.8125  2.4682
  174SOPE   O3119733   5.051   0.786  10.248  1.1782 -0.5645 -0.0648
  174SOPE   C3119734   5.086   0.698  10.162  0.1494  0.4410 -0.0155
  174SOPE   O3219735   5.140   0.589  10.179  1.3296  0.0109 -0.6707
  174SOPE   C3219736   5.052   0.736  10.023 -0.7780  0.4491 -0.0159
  174SOPE   H2X19737   5.128   0.790   9.963  0.2714  0.6163  1.4359
  174SOPE   H2Y19738   4.958   0.795  10.032  0.4934  2.7929 -1.7775
  174SOPE   C2319739   4.586   0.638  10.178  0.1372 -0.1540 -0.0888
  174SOPE   H3R19740   4.507   0.560  10.177  0.8881 -0.9063 -1.0118
  174SOPE   H3S19741   4.680   0.580  10.165  1.4530  1.2044  2.8807
  174SOPE   C2419742   4.541   0.734  10.063 -0.5841 -0.2751 -0.1174
  174SOPE   H4R19743   4.431   0.747  10.068 -0.5791 -0.6524  0.9382
  174SOPE   H4S19744   4.591   0.832  10.078  0.3231 -0.9379  1.2627
  174SOPE   C2519745   4.582   0.684   9.926 -0.3237  1.0517 -0.1367
  174SOPE   H5R19746   4.690   0.700   9.908  0.2259 -1.3399  0.8438
  174SOPE   H5S19747   4.568   0.574   9.925  0.0367  0.9612  1.8326
  174SOPE   C2619748   4.506   0.739   9.806  0.0035 -0.5873  0.5088
  174SOPE   H6R19749   4.406   0.767   9.845  1.0400 -0.1172  2.8988
  174SOPE   H6S19750   4.561   0.825   9.763  2.1157 -1.4726  1.3736
  174SOPE   C2719751   4.500   0.630   9.699  0.1730 -0.1281  0.1632
  174SOPE   H7R19752   4.605   0.596   9.686  0.0981 -0.5874  0.7364
  174SOPE   H7S19753   4.452   0.543   9.749  1.2355 -0.5107  0.5208
  174SOPE   C2819754   4.425   0.668   9.567 -0.1418  0.4367  0.9064
  174SOPE   H8R19755   4.318   0.655   9.593 -1.2169  1.5562 -2.6536
  174SOPE   H8S19756   4.435   0.777   9.548 -2.6779  0.6257  0.5324
  174SOPE   C2919757   4.480   0.575   9.465  0.1819  0.2872 -0.1328
  174SOPE   H9119758   4.521   0.479   9.499  1.5590  0.9254  0.0162
  174SOPE  C21019759   4.522   0.611   9.340 -0.3413 -0.1809  0.1653
  174SOPE  H10119760   4.563   0.539   9.268 -0.0658 -0.1089  0.2496
  174SOPE  C21119761   4.510   0.753   9.286 -0.0251 -0.0048  0.0668
  174SOPE  H11R19762   4.575   0.766   9.198 -2.0770  3.4390 -1.0374
  174SOPE  H11S19763   4.533   0.826   9.367 -0.6830 -1.0804  1.2538
  174SOPE  C21219764   4.369   0.795   9.241 -0.7532  0.0593 -0.7574
  174SOPE  H12R19765   4.359   0.906   9.239  1.2385  0.2361 -1.8019
  174SOPE  H12S19766   4.293   0.764   9.316 -0.7583  0.2307 -0.6921
  174SOPE  C21319767   4.332   0.740   9.097 -0.2879 -0.3049  0.2048
  174SOPE  H13R19768   4.356   0.631   9.097 -1.9829 -0.6907  0.9254
  174SOPE  H13S19769   4.392   0.789   9.017 -0.9139 -1.3487 -0.9355
  174SOPE  C21419770   4.185   0.767   9.055 -0.0096  0.0482 -0.4039
  174SOPE  H14R19771   4.160   0.874   9.042  1.5557  0.5428  0.5146
  174SOPE  H14S19772   4.130   0.733   9.146  0.0373  1.3817  0.1413
  174SOPE  C21519773   4.129   0.674   8.950  0.2904 -0.3268 -0.4756
  174SOPE  H15R19774   4.040   0.622   8.991  1.4135 -1.1335  0.9943
  174SOPE  H15S19775   4.206   0.603   8.914  0.1262  0.2964 -2.1066
  174SOPE  C21619776   4.096   0.738   8.813 -0.8997  1.0742  0.1186
  174SOPE  H16R19777   4.189   0.758   8.755  0.0617  1.7699  1.8563
  174SOPE  H16S19778   4.038   0.831   8.829 -1.9736  0.8434 -2.1711
  174SOPE  C21719779   4.006   0.634   8.733  0.2292 -0.1658 -0.1665
  174SOPE  H17R19780   3.906   0.630   8.782  1.0776 -0.8085  1.5617
  174SOPE  H17S19781   4.061   0.538   8.742 -0.2585 -0.4901 -0.6298
  174SOPE  C21819782   3.990   0.677   8.587 -0.1305  0.1988  0.0810
  174SOPE  H18R19783   3.946   0.776   8.564 -1.1507 -0.5947 -1.4344
  174SOPE  H18S19784   3.931   0.602   8.530 -1.2043  0.3148  1.0349
  174SOPE  H18T19785   4.094   0.678   8.548  0.0970 -0.7380  0.6495
  174SOPE   C3319786   5.002   0.617   9.937  0.2759  0.1428  0.2529
  174SOPE   H3X19787   4.914   0.569   9.983 -1.4351  2.2108 -0.7683
  174SOPE   H3Y19788   5.084   0.542   9.935  0.4778  0.2856  2.4423
  174SOPE   C3419789   4.961   0.647   9.793 -0.1569 -0.8436 -0.7279
  174SOPE   H4X19790   5.050   0.687   9.739 -0.6175  0.4355 -0.5584
  174SOPE   H4Y19791   4.878   0.721   9.794  1.0559  0.5223  0.0156
  174SOPE   C3519792   4.918   0.523   9.711 -0.0350  0.0429 -0.1167
  174SOPE   H5X19793   4.831   0.475   9.760 -1.2713 -0.2347 -2.4843
  174SOPE   H5Y19794   5.005   0.454   9.708  0.6879  0.9051  0.8633
  174SOPE   C3619795   4.871   0.555   9.561 -0.0954  0.2368 -0.1101
  174SOPE   H6X19796   4.941   0.631   9.518 -2.2534  2.6594  0.5165
  174SOPE   H6Y19797   4.768   0.596   9.567  0.0710  0.4443  1.6432
  174SOPE   C3719798   4.877   0.419   9.477 -0.2420 -0.1332  0.4671
  174SOPE   H7X19799   4.983   0.386   9.475  0.0731  0.8769 -0.4879
  174SOPE   H7Y19800   4.846   0.443   9.374 -1.2255  1.1155  1.0359
  174SOPE   C3819801   4.786   0.308   9.529 -0.3779 -0.5762  0.0277
  174SOPE   H8X19802   4.682   0.347   9.534 -0.7023 -1.7817  3.5678
  174SOPE   H8Y19803   4.816   0.268   9.628 -2.0287 -1.1341  0.3252
  174SOPE   C3919804   4.792   0.180   9.444  0.0985 -0.9328 -0.8137
  174SOPE   H9X19805   4.770   0.091   9.507 -1.4872 -0.1313 -0.2164
  174SOPE   H9Y19806   4.899   0.175   9.412  0.0668 -1.8256 -0.7941
  174SOPE  C31019807   4.715   0.161   9.310 -0.2594  0.2325  0.1265
  174SOPE  H10X19808   4.713   0.051   9.292  0.0254  0.7408 -3.2076
  174SOPE  H10Y19809   4.775   0.189   9.221  3.3598 -2.3915  1.6342
  174SOPE  C31119810   4.570   0.221   9.309 -0.2962 -0.1589 -0.5422
  174SOPE  H11X19811   4.578   0.330   9.329 -0.1107 -0.3547  0.4699
  174SOPE  H11Y19812   4.522   0.158   9.387  2.1936  1.3822  2.3600
  174SOPE  C31219813   4.497   0.206   9.174  0.0819 -0.2148  0.6260
  174SOPE  H12X19814   4.506   0.099   9.147  1.0279  0.5609 -2.2575
  174SOPE  H12Y19815   4.549   0.260   9.093  3.3715 -2.2167  1.3093
  174SOPE  C31319816   4.349   0.243   9.188  0.0853  0.1162 -0.4766
  174SOPE  H13X19817   4.346   0.341   9.240 -0.1239 -0.4272  0.5311
  174SOPE  H13Y19818   4.306   0.173   9.262 -0.7877  1.2329  0.0877
  174SOPE  C31419819   4.258   0.254   9.056 -0.4604 -0.1727 -0.1531
  174SOPE  H14X19820   4.317   0.312   8.983 -1.4388  0.1245 -0.7262
  174SOPE  H14Y19821   4.170   0.318   9.080 -1.8529 -1.7681 -0.8329
  174SOPE  C31519822   4.202   0.123   9.004  0.8266 -0.0668 -0.0044
  174SOPE  H15X19823   4.138   0.080   9.084 -0.8344  1.6599 -0.3881
  174SOPE  H15Y19824   4.289   0.055   8.985  0.6143  0.5475 -3.6395
  174SOPE  C31619825   4.124   0.139   8.873 -0.1148 -0.3011 -0.0049
  174SOPE  H16X19826   4.064   0.231   8.886 -1.1491 -0.8790 -0.5877
  174SOPE  H16Y19827   4.060   0.049   8.857 -0.8523  0.3691 -0.8802
  174SOPE  C31719828   4.218   0.172   8.751  0.2538  0.1722 -0.3970
  174SOPE  H17X19829   4.288   0.086   8.747  2.0799  1.6253 -0.2567
  174SOPE  H17Y19830   4.284   0.260   8.766  0.2311 -0.0139  0.8783
  174SOPE  C31819831   4.136   0.188   8.623 -0.1371  0.3043 -0.4522
  174SOPE  H18X19832   4.083   0.286   8.624  0.0632  0.4364 -1.8843
  174SOPE  H18Y19833   4.068   0.102   8.608  1.1459 -1.0049  1.0632
  174SOPE  H18Z19834   4.206   0.191   8.537  1.1547  1.3952  0.6171
  175SOPE     N19835   0.547   2.423  10.543  0.5260  0.3142  0.6441
  175SOPE   HN119836   0.558   2.370  10.632 -1.5263 -1.4096 -0.0581
  175SOPE   HN219837   0.639   2.453  10.507  0.3104 -3.2396 -3.2998
  175SOPE   HN319838   0.484   2.504  10.562 -0.5223 -0.1816 -0.6008
  175SOPE   C1219839   0.483   2.316  10.461  0.2149  0.0573 -0.3612
  175SOPE  H12A19840   0.560   2.266  10.398  0.4098  1.2563 -1.0811
  175SOPE  H12B19841   0.402   2.355  10.396  0.3715 -0.6219 -0.9763
  175SOPE   C1119842   0.424   2.204  10.558  0.2086  0.4046  0.2657
  175SOPE  H11A19843   0.505   2.150  10.611  0.2004 -1.2671 -1.3950
  175SOPE  H11B19844   0.378   2.127  10.492  0.4481 -0.8409  1.5265
  175SOPE     P19845   0.180   2.273  10.641 -0.0610  0.0818  0.0502
  175SOPE   O1319846   0.122   2.367  10.744  0.3429  0.1843  0.2783
  175SOPE   O1419847   0.129   2.132  10.643  0.0873  0.1038  0.1097
  175SOPE   O1219848   0.335   2.261  10.657  0.0864 -0.2170  0.0782
  175SOPE   O1119849   0.172   2.336  10.492  0.0964  0.0163 -0.4764
  175SOPE    C119850   0.042   2.350  10.431 -0.1162 -0.5002  0.0350
  175SOPE    HA19851  -0.036   2.310  10.499 -1.0811  0.7192 -0.3302
  175SOPE    HB19852   0.054   2.290  10.339  2.3791 -1.2010  0.7885
  175SOPE    C219853  -0.000   2.500  10.402  0.3700  0.1260  0.6737
  175SOPE    HS19854  -0.004   2.548  10.502 -1.6449  0.1642  0.6114
  175SOPE   O2119855  -0.125   2.509  10.334 -0.0226 -0.4987 -0.4919
  175SOPE   C2119856  -0.191   2.628  10.348 -0.6466 -0.0211  0.4760
  175SOPE   O2219857  -0.152   2.721  10.416 -0.4740 -0.6022 -0.5229
  175SOPE   C2219858  -0.329   2.629  10.274  0.0232 -0.2113 -0.9816
  175SOPE   H2R19859  -0.416   2.627  10.343  1.2670  1.2026  0.6885
  175SOPE   H2S19860  -0.331   2.529  10.226 -0.7401 -1.0250  0.7232
  175SOPE    C319861   0.100   2.576  10.312  0.0476 -0.2054  0.7121
  175SOPE    HX19862   0.198   2.576  10.365  1.2420 -0.2143 -1.4309
  175SOPE    HY19863   0.081   2.685  10.302  0.0967 -0.3311 -0.8932
  175SOPE   O3119864   0.140   2.520  10.182  0.2921 -0.0537  0.2317
  175SOPE   C3119865   0.096   2.596  10.077  0.0671 -0.0116  0.7965
  175SOPE   O3219866   0.031   2.697  10.086 -0.2870 -0.2458 -0.1048
  175SOPE   C3219867   0.110   2.514   9.952 -0.3533 -0.1732  0.2852
  175SOPE   H2X19868   0.052   2.423   9.975 -0.1314  0.1071  2.0256
  175SOPE   H2Y19869   0.217   2.487   9.936 -0.2926 -1.0917  2.1217
  175SOPE   C2319870  -0.346   2.735  10.159 -0.2305  0.3710  0.6339
  175SOPE   H3R19871  -0.277   2.717  10.075 -0.8879  1.1340 -0.0814
  175SOPE   H3S19872  -0.334   2.836  10.203 -1.1982  1.6916 -2.0499
  175SOPE   C2419873  -0.481   2.736  10.095  0.4169  0.0255 -0.0917
  175SOPE   H4R19874  -0.497   2.649  10.028 -0.0849  0.3058 -0.3374
  175SOPE   H4S19875  -0.559   2.736  10.175 -1.0503 -0.6865 -1.5092
  175SOPE   C2519876  -0.496   2.853  10.001 -0.4372 -0.0049 -0.4733
  175SOPE   H5R19877  -0.598   2.895   9.987 -0.5757  0.5845  2.1978
  175SOPE   H5S19878  -0.441   2.935  10.050 -0.4210  0.6456 -1.5555
  175SOPE   C2619879  -0.443   2.840   9.856  0.0283  0.3861  0.4055
  175SOPE   H6R19880  -0.455   2.941   9.813  0.2506  0.9695  1.7015
  175SOPE   H6S19881  -0.342   2.795   9.841  0.5123  0.8303  2.2248
  175SOPE   C2719882  -0.527   2.743   9.768  0.2915 -0.3615 -0.4271
  175SOPE   H7R19883  -0.510   2.636   9.795  0.9601  0.0232  0.7308
  175SOPE   H7S19884  -0.635   2.765   9.781  0.2680  0.2717 -1.5784
  175SOPE   C2819885  -0.485   2.766   9.621 -0.5535  0.2973 -0.6212
  175SOPE   H8R19886  -0.487   2.875   9.598 -2.6878  0.3603 -0.1963
  175SOPE   H8S19887  -0.383   2.724   9.609 -0.1481  1.1112 -0.0990
  175SOPE   C2919888  -0.573   2.711   9.505  0.3838 -0.1328 -0.2069
  175SOPE   H9119889  -0.659   2.776   9.486  0.4837 -0.4116 -1.6436
  175SOPE  C21019890  -0.541   2.612   9.423 -0.2848 -0.1673  0.3922
  175SOPE  H10119891  -0.615   2.587   9.346  1.5961  3.3483 -2.6766
  175SOPE  C21119892  -0.419   2.522   9.422  0.1956 -0.3836 -0.2210
  175SOPE  H11R19893  -0.450   2.415   9.423  0.3576 -0.4221  1.1058
  175SOPE  H11S19894  -0.363   2.537   9.517 -0.1307  1.0954 -0.2450
  175SOPE  C21219895  -0.326   2.540   9.307 -0.1963  0.3211  0.2915
  175SOPE  H12R19896  -0.232   2.485   9.328  0.3002  0.9852 -0.2200
  175SOPE  H12S19897  -0.295   2.646   9.310 -1.0045  0.6454 -2.1884
  175SOPE  C21319898  -0.387   2.497   9.176  0.0410 -0.0165 -0.0549
  175SOPE  H13R19899  -0.466   2.569   9.150 -1.3825 -0.5154  2.6640
  175SOPE  H13S19900  -0.442   2.400   9.180  0.3458 -0.1566  1.1285
  175SOPE  C21419901  -0.272   2.481   9.067 -1.0408 -0.1258  0.1082
  175SOPE  H14R19902  -0.230   2.379   9.076 -0.2921  0.2224  0.5574
  175SOPE  H14S19903  -0.190   2.556   9.072 -0.9174 -0.1668 -1.1746
  175SOPE  C21519904  -0.341   2.488   8.925 -0.1569 -0.3574  0.0570
  175SOPE  H15R19905  -0.388   2.588   8.920  2.9382  1.1731  0.1640
  175SOPE  H15S19906  -0.422   2.412   8.914  0.3089 -0.9437  0.5982
  175SOPE  C21619907  -0.246   2.470   8.815  0.1425 -0.0965 -0.5269
  175SOPE  H16R19908  -0.196   2.371   8.814  0.1065 -0.1158 -2.0355
  175SOPE  H16S19909  -0.159   2.538   8.824  2.0253 -2.7510  2.5433
  175SOPE  C21719910  -0.297   2.489   8.669 -0.3152  0.0395 -0.2724
  175SOPE  H17R19911  -0.368   2.574   8.677  0.7051  0.8023  0.7349
  175SOPE  H17S19912  -0.352   2.393   8.658  0.0698 -0.3216  0.8567
  175SOPE  C21819913  -0.191   2.505   8.564  0.1073  0.1499 -0.2528
  175SOPE  H18R19914  -0.233   2.507   8.461  2.7619 -0.9913 -1.4193
  175SOPE  H18S19915  -0.118   2.421   8.562 -1.9399 -1.6941 -0.2377
  175SOPE  H18T19916  -0.142   2.603   8.577 -2.2020  1.5952 -2.1267
  175SOPE   C3319917   0.055   2.584   9.822 -0.0933  0.0824 -0.0078
  175SOPE   H3X19918   0.115   2.675   9.797 -1.2022  1.2267  1.3964
  175SOPE   H3Y19919  -0.051   2.613   9.834  0.6316  2.4638  1.0806
  175SOPE   C3419920   0.092   2.491   9.701 -0.0339 -0.5202  0.4383
  175SOPE   H4X19921   0.044   2.393   9.722 -3.0074  0.9040  0.5188
  175SOPE   H4Y19922   0.202   2.478   9.686 -0.4500 -1.2569 -2.2794
  175SOPE   C3519923   0.041   2.553   9.572 -0.3811  0.1569 -0.3268
  175SOPE   H5X19924   0.072   2.659   9.579 -0.5254  0.0618  2.5054
  175SOPE   H5Y19925  -0.070   2.549   9.570 -0.3696 -0.7871  0.4320
  175SOPE   C3619926   0.103   2.491   9.447  0.7581  0.1629  0.0861
  175SOPE   H6X19927   0.072   2.385   9.433 -1.7857  0.4266  3.1006
  175SOPE   H6Y19928   0.212   2.480   9.465  1.3070  1.1818 -2.4571
  175SOPE   C3719929   0.084   2.580   9.315  0.1221  0.2546 -0.1343
  175SOPE   H7X19930   0.147   2.671   9.323  2.4173 -1.5767  4.1719
  175SOPE   H7Y19931  -0.024   2.601   9.299 -0.4525 -1.8166  0.8085
  175SOPE   C3819932   0.135   2.502   9.189 -0.3517  0.5048  0.2711
  175SOPE   H8X19933   0.075   2.411   9.168 -1.3022  0.9631  0.9756
  175SOPE   H8Y19934   0.241   2.470   9.205 -0.3039 -0.5819 -1.9380
  175SOPE   C3919935   0.125   2.587   9.057 -0.6658 -1.1477 -0.0484
  175SOPE   H9X19936   0.193   2.672   9.080 -3.1036  1.0851 -0.8852
  175SOPE   H9Y19937   0.022   2.627   9.054 -0.6446 -0.8145  2.6213
  175SOPE  C31019938   0.162   2.510   8.934  0.7654  0.4404  0.2909
  175SOPE  H10X19939   0.101   2.418   8.938  0.9669  0.3867  2.7210
  175SOPE  H10Y19940   0.264   2.474   8.959  1.1323  0.7176 -0.7825
  175SOPE  C31119941   0.145   2.574   8.787  0.0724  0.0411 -0.2517
  175SOPE  H11X19942   0.206   2.666   8.784 -0.6627  0.6394  2.2699
  175SOPE  H11Y19943   0.040   2.608   8.773 -0.2289 -1.1858 -1.0500
  175SOPE  C31219944   0.182   2.472   8.672 -0.2881 -0.2378  0.3252
  175SOPE  H12X19945   0.111   2.387   8.661 -2.7483  1.8908 -0.4447
  175SOPE  H12Y19946   0.277   2.426   8.708 -0.4183 -1.1827 -0.5073
  175SOPE  C31319947   0.200   2.541   8.536  0.0568  0.1300  0.4442
  175SOPE  H13X19948   0.278   2.620   8.547  0.1515  0.1582 -0.4125
  175SOPE  H13Y19949   0.104   2.590   8.511 -0.2264 -1.8518 -2.6018
  175SOPE  C31419950   0.213   2.445   8.424 -0.1314  0.0550  0.3690
  175SOPE  H14X19951   0.189   2.508   8.336  0.9194 -0.4472 -0.2954
  175SOPE  H14Y19952   0.136   2.365   8.421  0.2062 -0.2513 -0.4248
  175SOPE  C31519953   0.351   2.392   8.402 -0.0402  0.3129  0.6320
  175SOPE  H15X19954   0.419   2.418   8.485  1.4421  0.8070 -0.7163
  175SOPE  H15Y19955   0.400   2.445   8.318 -0.0544  1.5006  1.3614
  175SOPE  C31619956   0.351   2.237   8.383 -0.1486 -0.3605  1.2997
  175SOPE  H16X19957   0.434   2.208   8.314 -2.2408 -0.6637 -1.1551
  175SOPE  H16Y19958   0.261   2.209   8.324  1.0322  1.9985 -1.7489
  175SOPE  C31719959   0.346   2.158   8.510 -0.0329 -0.2818  0.0859
  175SOPE  H17X19960   0.279   2.207   8.584 -0.3491 -1.1894  0.4061
  175SOPE  H17Y19961   0.451   2.158   8.548  0.6353  0.6685 -1.7020
  175SOPE  C31819962   0.297   2.018   8.484 -0.7276 -0.3677 -0.1413
  175SOPE  H18X19963   0.192   2.028   8.447 -0.4648  1.5021 -0.4243
  175SOPE  H18Y19964   0.292   1.963   8.580 -0.7104  0.6675  0.4587
  175SOPE  H18Z19965   0.359   1.961   8.412 -1.0886  1.0758 -1.6312
  176SOPE     N19966   6.755   2.589  10.804  0.0908  0.9954  0.2319
  176SOPE   HN119967   6.825   2.651  10.757  0.7667  2.3190  2.9377
  176SOPE   HN219968   6.767   2.598  10.906  1.2863  0.1590  0.1888
  176SOPE   HN319969   6.780   2.492  10.774  0.6922  0.9027  1.0187
  176SOPE   C1219970   6.611   2.610  10.760 -0.4707 -0.2086 -0.3395
  176SOPE  H12A19971   6.620   2.623  10.650 -2.4138  1.6933 -0.3205
  176SOPE  H12B19972   6.554   2.692  10.810 -1.4890 -1.5366  0.7180
  176SOPE   C1119973   6.526   2.486  10.788  0.5879  0.7081  0.0020
  176SOPE  H11A19974   6.423   2.503  10.748 -0.0551  1.7766  2.0423
  176SOPE  H11B19975   6.500   2.476  10.895  2.0207  1.3618  0.4148
  176SOPE     P19976   6.504   2.230  10.752 -0.4446 -0.4671 -0.4033
  176SOPE   O1319977   6.448   2.222  10.890  0.1869  0.1110 -0.4313
  176SOPE   O1419978   6.586   2.124  10.705  0.6609  0.5864 -0.1498
  176SOPE   O1219979   6.583   2.362  10.742  0.0159 -0.1966  0.6803
  176SOPE   O1119980   6.387   2.256  10.653 -0.1350  0.2415  0.2181
  176SOPE    C119981   6.402   2.319  10.523 -0.6495 -0.3736  0.2173
  176SOPE    HA19982   6.491   2.385  10.516  0.0462 -1.1788  1.2407
  176SOPE    HB19983   6.308   2.375  10.503 -0.2731  1.9191  4.3037
  176SOPE    C219984   6.405   2.208  10.416  0.0467 -0.7365 -0.3845
  176SOPE    HS19985   6.482   2.136  10.452  0.2718 -0.8085 -1.0098
  176SOPE   O2119986   6.444   2.261  10.288  0.3961  0.1892  0.6438
  176SOPE   C2119987   6.519   2.187  10.218  0.1401 -0.3496 -0.3072
  176SOPE   O2219988   6.578   2.089  10.259  0.0137  0.4252  0.3703
  176SOPE   C2219989   6.512   2.233  10.071  0.7492 -0.1046 -0.1450
  176SOPE   H2R19990   6.514   2.345  10.070  1.1503 -0.0529  2.3859
  176SOPE   H2S19991   6.423   2.200  10.014  0.7063 -1.1758  0.5410
  176SOPE    C319992   6.270   2.131  10.410  0.1076 -0.2936 -0.0149
  176SOPE    HX19993   6.183   2.193  10.380 -0.5895 -0.9383  0.6783
  176SOPE    HY19994   6.241   2.088  10.508 -3.0252  0.2893 -0.6249
  176SOPE   O3119995   6.272   2.021  10.316  0.1201  0.1710 -0.1709
  176SOPE   C3119996   6.317   1.907  10.368 -0.0410  0.3028  0.7972
  176SOPE   O3219997   6.367   1.891  10.480 -0.5754  0.5988  0.0588
  176SOPE   C3219998   6.316   1.797  10.265 -0.0604 -0.3879  0.3746
  176SOPE   H2X19999   6.210   1.767  10.256 -0.4578  1.1931 -0.3804
  176SOPE   H2Y20000   6.381   1.715  10.301 -0.3440 -1.6242 -1.9001
  176SOPE   C2320001   6.621   2.166   9.978 -0.7031 -0.1804 -0.1894
  176SOPE   H3R20002   6.612   2.055   9.984 -3.2753 -0.0056  0.0501
  176SOPE   H3S20003   6.718   2.196  10.021 -0.8201  0.1043 -0.1211
  176SOPE   C2420004   6.601   2.188   9.825 -0.8818  0.3989 -0.4421
  176SOPE   H4R20005   6.515   2.120   9.808 -0.7979  1.0497 -3.8837
  176SOPE   H4S20006   6.577   2.295   9.805 -0.7864  0.7821  1.3958
  176SOPE   C2520007   6.719   2.128   9.750  0.7674  0.0283  0.0948
  176SOPE   H5R20008   6.813   2.172   9.790 -0.4946  2.0784  0.8142
  176SOPE   H5S20009   6.715   2.021   9.782 -0.2806  0.3768  1.1328
  176SOPE   C2620010   6.708   2.155   9.598 -0.2570  0.0688 -0.4887
  176SOPE   H6R20011   6.715   2.266   9.597 -0.1547  0.0583 -1.4064
  176SOPE   H6S20012   6.804   2.119   9.554 -1.5624 -0.5025 -2.9232
  176SOPE   C2720013   6.585   2.089   9.524  0.1037  0.0118 -0.2629
  176SOPE   H7R20014   6.612   1.981   9.533 -1.1812 -0.4774 -1.8347
  176SOPE   H7S20015   6.496   2.106   9.588  1.4209 -0.6371  1.8053
  176SOPE   C2820016   6.560   2.137   9.378  0.1243 -0.3458  0.0977
  176SOPE   H8R20017   6.470   2.079   9.347  1.4560 -2.0884 -0.5974
  176SOPE   H8S20018   6.539   2.246   9.374 -0.1377 -0.4081 -0.1850
  176SOPE   C2920019   6.685   2.106   9.298  0.0309 -0.3170 -0.2573
  176SOPE   H9120020   6.754   2.190   9.281  1.6805 -1.5452  0.1644
  176SOPE  C21020021   6.705   1.992   9.231  0.2877  0.2288 -0.7917
  176SOPE  H10120022   6.807   1.975   9.194  0.4498 -0.7119  0.0534
  176SOPE  C21120023   6.620   1.867   9.237  0.2723  0.5550  0.3819
  176SOPE  H11R20024   6.555   1.877   9.147 -0.3708  0.9532  0.8898
  176SOPE  H11S20025   6.554   1.864   9.326  2.4073  0.3507  1.9943
  176SOPE  C21220026   6.701   1.737   9.230  0.3940  0.2997  0.9032
  176SOPE  H12R20027   6.790   1.766   9.171  0.0008 -0.8278 -0.2641
  176SOPE  H12S20028   6.641   1.663   9.172  1.1018  0.3466  0.1071
  176SOPE  C21320029   6.741   1.673   9.361 -0.0880 -0.2030  0.2487
  176SOPE  H13R20030   6.789   1.575   9.342  1.8769  0.4448  1.7235
  176SOPE  H13S20031   6.650   1.646   9.420 -0.7355 -0.0801 -0.6888
  176SOPE  C21420032   6.836   1.756   9.449  0.0004  0.4916 -0.7616
  176SOPE  H14R20033   6.787   1.852   9.474 -1.0179 -0.3233  0.4663
  176SOPE  H14S20034   6.933   1.780   9.399  0.9520 -0.1246  0.7300
  176SOPE  C21520035   6.873   1.684   9.579 -0.0803 -0.0840  0.8489
  176SOPE  H15R20036   6.935   1.595   9.557 -3.1455 -1.6547 -1.7528
  176SOPE  H15S20037   6.779   1.638   9.617 -0.4147 -0.2662 -0.1951
  176SOPE  C21620038   6.939   1.779   9.682  0.7094 -0.2862 -0.8086
  176SOPE  H16R20039   6.868   1.864   9.674  0.6451 -0.2389  0.2413
  176SOPE  H16S20040   7.033   1.821   9.640  0.7955  0.5123  0.1665
  176SOPE  C21720041   6.955   1.709   9.811 -0.4820  0.8681 -0.4609
  176SOPE  H17R20042   7.026   1.759   9.880  2.5249 -1.1774 -1.9406
  176SOPE  H17S20043   7.001   1.610   9.790  0.3386  1.2531 -0.4891
  176SOPE  C21820044   6.832   1.691   9.897 -0.1261 -0.5698 -0.0030
  176SOPE  H18R20045   6.859   1.643   9.993  2.3362  3.9447  1.7126
  176SOPE  H18S20046   6.762   1.624   9.842  0.3874 -1.4413  0.3938
  176SOPE  H18T20047   6.784   1.787   9.924  2.5553  0.4562  1.3274
  176SOPE   C3320048   6.389   1.850  10.142  0.3333 -0.0317  0.3645
  176SOPE   H3X20049   6.499   1.860  10.156  0.3087  0.1432  0.4414
  176SOPE   H3Y20050   6.357   1.950  10.106  1.2229  0.3694  0.6484
  176SOPE   C3420051   6.372   1.756  10.025 -1.2773  0.1820  0.8925
  176SOPE   H4X20052   6.263   1.745  10.011 -1.3243 -0.5863  1.8597
  176SOPE   H4Y20053   6.415   1.659  10.059 -0.5697  0.4071  0.6474
  176SOPE   C3520054   6.448   1.798   9.896  0.1123  0.8908  0.5214
  176SOPE   H5X20055   6.557   1.778   9.906 -0.1888 -1.0389 -0.0103
  176SOPE   H5Y20056   6.433   1.908   9.893  1.5158  1.0630 -1.4483
  176SOPE   C3620057   6.394   1.749   9.766  0.6622 -0.2296  0.3686
  176SOPE   H6X20058   6.406   1.639   9.775  2.4174 -0.1349 -0.6801
  176SOPE   H6Y20059   6.455   1.787   9.682  0.0324 -1.5495 -0.7081
  176SOPE   C3720060   6.253   1.778   9.719  0.1599 -0.0356 -0.8131
  176SOPE   H7X20061   6.259   1.886   9.696  1.1043 -0.2242 -1.5081
  176SOPE   H7Y20062   6.188   1.767   9.808  0.4548  1.2320 -0.4386
  176SOPE   C3820063   6.200   1.710   9.594 -0.4763  0.7395  0.2430
  176SOPE   H8X20064   6.090   1.723   9.584 -0.7820  1.3939  3.7662
  176SOPE   H8Y20065   6.200   1.600   9.615  2.6505  0.0711 -2.8535
  176SOPE   C3920066   6.278   1.739   9.468  0.1433  0.2973 -0.3788
  176SOPE   H9X20067   6.388   1.721   9.476  0.1780  0.1656 -1.1688
  176SOPE   H9Y20068   6.282   1.849   9.454  1.1957  0.1800 -1.0835
  176SOPE  C31020069   6.218   1.671   9.341 -0.2183 -0.6236 -0.0925
  176SOPE  H10X20070   6.110   1.696   9.331  0.0631  0.2372 -1.1019
  176SOPE  H10Y20071   6.224   1.562   9.360  0.7887 -0.7296 -0.9437
  176SOPE  C31120072   6.291   1.696   9.208  0.3736 -0.0122 -0.4504
  176SOPE  H11X20073   6.400   1.689   9.226  0.4368 -1.3856 -1.3026
  176SOPE  H11Y20074   6.277   1.801   9.173 -1.3921 -0.1039 -0.0863
  176SOPE  C31220075   6.265   1.591   9.093  0.2377  0.2154 -0.5672
  176SOPE  H12X20076   6.158   1.563   9.083 -0.2816  1.6431  0.7742
  176SOPE  H12Y20077   6.302   1.493   9.128  1.9044  1.0618  0.1241
  176SOPE  C31320078   6.313   1.632   8.949 -0.2820 -0.2299 -0.6204
  176SOPE  H13X20079   6.316   1.743   8.944  0.1317 -0.0921  1.8918
  176SOPE  H13Y20080   6.246   1.599   8.867 -0.6337 -4.1832  1.1879
  176SOPE  C31420081   6.462   1.598   8.933 -0.2543  0.3751 -0.4933
  176SOPE  H14X20082   6.481   1.489   8.930 -1.0918  0.2054 -0.0654
  176SOPE  H14Y20083   6.516   1.643   9.019  1.7758 -0.7837 -1.1315
  176SOPE  C31520084   6.514   1.651   8.800  0.1457 -0.2909 -0.1690
  176SOPE  H15X20085   6.494   1.760   8.793  1.5439 -0.1003 -1.4613
  176SOPE  H15Y20086   6.457   1.592   8.725 -1.4007  1.2628 -0.2416
  176SOPE  C31620087   6.669   1.624   8.782  0.5234 -0.2633  0.7242
  176SOPE  H16X20088   6.679   1.514   8.794 -1.4594 -0.3871  1.4188
  176SOPE  H16Y20089   6.718   1.670   8.870 -1.1261  1.0211  0.9894
  176SOPE  C31720090   6.730   1.691   8.661  1.3900 -0.4579 -0.2696
  176SOPE  H17X20091   6.838   1.703   8.684  1.0678 -2.2158  2.3327
  176SOPE  H17Y20092   6.677   1.785   8.636  0.7851 -0.6989  0.1079
  176SOPE  C31820093   6.722   1.613   8.525 -0.5020 -0.0712  0.2019
  176SOPE  H18X20094   6.616   1.583   8.505 -0.3391 -0.1379 -0.5507
  176SOPE  H18Y20095   6.793   1.528   8.533  0.0069  0.5312  2.6062
  176SOPE  H18Z20096   6.761   1.677   8.444  2.2144 -2.5654 -0.5382
  177SOPE     N20097   5.527   6.525  11.055  0.3126  0.2403 -0.5462
  177SOPE   HN120098   5.466   6.581  10.992  0.0931 -0.4084 -0.9241
  177SOPE   HN220099   5.524   6.573  11.147  0.0126 -1.3897  0.3344
  177SOPE   HN320100   5.621   6.517  11.012 -0.6059  0.2196 -2.6256
  177SOPE   C1220101   5.477   6.385  11.068 -0.4749  0.7688  0.0129
  177SOPE  H12A20102   5.367   6.396  11.062 -0.5348  0.6928  0.9041
  177SOPE  H12B20103   5.526   6.351  11.162  0.2924  0.0088 -0.6581
  177SOPE   C1120104   5.526   6.295  10.943  0.0681  0.1812  0.0695
  177SOPE  H11A20105   5.498   6.353  10.852 -2.9832  0.7390  1.2946
  177SOPE  H11B20106   5.461   6.206  10.956 -2.2979  1.6961 -0.8767
  177SOPE     P20107   5.769   6.339  10.872 -0.1791  0.2711  0.3940
  177SOPE   O1320108   5.897   6.272  10.886  0.1396 -0.2933 -0.3636
  177SOPE   O1420109   5.771   6.475  10.931  0.0002 -0.3375  0.4731
  177SOPE   O1220110   5.660   6.256  10.941  0.1140 -0.2442  0.2597
  177SOPE   O1120111   5.722   6.357  10.720 -0.0531  0.2971  0.0573
  177SOPE    C120112   5.743   6.247  10.629 -0.1369 -0.0152 -0.0032
  177SOPE    HA20113   5.716   6.148  10.671  1.7746 -0.9754 -0.9394
  177SOPE    HB20114   5.852   6.241  10.607 -0.0644  1.1599  0.0025
  177SOPE    C220115   5.669   6.265  10.495  0.1344 -0.3809  0.1089
  177SOPE    HS20116   5.707   6.196  10.416 -1.0406  0.3318 -1.1100
  177SOPE   O2120117   5.670   6.401  10.449  0.3132 -0.3323 -0.1764
  177SOPE   C2120118   5.784   6.463  10.436  0.6174 -0.1854 -0.3424
  177SOPE   O2220119   5.897   6.423  10.448 -0.1282  0.1997  0.4417
  177SOPE   C2220120   5.757   6.601  10.390  0.9712 -0.2919 -0.4676
  177SOPE   H2R20121   5.802   6.670  10.464 -1.6089  1.4608 -0.4566
  177SOPE   H2S20122   5.651   6.635  10.395  1.3603  0.6273  1.9400
  177SOPE    C320123   5.518   6.232  10.518  0.3619  0.0221  0.0582
  177SOPE    HX20124   5.484   6.259  10.620  0.8038 -0.2735  0.2860
  177SOPE    HY20125   5.508   6.122  10.507 -1.6263  0.0889  0.9276
  177SOPE   O3120126   5.436   6.295  10.416  0.1936 -0.3782 -1.3192
  177SOPE   C3120127   5.427   6.233  10.302  0.0574 -0.9648  0.1972
  177SOPE   O3220128   5.453   6.118  10.277 -0.2221  0.7288 -0.0075
  177SOPE   C3220129   5.400   6.330  10.192 -0.5171 -0.5588  0.5989
  177SOPE   H2X20130   5.467   6.418  10.203 -1.2174 -0.1367  1.5443
  177SOPE   H2Y20131   5.294   6.365  10.199 -0.2729  0.0254  1.4266
  177SOPE   C2320132   5.810   6.637  10.243  0.3338  0.2700 -1.1546
  177SOPE   H3R20133   5.916   6.604  10.251 -0.5808 -2.2707  1.0806
  177SOPE   H3S20134   5.814   6.748  10.239  1.3184  0.2205 -2.0630
  177SOPE   C2420135   5.726   6.588  10.121 -0.2233  0.8159 -0.2818
  177SOPE   H4R20136   5.752   6.483  10.097 -1.8046  0.3765 -0.1260
  177SOPE   H4S20137   5.619   6.595  10.151 -0.7690 -2.8853 -1.0940
  177SOPE   C2520138   5.757   6.674  10.002 -0.1730 -0.0082  0.3504
  177SOPE   H5R20139   5.725   6.779  10.021 -0.7287 -0.1365  0.1373
  177SOPE   H5S20140   5.867   6.674   9.989 -0.1318  0.4034  0.6847
  177SOPE   C2620141   5.709   6.629   9.860 -0.6337 -0.0490 -0.7947
  177SOPE   H6R20142   5.761   6.534   9.834  0.8440  1.0806 -2.0035
  177SOPE   H6S20143   5.601   6.604   9.865 -0.1777 -1.9786  0.1375
  177SOPE   C2720144   5.716   6.745   9.757  0.2388 -0.9871  0.4056
  177SOPE   H7R20145   5.662   6.831   9.801 -1.5620 -2.2948  0.7872
  177SOPE   H7S20146   5.822   6.776   9.745 -0.6996  3.1300  2.0616
  177SOPE   C2820147   5.670   6.698   9.619 -0.4869  0.2897 -0.2239
  177SOPE   H8R20148   5.740   6.618   9.585 -2.1445 -1.5443  0.6154
  177SOPE   H8S20149   5.567   6.660   9.632 -0.1408 -0.5152  0.1745
  177SOPE   C2920150   5.663   6.816   9.526 -0.1168  1.0967  0.1701
  177SOPE   H9120151   5.579   6.884   9.550 -0.3350  1.0654 -0.4732
  177SOPE  C21020152   5.707   6.829   9.401  0.5398 -0.6789  0.9434
  177SOPE  H10120153   5.690   6.923   9.346 -2.3979 -1.8903 -0.3241
  177SOPE  C21120154   5.803   6.729   9.330  0.3736 -0.0646 -0.1416
  177SOPE  H11R20155   5.800   6.634   9.388  0.9696 -0.6628 -1.0802
  177SOPE  H11S20156   5.902   6.778   9.337  0.1993  0.1003  1.4569
  177SOPE  C21220157   5.772   6.684   9.186  0.2621 -0.0561  0.3878
  177SOPE  H12R20158   5.668   6.650   9.172  1.7772 -3.8984 -2.4156
  177SOPE  H12S20159   5.844   6.599   9.186  0.2428 -0.2079  4.6176
  177SOPE  C21320160   5.817   6.779   9.072 -0.2282  0.0337  0.3840
  177SOPE  H13R20161   5.900   6.847   9.099  0.1155  0.5626 -1.9361
  177SOPE  H13S20162   5.735   6.853   9.054 -1.4124 -1.0860  1.0213
  177SOPE  C21420163   5.847   6.707   8.938 -0.6540 -0.4665  0.5048
  177SOPE  H14R20164   5.915   6.619   8.948 -0.4751 -0.5702 -1.3696
  177SOPE  H14S20165   5.903   6.773   8.868 -1.0392 -0.1132  0.5320
  177SOPE  C21520166   5.718   6.667   8.867  0.9383 -0.3689  0.0721
  177SOPE  H15R20167   5.633   6.736   8.889 -0.0384 -1.0371 -1.4827
  177SOPE  H15S20168   5.682   6.575   8.918  1.3591 -0.0860  0.8984
  177SOPE  C21620169   5.738   6.632   8.717 -0.3852 -0.2073  0.1313
  177SOPE  H16R20170   5.784   6.712   8.655  0.0330 -0.5468 -0.0011
  177SOPE  H16S20171   5.639   6.609   8.674 -0.6619  1.2171 -0.0308
  177SOPE  C21720172   5.835   6.510   8.691  0.3428 -0.0103 -0.4772
  177SOPE  H17R20173   5.933   6.535   8.737  0.0392  0.0800  0.1336
  177SOPE  H17S20174   5.842   6.517   8.581  2.8347  0.5095 -0.3136
  177SOPE  C21820175   5.779   6.380   8.738  0.0394 -0.5300  0.3107
  177SOPE  H18R20176   5.773   6.376   8.849 -2.0112 -0.0437  0.2422
  177SOPE  H18S20177   5.847   6.304   8.694 -2.0348 -0.3339 -3.5291
  177SOPE  H18T20178   5.678   6.364   8.694  0.0023 -1.2626  0.6641
  177SOPE   C3320179   5.427   6.265  10.053  1.0033 -0.4086 -0.2804
  177SOPE   H3X20180   5.377   6.166  10.055 -3.6441  1.7454 -1.5715
  177SOPE   H3Y20181   5.537   6.252  10.050  1.0137 -0.1634 -0.9885
  177SOPE   C3420182   5.384   6.342   9.931 -0.1169 -0.1684  0.0079
  177SOPE   H4X20183   5.418   6.447   9.944 -0.7082 -0.0368  0.4550
  177SOPE   H4Y20184   5.274   6.353   9.928 -0.3437 -2.2494 -0.4810
  177SOPE   C3520185   5.442   6.294   9.799 -0.2961  0.2695  0.1711
  177SOPE   H5X20186   5.428   6.187   9.775 -0.0334 -0.3316  2.5111
  177SOPE   H5Y20187   5.551   6.314   9.791 -0.5658  1.2588 -1.1471
  177SOPE   C3620188   5.372   6.367   9.680  0.4119 -0.2443 -0.2674
  177SOPE   H6X20189   5.351   6.473   9.707  0.4546 -0.2478 -0.2243
  177SOPE   H6Y20190   5.276   6.312   9.683 -0.3372  1.1310  2.8282
  177SOPE   C3720191   5.441   6.366   9.542  0.3441 -0.1436  0.3769
  177SOPE   H7X20192   5.477   6.262   9.525 -0.3103 -0.2937 -0.0942
  177SOPE   H7Y20193   5.523   6.441   9.541 -0.4212  0.6934  0.0048
  177SOPE   C3820194   5.347   6.421   9.431  0.3829 -0.2975  0.1099
  177SOPE   H8X20195   5.338   6.530   9.450  0.3027 -0.0123 -1.4411
  177SOPE   H8Y20196   5.244   6.382   9.442 -0.0006  0.7680  0.4010
  177SOPE   C3920197   5.408   6.396   9.295 -0.2189  0.6601 -0.3498
  177SOPE   H9X20198   5.413   6.287   9.273 -1.2909  0.4157  0.5630
  177SOPE   H9Y20199   5.502   6.453   9.281  0.3950 -0.4277 -0.6916
  177SOPE  C31020200   5.315   6.446   9.182 -0.4033 -0.2602  0.1678
  177SOPE  H10X20201   5.308   6.557   9.174  1.1807 -0.3605 -3.9871
  177SOPE  H10Y20202   5.211   6.409   9.198  0.0741 -2.0888 -0.8523
  177SOPE  C31120203   5.365   6.398   9.044 -0.3609 -0.2793 -0.4026
  177SOPE  H11X20204   5.345   6.289   9.035  1.8008 -0.8256  0.8937
  177SOPE  H11Y20205   5.476   6.404   9.043 -0.3430 -0.6971 -1.2497
  177SOPE  C31220206   5.320   6.478   8.925 -0.2566  0.5884 -0.7022
  177SOPE  H12X20207   5.362   6.581   8.918  2.3998 -0.3832  0.3741
  177SOPE  H12Y20208   5.209   6.487   8.925 -0.1173  2.6520 -0.5749
  177SOPE  C31320209   5.345   6.395   8.802 -0.2134  0.1422  0.9375
  177SOPE  H13X20210   5.285   6.302   8.818  3.1284 -1.8607  2.3457
  177SOPE  H13Y20211   5.454   6.379   8.797 -0.4195 -0.8925 -0.3590
  177SOPE  C31420212   5.312   6.481   8.674 -0.2211  0.2308  0.5804
  177SOPE  H14X20213   5.339   6.419   8.586  0.8647  0.5230  0.7091
  177SOPE  H14Y20214   5.373   6.573   8.681 -0.3129  0.2694  0.8860
  177SOPE  C31520215   5.163   6.529   8.665  0.4419  0.3014  0.2264
  177SOPE  H15X20216   5.152   6.630   8.711 -1.3671  0.0573  0.3670
  177SOPE  H15Y20217   5.112   6.452   8.728  1.0007  0.6688  1.1388
  177SOPE  C31620218   5.116   6.531   8.519 -0.7702 -0.2849 -0.2944
  177SOPE  H16X20219   5.119   6.429   8.476 -0.9406  0.8537 -3.1032
  177SOPE  H16Y20220   5.184   6.589   8.454  0.1306 -1.2783 -0.2431
  177SOPE  C31720221   4.979   6.602   8.508  0.4314  1.0714  0.0841
  177SOPE  H17X20222   4.974   6.705   8.549 -0.4752  0.7109  0.9113
  177SOPE  H17Y20223   4.907   6.549   8.575  3.6869 -1.0331  2.0598
  177SOPE  C31820224   4.909   6.618   8.376  0.4301  0.0865 -0.4242
  177SOPE  H18X20225   4.964   6.698   8.323 -1.7120  1.2885 -0.9012
  177SOPE  H18Y20226   4.805   6.654   8.394 -0.2261 -2.3602  0.8519
  177SOPE  H18Z20227   4.902   6.524   8.319 -0.1759 -2.6714  3.9201
  178SOPE     N20228   2.876   5.686  10.715  0.2999  0.4908 -0.3777
  178SOPE   HN120229   2.882   5.669  10.612  0.2816  0.9764 -0.4569
  178SOPE   HN220230   2.773   5.691  10.730  0.7285  0.8731  2.6324
  178SOPE   HN320231   2.910   5.781  10.739 -0.5422  0.8940 -0.7448
  178SOPE   C1220232   2.926   5.575  10.801 -0.2081 -0.5729  0.3772
  178SOPE  H12A20233   2.873   5.578  10.899  0.2867  0.8815  0.6147
  178SOPE  H12B20234   3.031   5.601  10.824  0.6842 -2.1550 -1.7293
  178SOPE   C1120235   2.924   5.440  10.731 -0.4134  0.2848  0.9290
  178SOPE  H11A20236   2.959   5.360  10.800 -2.0975 -1.2659  0.0287
  178SOPE  H11B20237   2.995   5.460  10.648 -0.7662  2.4810  1.1335
  178SOPE     P20238   2.723   5.272  10.677  0.0752  0.2511  0.0787
  178SOPE   O1320239   2.577   5.300  10.681  0.1749  0.3516  0.1303
  178SOPE   O1420240   2.777   5.189  10.780 -0.1685  0.2312 -0.5106
  178SOPE   O1220241   2.804   5.403  10.676  0.1394  0.0062  0.1218
  178SOPE   O1120242   2.754   5.215  10.535 -0.0747  0.4655  0.0465
  178SOPE    C120243   2.681   5.262  10.418 -0.0807  0.6370 -0.3672
  178SOPE    HA20244   2.601   5.337  10.438 -0.1466  0.9141 -1.6617
  178SOPE    HB20245   2.631   5.181  10.363 -1.0114 -0.3635  1.8857
  178SOPE    C220246   2.771   5.343  10.317  0.4945 -0.4000 -0.2964
  178SOPE    HS20247   2.704   5.383  10.238 -0.5734  1.0898  1.3346
  178SOPE   O2120248   2.883   5.261  10.271  0.4093 -0.8120 -0.3274
  178SOPE   C2120249   2.843   5.165  10.188  0.2891  0.0436 -0.1793
  178SOPE   O2220250   2.733   5.158  10.132  0.3799  0.3068  0.3274
  178SOPE   C2220251   2.970   5.073  10.174 -0.3471  0.0615  0.2613
  178SOPE   H2R20252   2.978   5.026  10.275 -0.6431  2.1909  1.2893
  178SOPE   H2S20253   3.048   5.149  10.157  0.5198 -1.2208 -1.6802
  178SOPE    C320254   2.828   5.466  10.389  0.9209  0.4782  0.2925
  178SOPE    HX20255   2.907   5.432  10.459  0.9663  0.4730  0.2381
  178SOPE    HY20256   2.736   5.505  10.437 -0.1878 -1.2823 -0.3559
  178SOPE   O3120257   2.878   5.558  10.288 -0.0816 -0.1030 -0.0099
  178SOPE   C3120258   2.934   5.665  10.335  0.2143  0.0180  0.4590
  178SOPE   O3220259   2.950   5.694  10.445 -0.0065 -0.4041 -0.0850
  178SOPE   C3220260   2.982   5.758  10.230 -0.5994  0.1020  0.2233
  178SOPE   H2X20261   3.061   5.824  10.272 -1.7126  1.6986 -0.1310
  178SOPE   H2Y20262   2.911   5.840  10.206  1.8807  2.3052  0.1732
  178SOPE   C2320263   2.980   4.958  10.075  0.4036 -0.3088 -0.1669
  178SOPE   H3R20264   2.887   4.898  10.080  0.4682 -0.2869  1.4216
  178SOPE   H3S20265   3.074   4.904  10.097  0.0330 -0.3870  1.2418
  178SOPE   C2420266   2.995   5.003   9.930 -0.6453  0.3513  0.0564
  178SOPE   H4R20267   2.908   5.067   9.905 -2.5765 -2.0260  0.4910
  178SOPE   H4S20268   3.085   5.069   9.934  1.7698 -2.7170 -1.4736
  178SOPE   C2520269   3.019   4.893   9.823 -0.1262  0.1050 -0.0378
  178SOPE   H5R20270   3.127   4.864   9.828 -0.3755 -0.7177  0.5707
  178SOPE   H5S20271   2.956   4.803   9.840  0.9936 -0.6605  0.1182
  178SOPE   C2620272   2.997   4.938   9.680  0.2355 -0.2822 -0.0874
  178SOPE   H6R20273   2.897   4.985   9.664  0.5169 -0.1129 -1.3765
  178SOPE   H6S20274   3.059   5.027   9.657  0.2802 -0.4339 -0.5502
  178SOPE   C2720275   3.024   4.827   9.578  0.5483  0.5750  0.7102
  178SOPE   H7R20276   3.132   4.801   9.582  0.4950  0.1565 -0.3532
  178SOPE   H7S20277   2.963   4.740   9.612 -0.4133  0.6343 -0.8367
  178SOPE   C2820278   2.973   4.870   9.441 -0.3991 -0.5124 -0.6014
  178SOPE   H8R20279   2.967   4.779   9.378  1.7955 -2.0800  1.3501
  178SOPE   H8S20280   2.865   4.897   9.452 -0.8914 -2.0416 -1.6070
  178SOPE   C2920281   3.045   4.981   9.368  0.0588  0.1518  0.1369
  178SOPE   H9120282   3.069   5.059   9.442 -2.1748  0.9730  0.0469
  178SOPE  C21020283   3.068   5.003   9.237 -0.9541 -0.5992 -0.2160
  178SOPE  H10120284   3.104   5.104   9.213 -2.8631  0.3004  0.5298
  178SOPE  C21120285   3.029   4.917   9.118 -0.0653  0.2198 -0.3599
  178SOPE  H11R20286   2.955   4.844   9.155 -0.0734  0.6782  0.5375
  178SOPE  H11S20287   3.113   4.850   9.089 -1.4228 -1.4363 -0.5256
  178SOPE  C21220288   2.986   5.003   8.997  0.0447 -0.4861  0.0828
  178SOPE  H12R20289   3.072   5.069   8.973  0.1413 -0.2999  0.9213
  178SOPE  H12S20290   2.899   5.067   9.022 -1.0829 -1.3589 -1.5375
  178SOPE  C21320291   2.949   4.906   8.885  0.0399  0.1573  0.0580
  178SOPE  H13R20292   2.899   4.979   8.818 -1.2048  0.2373  1.0434
  178SOPE  H13S20293   2.878   4.830   8.925 -0.3292  0.3681 -0.1865
  178SOPE  C21420294   3.060   4.844   8.813 -0.0102  0.1679  0.1591
  178SOPE  H14R20295   3.123   4.782   8.881  1.8018  1.5114 -0.2618
  178SOPE  H14S20296   3.122   4.922   8.764  0.0095  0.2647  0.3380
  178SOPE  C21520297   3.004   4.746   8.713  0.0619  0.2830 -0.8116
  178SOPE  H15R20298   2.930   4.796   8.647 -0.8104  0.2404  0.1167
  178SOPE  H15S20299   2.950   4.671   8.775  0.5069  0.1230 -0.6201
  178SOPE  C21620300   3.110   4.682   8.629 -0.2960 -0.8138 -0.0191
  178SOPE  H16R20301   3.052   4.601   8.579  1.0044 -0.7184 -1.7477
  178SOPE  H16S20302   3.181   4.632   8.698  0.3843  1.2799  0.8532
  178SOPE  C21720303   3.176   4.769   8.523 -0.0919 -0.5153 -0.1822
  178SOPE  H17R20304   3.243   4.841   8.575  1.0709 -2.7271  1.4389
  178SOPE  H17S20305   3.114   4.827   8.451  1.4040 -0.3110 -1.3555
  178SOPE  C21820306   3.261   4.681   8.421  0.4583  0.2144  0.3651
  178SOPE  H18R20307   3.197   4.604   8.372 -0.6025 -0.7005  3.0944
  178SOPE  H18S20308   3.340   4.632   8.481  0.5504 -2.2785 -1.6701
  178SOPE  H18T20309   3.304   4.742   8.339  0.8125 -0.5704 -0.0468
  178SOPE   C3320310   3.040   5.690  10.098 -0.0681 -0.9087  0.1460
  178SOPE   H3X20311   2.971   5.604  10.080  0.1581 -0.9184 -0.6837
  178SOPE   H3Y20312   3.147   5.662  10.107 -0.1320 -0.8013  1.4003
  178SOPE   C3420313   3.035   5.785   9.975 -0.6087  0.3102  0.1484
  178SOPE   H4X20314   3.109   5.758   9.898 -2.3338 -0.7941 -1.1715
  178SOPE   H4Y20315   3.053   5.885  10.019  2.4162  0.3565 -1.1032
  178SOPE   C3520316   2.906   5.775   9.900  0.1743 -0.2342  0.0019
  178SOPE   H5X20317   2.825   5.781   9.976  0.3243 -1.5637  0.2657
  178SOPE   H5Y20318   2.888   5.680   9.846  1.2254 -1.1684  1.2550
  178SOPE   C3620319   2.888   5.894   9.799 -0.2726 -0.4507  0.5478
  178SOPE   H6X20320   2.909   5.987   9.858 -3.4445  0.2650  0.6152
  178SOPE   H6Y20321   2.792   5.895   9.744  0.7047 -3.0470 -1.2892
  178SOPE   C3720322   2.991   5.893   9.681 -0.0034 -0.4165  0.2384
  178SOPE   H7X20323   3.097   5.896   9.715 -0.1735  0.9916  0.6802
  178SOPE   H7Y20324   2.973   5.977   9.610  3.2871 -0.1623 -0.3470
  178SOPE   C3820325   2.976   5.765   9.598  0.0454 -0.1698  0.2163
  178SOPE   H8X20326   2.867   5.750   9.585  0.0839 -0.9413  0.7479
  178SOPE   H8Y20327   3.016   5.678   9.654 -0.5124  0.1976  1.1889
  178SOPE   C3920328   3.035   5.785   9.454 -0.3896  0.1987  0.4749
  178SOPE   H9X20329   3.145   5.800   9.448  0.4038 -5.4931 -2.9353
  178SOPE   H9Y20330   2.995   5.868   9.393 -0.9191 -1.1089 -0.9836
  178SOPE  C31020331   3.005   5.663   9.372 -0.0676 -0.3506 -0.7363
  178SOPE  H10X20332   2.898   5.635   9.381 -0.3478  1.0113  0.4415
  178SOPE  H10Y20333   3.060   5.578   9.419  2.7053  1.0260 -1.4208
  178SOPE  C31120334   3.051   5.670   9.223  0.0634 -0.5255  0.5350
  178SOPE  H11X20335   3.155   5.703   9.201 -1.2050  2.1826 -1.7892
  178SOPE  H11Y20336   2.988   5.749   9.176  2.2429  1.4884  0.8728
  178SOPE  C31220337   3.034   5.531   9.160 -0.8211 -0.7290  0.0292
  178SOPE  H12X20338   3.024   5.454   9.241  0.1057  0.3717  1.2096
  178SOPE  H12Y20339   3.123   5.505   9.099 -0.8202  0.4310 -0.4749
  178SOPE  C31320340   2.899   5.520   9.087  0.3572  0.0854 -0.0637
  178SOPE  H13X20341   2.887   5.583   8.997 -2.1666 -1.5096 -0.9031
  178SOPE  H13Y20342   2.817   5.551   9.155  0.3398  0.2124 -0.1420
  178SOPE  C31420343   2.872   5.383   9.026 -0.0843  0.3831 -0.6389
  178SOPE  H14X20344   2.879   5.311   9.110  0.0954  0.8470 -0.2567
  178SOPE  H14Y20345   2.951   5.370   8.949  0.2624 -0.7008 -0.1111
  178SOPE  C31520346   2.739   5.378   8.942 -0.4511 -0.0605  0.2369
  178SOPE  H15X20347   2.653   5.365   9.011 -0.6403  0.2396  0.0560
  178SOPE  H15Y20348   2.746   5.283   8.884 -1.4418  0.0951 -0.1390
  178SOPE  C31620349   2.715   5.493   8.845  0.4765 -0.4585  0.2471
  178SOPE  H16X20350   2.808   5.523   8.792 -0.8366 -0.3612 -2.1032
  178SOPE  H16Y20351   2.669   5.585   8.886  0.5701  0.4363 -1.5809
  178SOPE  C31720352   2.607   5.459   8.739 -0.1739  0.2776 -0.7545
  178SOPE  H17X20353   2.643   5.376   8.674 -0.7689 -0.1225 -0.5726
  178SOPE  H17Y20354   2.589   5.543   8.667 -2.4800  0.8793  0.4728
  178SOPE  C31820355   2.477   5.417   8.808  0.4207 -0.2371  0.1616
  178SOPE  H18X20356   2.391   5.420   8.739 -2.1411  1.2560  3.2973
  178SOPE  H18Y20357   2.458   5.476   8.900  2.2090  1.6648 -0.6399
  178SOPE  H18Z20358   2.475   5.312   8.844 -2.8718 -0.1829  0.2893
  179SOPE     N20359   1.294   6.466   6.519  0.6197  0.1580 -0.0633
  179SOPE   HN120360   1.230   6.546   6.497  1.0888  0.1655 -1.4796
  179SOPE   HN220361   1.343   6.439   6.431 -2.3601  0.2690 -1.8448
  179SOPE   HN320362   1.236   6.382   6.539  2.7273 -2.5649 -4.5405
  179SOPE   C1220363   1.393   6.501   6.618  0.3547  0.1941  0.6581
  179SOPE  H12A20364   1.475   6.426   6.616 -0.1146 -0.3079 -0.1861
  179SOPE  H12B20365   1.340   6.498   6.716 -1.3808  0.5631 -0.2590
  179SOPE   C1120366   1.447   6.642   6.614  0.0483 -0.3157 -0.7049
  179SOPE  H11A20367   1.522   6.655   6.695 -1.0548  1.5911  0.0476
  179SOPE  H11B20368   1.358   6.697   6.652 -0.7850 -0.9337 -1.7652
  179SOPE     P20369   1.503   6.843   6.455  0.2110 -0.8115  0.4047
  179SOPE   O1320370   1.367   6.910   6.439 -0.1238 -0.2042  0.3508
  179SOPE   O1420371   1.598   6.869   6.343 -0.1510  0.5477 -0.6391
  179SOPE   O1220372   1.496   6.691   6.487 -0.6607 -0.1338  0.2723
  179SOPE   O1120373   1.574   6.896   6.587  0.4890 -0.4326  0.2304
  179SOPE    C120374   1.589   7.039   6.596  0.5220  0.4346 -0.0858
  179SOPE    HA20375   1.484   7.071   6.581  0.8356  1.1329 -0.8356
  179SOPE    HB20376   1.646   7.086   6.513 -0.8556 -0.0442 -1.3300
  179SOPE    C220377   1.660   7.091   6.723  0.3051 -0.1456 -0.2820
  179SOPE    HS20378   1.760   7.043   6.709 -0.3770 -1.7106  0.0909
  179SOPE   O2120379   1.587   7.040   6.833  0.1200 -0.1543  0.1536
  179SOPE   C2120380   1.628   6.921   6.882  0.4348 -0.6708 -0.0377
  179SOPE   O2220381   1.719   6.853   6.839  0.2835  0.1514 -0.0612
  179SOPE   C2220382   1.542   6.898   7.014 -1.2127  0.0026  0.8119
  179SOPE   H2R20383   1.452   6.838   6.988 -2.7481  2.7814 -0.4732
  179SOPE   H2S20384   1.507   6.994   7.058 -0.7407  1.7004 -2.3875
  179SOPE    C320385   1.668   7.243   6.728  0.0494 -0.2497  0.0099
  179SOPE    HX20386   1.564   7.278   6.746  0.5393  0.9757  0.5401
  179SOPE    HY20387   1.704   7.292   6.635 -0.6394 -0.4490 -0.3663
  179SOPE   O3120388   1.755   7.286   6.840 -0.0591  0.7778  0.3563
  179SOPE   C3120389   1.690   7.318   6.954 -0.8466  0.7357 -0.8303
  179SOPE   O3220390   1.568   7.320   6.969 -0.2056  0.6245  0.2622
  179SOPE   C3220391   1.794   7.367   7.056  0.3599 -0.5056 -0.1844
  179SOPE   H2X20392   1.793   7.478   7.051  1.6655 -0.2352  3.9055
  179SOPE   H2Y20393   1.891   7.329   7.019 -0.2348  0.5599 -2.9604
  179SOPE   C2320394   1.620   6.808   7.117  0.4044 -0.3759  0.5298
  179SOPE   H3R20395   1.713   6.859   7.151  1.0350 -1.0313 -0.1882
  179SOPE   H3S20396   1.642   6.704   7.085  0.4715 -0.2847  0.2712
  179SOPE   C2420397   1.544   6.803   7.250 -0.0209 -0.1153 -0.6427
  179SOPE   H4R20398   1.537   6.907   7.288 -0.0617  0.1225 -1.2966
  179SOPE   H4S20399   1.446   6.755   7.233 -0.7028  0.8720  0.4202
  179SOPE   C2520400   1.612   6.719   7.358 -0.3689  0.2705  0.7604
  179SOPE   H5R20401   1.602   6.612   7.329  1.6016  0.2540  0.0697
  179SOPE   H5S20402   1.719   6.749   7.347 -1.0463  1.9864 -1.5440
  179SOPE   C2620403   1.573   6.752   7.502 -0.1473 -0.0354  0.1250
  179SOPE   H6R20404   1.606   6.857   7.516  0.2685 -0.0854 -0.4233
  179SOPE   H6S20405   1.463   6.759   7.512 -0.1947 -1.3290  0.6545
  179SOPE   C2720406   1.650   6.657   7.605  0.0416  0.4267 -0.2291
  179SOPE   H7R20407   1.633   6.551   7.575 -1.6065  1.2349 -2.2835
  179SOPE   H7S20408   1.753   6.692   7.584  0.2351  0.1071  0.1749
  179SOPE   C2820409   1.603   6.683   7.752  0.4017 -0.3085  1.1356
  179SOPE   H8R20410   1.691   6.675   7.820 -0.1691 -0.4133  1.8692
  179SOPE   H8S20411   1.562   6.786   7.756 -3.6943 -1.7994 -0.0025
  179SOPE   C2920412   1.503   6.577   7.792 -0.0478  0.2906  0.0111
  179SOPE   H9120413   1.494   6.488   7.728  2.1791  1.2792 -1.7270
  179SOPE  C21020414   1.427   6.594   7.903 -0.0031  0.1713 -0.2537
  179SOPE  H10120415   1.348   6.522   7.924 -0.2039 -0.0500 -1.7187
  179SOPE  C21120416   1.427   6.708   8.006 -0.3764  0.0180  0.6217
  179SOPE  H11R20417   1.348   6.780   7.974  0.1612  1.0247  1.5477
  179SOPE  H11S20418   1.517   6.773   8.014  0.3111 -0.6603 -1.2627
  179SOPE  C21220419   1.397   6.655   8.148 -0.2012  0.5855  0.0654
  179SOPE  H12R20420   1.476   6.583   8.178 -0.2520 -0.1056 -1.4303
  179SOPE  H12S20421   1.302   6.599   8.150  0.3448 -0.3717 -0.5053
  179SOPE  C21320422   1.381   6.774   8.240 -0.4147 -0.1327  0.6021
  179SOPE  H13R20423   1.290   6.836   8.233 -0.4160  0.0161  1.7788
  179SOPE  H13S20424   1.463   6.848   8.227 -2.6993  2.6215  1.4635
  179SOPE  C21420425   1.389   6.722   8.387  0.3563  0.2480  0.2965
  179SOPE  H14R20426   1.478   6.660   8.412  0.2227 -0.0487  0.0347
  179SOPE  H14S20427   1.297   6.661   8.396  0.9807 -1.0894 -2.0296
  179SOPE  C21520428   1.388   6.841   8.488  0.2907  0.2657  0.4710
  179SOPE  H15R20429   1.306   6.912   8.464 -1.2425 -1.6886 -0.1158
  179SOPE  H15S20430   1.479   6.903   8.470  0.5717  0.0778  1.2276
  179SOPE  C21620431   1.372   6.817   8.636 -0.2086  0.4782 -0.0709
  179SOPE  H16R20432   1.446   6.881   8.688  1.8731 -0.8111 -1.3875
  179SOPE  H16S20433   1.397   6.712   8.662  0.3454  0.7361  0.4621
  179SOPE  C21720434   1.230   6.844   8.698 -1.3293  0.2660  0.5960
  179SOPE  H17R20435   1.226   6.805   8.802  0.2146 -0.4516  0.3875
  179SOPE  H17S20436   1.153   6.787   8.642 -1.2615  0.3946  0.3744
  179SOPE  C21820437   1.195   6.997   8.723 -0.2121  0.2745  0.0770
  179SOPE  H18R20438   1.095   7.011   8.770 -1.2419 -4.3263 -0.5602
  179SOPE  H18S20439   1.189   7.035   8.619  1.3230  0.4908  0.0602
  179SOPE  H18T20440   1.267   7.063   8.777 -1.8801  0.0457  2.6755
  179SOPE   C3320441   1.788   7.322   7.200  0.5960 -0.0399 -1.0474
  179SOPE   H3X20442   1.703   7.371   7.253 -0.7108 -2.1211 -1.1567
  179SOPE   H3Y20443   1.883   7.347   7.252  0.7510 -0.7728 -0.9807
  179SOPE   C3420444   1.776   7.166   7.212  0.3418  0.1387  0.3642
  179SOPE   H4X20445   1.861   7.119   7.156 -0.6785 -4.4542  2.4231
  179SOPE   H4Y20446   1.685   7.131   7.159  0.4546  1.0471 -0.4421
  179SOPE   C3520447   1.771   7.118   7.360  0.0844 -0.0485 -0.8567
  179SOPE   H5X20448   1.867   7.137   7.413 -2.1390  0.4148  3.2014
  179SOPE   H5Y20449   1.754   7.009   7.375  0.6427 -0.1293 -0.7993
  179SOPE   C3620450   1.658   7.191   7.440  0.2781  0.0020 -0.5559
  179SOPE   H6X20451   1.556   7.165   7.406  0.4842 -0.1732 -1.0455
  179SOPE   H6Y20452   1.658   7.302   7.450 -1.0377 -0.1004  0.5976
  179SOPE   C3720453   1.666   7.152   7.594 -0.5815 -0.1385  0.2708
  179SOPE   H7X20454   1.751   7.205   7.641 -2.1671 -0.0064  3.1194
  179SOPE   H7Y20455   1.693   7.044   7.602  0.6010 -0.0151 -1.7268
  179SOPE   C3820456   1.546   7.184   7.674 -0.1568 -0.0460  0.2452
  179SOPE   H8X20457   1.460   7.130   7.630 -3.0490  1.7859  3.4067
  179SOPE   H8Y20458   1.533   7.295   7.674  2.9373  0.3768  1.0976
  179SOPE   C3920459   1.565   7.139   7.814  0.6942  0.8467 -0.1244
  179SOPE   H9X20460   1.671   7.157   7.841  0.9231 -0.7891  0.1216
  179SOPE   H9Y20461   1.556   7.029   7.809  1.8821  0.5485  3.3625
  179SOPE  C31020462   1.464   7.198   7.913 -0.0692 -0.5724 -0.6659
  179SOPE  H10X20463   1.364   7.181   7.870 -0.3084  0.3681 -0.4849
  179SOPE  H10Y20464   1.481   7.307   7.925 -0.5834 -0.7320  1.8431
  179SOPE  C31120465   1.477   7.134   8.056  0.1253 -0.3216 -0.7401
  179SOPE  H11X20466   1.564   7.185   8.103  0.0505 -1.9973  1.3248
  179SOPE  H11Y20467   1.508   7.027   8.056  0.7277 -0.1479 -1.2681
  179SOPE  C31220468   1.352   7.150   8.144  0.0081 -0.0605  0.0302
  179SOPE  H12X20469   1.311   7.048   8.130 -0.3528  0.0106  0.5755
  179SOPE  H12Y20470   1.275   7.222   8.109  0.1423 -0.4659 -1.1294
  179SOPE  C31320471   1.387   7.163   8.296  0.0862 -0.2975 -0.5824
  179SOPE  H13X20472   1.450   7.084   8.342 -1.6305 -0.4558  1.5461
  179SOPE  H13Y20473   1.290   7.134   8.342  0.9469 -1.8924  0.2444
  179SOPE  C31420474   1.436   7.298   8.351 -0.3137 -0.2205 -0.6087
  179SOPE  H14X20475   1.384   7.378   8.293  0.4450 -0.0958 -1.1257
  179SOPE  H14Y20476   1.544   7.311   8.329 -0.7667  2.6972 -1.3727
  179SOPE  C31520477   1.407   7.311   8.499 -0.0176 -0.3340  0.1652
  179SOPE  H15X20478   1.477   7.245   8.555  0.8014  1.1018  0.8529
  179SOPE  H15Y20479   1.302   7.292   8.529 -0.1536  0.4428  0.1820
  179SOPE  C31620480   1.450   7.452   8.531 -0.4720  0.1781 -0.4475
  179SOPE  H16X20481   1.547   7.485   8.486 -1.5190  3.1386 -0.6519
  179SOPE  H16Y20482   1.457   7.457   8.642 -0.9374  0.6512 -0.4418
  179SOPE  C31720483   1.350   7.569   8.491 -0.5842 -1.0953  0.0175
  179SOPE  H17X20484   1.247   7.527   8.497 -0.2040 -1.9462  0.7629
  179SOPE  H17Y20485   1.367   7.600   8.386 -1.7068  1.0810  0.4411
  179SOPE  C31820486   1.363   7.694   8.593 -0.3386  0.4593  0.0209
  179SOPE  H18X20487   1.352   7.655   8.697  0.0126 -0.3343 -0.2380
  179SOPE  H18Y20488   1.282   7.770   8.586  0.1797  1.1625  1.3859
  179SOPE  H18Z20489   1.463   7.741   8.581 -0.0798 -0.1544 -0.2214
  180SOPE     N20490   0.846   6.766   5.955 -0.3508 -0.2283  0.1341
  180SOPE   HN120491   0.765   6.826   5.980  0.7388  1.7639 -0.9443
  180SOPE   HN220492   0.926   6.783   6.020  0.4260  0.2244 -0.9322
  180SOPE   HN320493   0.880   6.793   5.861 -1.9764 -1.0806 -0.6943
  180SOPE   C1220494   0.806   6.630   5.998 -0.7149  0.2137 -0.4199
  180SOPE  H12A20495   0.733   6.588   5.924 -0.3087 -0.4082 -0.4751
  180SOPE  H12B20496   0.755   6.639   6.096 -0.1147  2.4082 -0.2883
  180SOPE   C1120497   0.925   6.528   6.018  0.1149 -0.4269 -0.7008
  180SOPE  H11A20498   0.989   6.525   5.927  1.2420  0.8067  0.0226
  180SOPE  H11B20499   0.882   6.429   6.044 -2.0061  0.1188 -2.0282
  180SOPE     P20500   1.001   6.526   6.277  0.3952  0.2021  0.2719
  180SOPE   O1320501   1.086   6.609   6.362 -0.2671 -0.2855 -0.0695
  180SOPE   O1420502   1.033   6.380   6.273 -0.5161  1.2920 -0.1130
  180SOPE   O1220503   1.005   6.585   6.128 -0.1921  0.3956 -0.0166
  180SOPE   O1120504   0.850   6.553   6.315  0.0175 -0.4044 -0.0976
  180SOPE    C120505   0.817   6.680   6.381  0.0742  0.1670  0.5223
  180SOPE    HA20506   0.708   6.688   6.357  0.0235 -0.2194  0.6275
  180SOPE    HB20507   0.865   6.765   6.328  1.4412 -1.5151 -0.9863
  180SOPE    C220508   0.841   6.683   6.534 -0.6803  1.0849  0.3747
  180SOPE    HS20509   0.951   6.681   6.548 -0.7783 -1.1156  1.0322
  180SOPE   O2120510   0.785   6.565   6.589 -0.4382  0.0265  0.4605
  180SOPE   C2120511   0.864   6.503   6.678  0.3199  0.2113 -0.5660
  180SOPE   O2220512   0.967   6.548   6.724 -0.0857 -0.4548 -0.3522
  180SOPE   C2220513   0.797   6.370   6.726  0.3065 -0.3604  0.1188
  180SOPE   H2R20514   0.821   6.291   6.652 -0.0282  1.3543 -1.9052
  180SOPE   H2S20515   0.686   6.373   6.712  0.3669  2.3860 -0.1542
  180SOPE    C320516   0.780   6.816   6.590 -0.0493 -0.7757  0.1008
  180SOPE    HX20517   0.669   6.818   6.591 -0.0311  0.7312  1.7503
  180SOPE    HY20518   0.818   6.897   6.524 -0.8750 -2.5000 -2.5211
  180SOPE   O3120519   0.831   6.850   6.722  0.2304  0.2627  0.2222
  180SOPE   C3120520   0.761   6.790   6.810 -0.5975  0.5411 -0.2298
  180SOPE   O3220521   0.650   6.733   6.804 -0.4318 -0.6548  0.0059
  180SOPE   C3220522   0.835   6.790   6.941 -0.2692  0.8239  0.2202
  180SOPE   H2X20523   0.882   6.889   6.959 -1.0425  1.3031 -0.4228
  180SOPE   H2Y20524   0.917   6.716   6.925 -0.1322  0.8823  0.6407
  180SOPE   C2320525   0.833   6.348   6.869  0.0932  0.3115  0.3077
  180SOPE   H3R20526   0.808   6.435   6.934  0.2198 -1.2908  2.5755
  180SOPE   H3S20527   0.940   6.322   6.881  0.3763  0.6660 -1.2978
  180SOPE   C2420528   0.764   6.222   6.913  0.6703  0.1181  0.3580
  180SOPE   H4R20529   0.664   6.240   6.958  0.8955  1.5566  0.3091
  180SOPE   H4S20530   0.740   6.149   6.834 -0.1595 -0.7851  1.4338
  180SOPE   C2520531   0.846   6.146   7.017  1.0852 -0.0961 -0.7346
  180SOPE   H5R20532   0.944   6.124   6.969  0.7724 -1.0588 -0.9438
  180SOPE   H5S20533   0.870   6.216   7.099  0.8163  0.0647 -0.7917
  180SOPE   C2620534   0.784   6.024   7.080  0.1618  0.0011  0.2676
  180SOPE   H6R20535   0.721   5.989   6.995 -0.4966  0.0229  0.7480
  180SOPE   H6S20536   0.865   5.953   7.106 -0.6426 -0.2281  2.1735
  180SOPE   C2720537   0.698   6.068   7.202 -0.0353  0.4286  0.1589
  180SOPE   H7R20538   0.772   6.110   7.275 -1.7141  2.1616  0.9038
  180SOPE   H7S20539   0.634   6.154   7.173  0.4623  0.5291 -0.6510
  180SOPE   C2820540   0.610   5.952   7.258  0.2185 -0.3978  0.0611
  180SOPE   H8R20541   0.673   5.861   7.255  0.0914 -0.4588 -1.7918
  180SOPE   H8S20542   0.593   5.986   7.362 -0.9933 -0.3379 -0.1482
  180SOPE   C2920543   0.482   5.935   7.180  0.1633 -0.0892 -0.9530
  180SOPE   H9120544   0.500   5.869   7.093 -0.1684 -0.4022 -0.7870
  180SOPE  C21020545   0.360   5.979   7.204  0.5218 -0.5586  0.4676
  180SOPE  H10120546   0.281   5.951   7.133 -0.1772  1.6845  0.3194
  180SOPE  C21120547   0.310   6.067   7.318 -0.6521 -0.6792  0.8749
  180SOPE  H11R20548   0.210   6.116   7.310 -0.5264 -0.6531 -0.5780
  180SOPE  H11S20549   0.384   6.144   7.346  0.0055 -1.1040  0.3117
  180SOPE  C21220550   0.298   5.975   7.443 -0.0955 -1.5179  0.1315
  180SOPE  H12R20551   0.390   5.913   7.447  2.0045  1.5867  1.8094
  180SOPE  H12S20552   0.213   5.906   7.423 -3.5449  2.0076  1.8771
  180SOPE  C21320553   0.277   6.054   7.573  0.3860 -0.1478  0.7310
  180SOPE  H13R20554   0.177   6.102   7.564 -0.3716 -1.5929  1.3074
  180SOPE  H13S20555   0.358   6.130   7.577  1.1188 -0.8990  0.3162
  180SOPE  C21420556   0.291   5.959   7.689 -0.3905 -0.3742  0.0894
  180SOPE  H14R20557   0.400   5.944   7.705 -0.3827  1.2638  1.7359
  180SOPE  H14S20558   0.227   5.869   7.675  0.5044 -0.8955 -0.6507
  180SOPE  C21520559   0.243   6.014   7.821  0.7184 -0.2952 -0.5750
  180SOPE  H15R20560   0.150   6.074   7.808  1.6409  1.5506  1.0162
  180SOPE  H15S20561   0.307   6.091   7.870  0.2358 -0.1511 -0.1597
  180SOPE  C21620562   0.220   5.901   7.923 -0.1190 -0.5669 -0.1207
  180SOPE  H16R20563   0.314   5.848   7.950 -0.7855 -1.2053  0.9777
  180SOPE  H16S20564   0.160   5.819   7.878  0.9366 -0.7048 -1.3265
  180SOPE  C21720565   0.141   5.950   8.051 -0.1474 -0.7324 -0.1147
  180SOPE  H17R20566   0.126   5.859   8.112  0.1647 -1.2659 -0.8382
  180SOPE  H17S20567   0.044   5.988   8.010 -0.0740  0.4747  0.7842
  180SOPE  C21820568   0.215   6.060   8.127 -0.2969 -0.0904 -0.1745
  180SOPE  H18R20569   0.191   6.080   8.234  1.3965 -0.0571  0.2221
  180SOPE  H18S20570   0.196   6.159   8.082 -0.1037  0.6561  1.3326
  180SOPE  H18T20571   0.325   6.040   8.123 -0.4381 -0.8413 -0.3994
  180SOPE   C3320572   0.749   6.744   7.070  0.2389  0.6536  0.3181
  180SOPE   H3X20573   0.814   6.686   7.139  1.1408  0.9903 -0.2371
  180SOPE   H3Y20574   0.655   6.690   7.046  0.6667  0.0870 -0.0944
  180SOPE   C3420575   0.699   6.864   7.134  0.1496 -0.0621  0.4007
  180SOPE   H4X20576   0.629   6.920   7.068 -0.3161  1.5047  2.2131
  180SOPE   H4Y20577   0.788   6.920   7.170 -2.2892  1.9713  3.4514
  180SOPE   C3520578   0.619   6.836   7.261  0.8435 -0.5793  0.5258
  180SOPE   H5X20579   0.533   6.769   7.240 -0.8618  1.3339  1.1867
  180SOPE   H5Y20580   0.576   6.932   7.296  2.3339 -0.3645  1.8409
  180SOPE   C3620581   0.694   6.774   7.379  0.4915 -0.4500  0.3007
  180SOPE   H6X20582   0.791   6.825   7.395  1.1010 -1.0478 -1.3646
  180SOPE   H6Y20583   0.710   6.667   7.355 -1.6694 -0.5057 -1.0351
  180SOPE   C3720584   0.609   6.769   7.510 -0.3558 -0.1691 -0.2878
  180SOPE   H7X20585   0.538   6.685   7.501 -0.1313 -0.3459 -0.3954
  180SOPE   H7Y20586   0.551   6.864   7.518  2.5629  1.5835  0.8776
  180SOPE   C3820587   0.681   6.749   7.638 -0.7314  0.0773  0.0233
  180SOPE   H8X20588   0.748   6.832   7.667  0.1578 -0.8564  0.6580
  180SOPE   H8Y20589   0.732   6.651   7.627  0.2805  0.5316  0.6184
  180SOPE   C3920590   0.588   6.728   7.758 -0.5634 -1.1542  0.5306
  180SOPE   H9X20591   0.546   6.627   7.741  2.5534 -2.9146  2.9180
  180SOPE   H9Y20592   0.518   6.814   7.756 -0.2773 -0.8880  1.5521
  180SOPE  C31020593   0.665   6.729   7.889 -0.2309  1.3091  0.2753
  180SOPE  H10X20594   0.720   6.823   7.912  0.0362  1.2320 -0.0407
  180SOPE  H10Y20595   0.740   6.648   7.879 -1.6075  0.1907 -1.1560
  180SOPE  C31120596   0.576   6.691   8.007  0.1964  0.2185 -0.1896
  180SOPE  H11X20597   0.528   6.594   7.982  1.0359  0.2626 -2.1093
  180SOPE  H11Y20598   0.487   6.757   8.013  0.6350  0.7173  0.8902
  180SOPE  C31220599   0.636   6.686   8.154 -0.6069  0.0006  0.4024
  180SOPE  H12X20600   0.723   6.754   8.153  0.8837 -1.8538  1.2560
  180SOPE  H12Y20601   0.672   6.584   8.180 -0.1562 -0.2076 -0.9695
  180SOPE  C31320602   0.538   6.734   8.265  0.4851  0.8007  0.9230
  180SOPE  H13X20603   0.438   6.693   8.242  0.9871 -0.5388  1.0920
  180SOPE  H13Y20604   0.535   6.845   8.262  1.7339  0.8275  0.3520
  180SOPE  C31420605   0.582   6.694   8.413  0.0488 -0.4958  0.4023
  180SOPE  H14X20606   0.622   6.590   8.414 -1.6823 -1.2208 -1.4374
  180SOPE  H14Y20607   0.497   6.702   8.484 -0.8941  2.1822 -0.9360
  180SOPE  C31520608   0.687   6.790   8.473 -0.2654 -0.1650 -0.3886
  180SOPE  H15X20609   0.661   6.898   8.472  1.7148  0.3187 -0.7307
  180SOPE  H15Y20610   0.783   6.781   8.419  0.4993  1.1497  0.7456
  180SOPE  C31620611   0.727   6.754   8.611 -0.1357  0.3726  0.1042
  180SOPE  H16X20612   0.764   6.649   8.614  1.0779  0.8100  1.4378
  180SOPE  H16Y20613   0.644   6.755   8.685 -0.0566 -1.1719  0.2381
  180SOPE  C31720614   0.836   6.842   8.663 -0.3905  0.1267 -0.1590
  180SOPE  H17X20615   0.792   6.943   8.677  1.4004  0.6091  2.2123
  180SOPE  H17Y20616   0.922   6.837   8.593  0.3577 -0.9172  0.8216
  180SOPE  C31820617   0.878   6.802   8.808 -0.3346 -0.5324 -0.0640
  180SOPE  H18X20618   0.787   6.784   8.869  1.9168  0.6870  3.7841
  180SOPE  H18Y20619   0.936   6.884   8.854 -0.6808  1.0361 -2.3278
  180SOPE  H18Z20620   0.935   6.706   8.809  1.1770  0.3580  0.7465
  181SOPE     N20621   0.588   4.419   6.209 -0.1718  1.0389 -0.7218
  181SOPE   HN120622   0.639   4.331   6.186 -0.0544  1.4419 -2.0785
  181SOPE   HN220623   0.540   4.451   6.122 -0.5608 -0.5155 -1.0963
  181SOPE   HN320624   0.655   4.494   6.233 -0.9299  0.8686  2.1730
  181SOPE   C1220625   0.488   4.402   6.323 -1.1461  0.0871  0.2219
  181SOPE  H12A20626   0.476   4.504   6.367  4.0551  0.8990  0.1375
  181SOPE  H12B20627   0.539   4.331   6.392 -0.8074 -0.5702 -0.6999
  181SOPE   C1120628   0.350   4.350   6.269 -0.0020 -0.6068  0.3171
  181SOPE  H11A20629   0.281   4.319   6.351 -1.9384 -0.5015 -1.2458
  181SOPE  H11B20630   0.381   4.258   6.214  2.8088  0.8857 -0.7009
  181SOPE     P20631   0.128   4.430   6.152 -0.3019  0.1278 -0.3075
  181SOPE   O1320632   0.073   4.303   6.215 -0.4672  0.0340 -0.0621
  181SOPE   O1420633   0.093   4.463   6.011 -0.1342  0.4240 -0.3760
  181SOPE   O1220634   0.291   4.437   6.174  0.1515 -0.3306 -0.2257
  181SOPE   O1120635   0.085   4.547   6.247 -0.4089 -0.2415 -0.2258
  181SOPE    C120636   0.154   4.664   6.287  0.2615 -0.5222  0.5862
  181SOPE    HA20637   0.086   4.752   6.276  0.2196 -0.9193 -2.6257
  181SOPE    HB20638   0.235   4.688   6.215 -0.8252  2.2391  0.2000
  181SOPE    C220639   0.202   4.666   6.431 -0.4614 -0.3425 -0.0212
  181SOPE    HS20640   0.274   4.583   6.443 -0.1973  0.0610  1.3060
  181SOPE   O2120641   0.090   4.643   6.510  0.4230  0.1798 -0.0658
  181SOPE   C2120642   0.090   4.555   6.603  0.0884 -0.1766  0.1323
  181SOPE   O2220643   0.178   4.474   6.622 -0.6484 -0.4324  0.1070
  181SOPE   C2220644  -0.038   4.558   6.682  0.8444 -0.1380 -0.2979
  181SOPE   H2R20645  -0.088   4.470   6.636  1.1604 -1.1094  1.1583
  181SOPE   H2S20646  -0.099   4.650   6.674  0.3317 -0.4570 -0.1266
  181SOPE    C320647   0.253   4.809   6.467  0.2349  0.3422  0.4840
  181SOPE    HX20648   0.161   4.872   6.459 -1.7949 -2.5725  0.1599
  181SOPE    HY20649   0.313   4.849   6.382  0.2478 -1.7178 -0.5101
  181SOPE   O3120650   0.318   4.819   6.595  0.5572 -0.2429 -0.5874
  181SOPE   C3120651   0.437   4.767   6.610  0.5219 -0.8522  0.1113
  181SOPE   O3220652   0.506   4.730   6.514 -0.1570 -0.0576  0.1963
  181SOPE   C3220653   0.474   4.768   6.755 -0.5714 -0.3978  0.3891
  181SOPE   H2X20654   0.449   4.866   6.800  0.2896  0.0698 -0.1350
  181SOPE   H2Y20655   0.585   4.756   6.754 -0.5975 -0.5404 -1.5002
  181SOPE   C2320656  -0.010   4.511   6.829 -0.2400  0.3184  0.2173
  181SOPE   H3R20657   0.049   4.589   6.881 -1.7013  0.0711  2.3211
  181SOPE   H3S20658   0.031   4.408   6.829 -0.0202  0.4043 -0.1836
  181SOPE   C2420659  -0.142   4.508   6.910 -0.2571 -0.4370 -0.8108
  181SOPE   H4R20660  -0.195   4.605   6.918 -0.1325 -0.5308  1.4056
  181SOPE   H4S20661  -0.207   4.441   6.849  0.2606 -1.6562 -0.0554
  181SOPE   C2520662  -0.116   4.450   7.045  0.4626 -0.1711 -0.6038
  181SOPE   H5R20663  -0.197   4.380   7.074  1.8550 -1.5414  0.0725
  181SOPE   H5S20664  -0.038   4.372   7.036  0.9625  0.2703 -0.1706
  181SOPE   C2620665  -0.085   4.551   7.158 -0.0698 -0.2863 -0.1492
  181SOPE   H6R20666   0.010   4.604   7.133 -0.2149  0.1693  0.2614
  181SOPE   H6S20667  -0.165   4.628   7.159  1.4337  1.3165  0.5832
  181SOPE   C2720668  -0.070   4.480   7.289 -0.1423 -0.1605  0.4420
  181SOPE   H7R20669  -0.027   4.378   7.284  0.0816 -0.0651  0.4293
  181SOPE   H7S20670  -0.017   4.543   7.363  0.5327  3.1909 -2.7348
  181SOPE   C2820671  -0.204   4.452   7.355 -0.6285  0.3162  0.6739
  181SOPE   H8R20672  -0.251   4.547   7.388 -1.2259 -0.5469  2.3587
  181SOPE   H8S20673  -0.275   4.408   7.282  1.3930 -0.6320 -0.7775
  181SOPE   C2920674  -0.213   4.362   7.472 -0.8071  0.4565  0.0308
  181SOPE   H9120675  -0.218   4.255   7.445 -1.4264  0.9055 -1.6529
  181SOPE  C21020676  -0.176   4.399   7.594  0.7166 -0.1176 -0.1738
  181SOPE  H10120677  -0.179   4.325   7.676 -3.3063 -0.4742 -0.5245
  181SOPE  C21120678  -0.121   4.534   7.631 -0.5705 -0.3316  0.4383
  181SOPE  H11R20679  -0.180   4.618   7.587 -2.0175 -2.6223 -2.1486
  181SOPE  H11S20680  -0.017   4.554   7.596 -1.0123  1.4648  0.1003
  181SOPE  C21220681  -0.113   4.560   7.785  0.5175 -0.0136  0.0380
  181SOPE  H12R20682  -0.027   4.503   7.826  0.0211 -1.8215 -1.3951
  181SOPE  H12S20683  -0.211   4.535   7.832  1.0108 -0.0985  1.0355
  181SOPE  C21320684  -0.086   4.707   7.823  0.4518 -0.5724  0.4886
  181SOPE  H13R20685  -0.166   4.773   7.785 -1.0895 -2.1898  0.8263
  181SOPE  H13S20686   0.012   4.734   7.776 -0.5967  0.3648 -1.2011
  181SOPE  C21420687  -0.064   4.730   7.974  0.4869  0.7358 -0.4931
  181SOPE  H14R20688  -0.045   4.838   7.996 -0.4615  0.9370 -0.6754
  181SOPE  H14S20689   0.022   4.671   8.014  1.6424  1.2328 -2.1621
  181SOPE  C21520690  -0.202   4.698   8.042 -0.4091  0.2777 -0.4623
  181SOPE  H15R20691  -0.237   4.594   8.028 -0.4478  0.1489  0.5507
  181SOPE  H15S20692  -0.277   4.763   7.991 -0.2902  0.9460  0.1970
  181SOPE  C21620693  -0.227   4.744   8.189  0.6355  0.3169 -0.7179
  181SOPE  H16R20694  -0.332   4.733   8.225  1.1253 -1.1587  0.2621
  181SOPE  H16S20695  -0.196   4.851   8.190  0.5507  0.3612 -2.0030
  181SOPE  C21720696  -0.152   4.664   8.296  0.6440  0.0926 -0.0660
  181SOPE  H17R20697  -0.043   4.677   8.276  0.2001  0.1213 -2.6274
  181SOPE  H17S20698  -0.167   4.554   8.284  0.6161  0.4510 -3.9968
  181SOPE  C21820699  -0.190   4.700   8.439  0.1507  0.0966 -0.5233
  181SOPE  H18R20700  -0.290   4.748   8.453  0.3025  0.0592  0.8343
  181SOPE  H18S20701  -0.117   4.773   8.482  0.1221 -0.0677 -0.1942
  181SOPE  H18T20702  -0.186   4.606   8.498 -0.1609  0.2819 -0.2034
  181SOPE   C3320703   0.405   4.658   6.837 -0.1700  0.3609  0.1050
  181SOPE   H3X20704   0.435   4.555   6.808  0.1381  0.4114  0.2416
  181SOPE   H3Y20705   0.295   4.668   6.825 -0.2341  0.4947  0.8035
  181SOPE   C3420706   0.426   4.652   6.987 -0.1121  0.3127  0.0357
  181SOPE   H4X20707   0.373   4.728   7.048  1.0337  0.1188  1.3078
  181SOPE   H4Y20708   0.533   4.668   7.012  0.0209  2.6412 -1.8383
  181SOPE   C3520709   0.387   4.525   7.057 -0.9958  0.3435 -0.5244
  181SOPE   H5X20710   0.464   4.449   7.035  0.4990  2.1440 -1.6364
  181SOPE   H5Y20711   0.293   4.490   7.010 -1.1347  0.7777 -0.5771
  181SOPE   C3620712   0.374   4.534   7.206  0.3069 -0.2006  1.2810
  181SOPE   H6X20713   0.304   4.614   7.241  0.2307 -0.5186  1.8739
  181SOPE   H6Y20714   0.474   4.559   7.248  0.5486  1.4585 -0.2425
  181SOPE   C3720715   0.313   4.406   7.265 -0.1788  0.2203 -0.5940
  181SOPE   H7X20716   0.363   4.315   7.226  0.6539 -0.2238  1.4745
  181SOPE   H7Y20717   0.211   4.390   7.223  0.4791 -0.4439 -1.9814
  181SOPE   C3820718   0.317   4.409   7.422 -0.5872 -0.5612 -0.1898
  181SOPE   H8X20719   0.276   4.502   7.466  0.0700 -0.1887 -0.3622
  181SOPE   H8Y20720   0.426   4.416   7.444 -0.5129 -1.8730 -0.0615
  181SOPE   C3920721   0.241   4.291   7.486 -0.4067 -0.7467 -0.5325
  181SOPE   H9X20722   0.304   4.200   7.492 -0.7565 -1.0121 -0.8843
  181SOPE   H9Y20723   0.149   4.260   7.432 -2.6316  1.1423  2.0678
  181SOPE  C31020724   0.201   4.329   7.636 -0.5257  0.2227 -0.3905
  181SOPE  H10X20725   0.128   4.412   7.636  0.3071  0.9986 -3.3746
  181SOPE  H10Y20726   0.294   4.369   7.682 -0.1659 -1.5449  0.4605
  181SOPE  C31120727   0.137   4.211   7.712  0.4705  0.2747 -0.1722
  181SOPE  H11X20728   0.193   4.118   7.693  1.2554  0.3083  1.8346
  181SOPE  H11Y20729   0.039   4.187   7.665  0.4517  0.2944 -0.1443
  181SOPE  C31220730   0.120   4.246   7.864  0.4799  0.3296 -0.3310
  181SOPE  H12X20731   0.045   4.327   7.868  1.5467  1.3208 -0.1445
  181SOPE  H12Y20732   0.215   4.295   7.894 -0.6798  0.5669  3.1924
  181SOPE  C31320733   0.102   4.128   7.955  1.0306  0.4905  0.1449
  181SOPE  H13X20734   0.174   4.049   7.925  0.3643 -0.7281  1.7144
  181SOPE  H13Y20735  -0.004   4.097   7.947  1.7446 -1.8765 -0.6043
  181SOPE  C31420736   0.141   4.169   8.095  0.3748 -0.0756  0.4385
  181SOPE  H14X20737   0.096   4.266   8.122  1.4570 -0.3429  3.3674
  181SOPE  H14Y20738   0.250   4.168   8.118  0.3001  0.7209  0.8424
  181SOPE  C31520739   0.064   4.081   8.204 -0.5182  0.4981  0.2447
  181SOPE  H15X20740   0.123   3.989   8.223  0.5294  1.4042  1.4219
  181SOPE  H15Y20741  -0.038   4.058   8.165 -0.0601  0.8080 -1.1284
  181SOPE  C31620742   0.045   4.164   8.335 -0.0750  0.0846  0.1493
  181SOPE  H16X20743  -0.051   4.221   8.328 -1.7227 -2.5030  1.0870
  181SOPE  H16Y20744   0.108   4.255   8.342 -2.3080  1.6606  0.7078
  181SOPE  C31720745   0.043   4.081   8.464  0.3549  0.3311 -0.6432
  181SOPE  H17X20746  -0.018   3.990   8.450  2.9614 -1.7537  1.0989
  181SOPE  H17Y20747   0.008   4.145   8.548  1.2237  0.7335 -0.5869
  181SOPE  C31820748   0.185   4.038   8.505 -0.1786 -0.2789 -0.8321
  181SOPE  H18X20749   0.234   4.128   8.547 -2.6524  1.1554 -0.9057
  181SOPE  H18Y20750   0.241   4.002   8.416 -1.2366 -0.9893 -1.2332
  181SOPE  H18Z20751   0.180   3.961   8.585 -0.5200  0.0419 -0.5486
  182SOPE     N20752   0.423   6.254   6.393 -0.0218 -0.0495  0.2433
  182SOPE   HN120753   0.428   6.217   6.490  0.1794 -0.5033  0.0631
  182SOPE   HN220754   0.480   6.339   6.377 -0.5740  0.1423 -0.8090
  182SOPE   HN320755   0.325   6.291   6.396 -0.6166 -1.5190 -0.3945
  182SOPE   C1220756   0.451   6.157   6.283 -1.1732  0.2129 -0.0789
  182SOPE  H12A20757   0.561   6.141   6.295 -1.1713 -2.8342 -3.3635
  182SOPE  H12B20758   0.421   6.191   6.181  0.9159 -0.9360 -1.1072
  182SOPE   C1120759   0.373   6.026   6.299 -0.4328 -0.2814 -0.2537
  182SOPE  H11A20760   0.266   6.056   6.294 -0.8229 -1.6488 -0.3851
  182SOPE  H11B20761   0.396   5.989   6.402 -2.6976  0.4206  0.5232
  182SOPE     P20762   0.538   5.845   6.193  0.1313  0.7161 -0.0855
  182SOPE   O1320763   0.645   5.937   6.159 -0.1595  0.0782  0.3861
  182SOPE   O1420764   0.519   5.731   6.100 -0.5290  0.2879  0.3106
  182SOPE   O1220765   0.405   5.927   6.195  0.1330  0.6167  0.2700
  182SOPE   O1120766   0.565   5.772   6.333  0.1246 -0.1820 -0.3607
  182SOPE    C120767   0.451   5.722   6.402 -0.0175 -0.9262 -0.4584
  182SOPE    HA20768   0.454   5.611   6.405 -0.6031 -0.9321  0.0153
  182SOPE    HB20769   0.351   5.752   6.363  0.8249  1.0995 -1.1346
  182SOPE    C220770   0.454   5.770   6.556 -0.3602  0.0581  0.0569
  182SOPE    HS20771   0.469   5.880   6.557 -2.2757  0.3354 -0.6275
  182SOPE   O2120772   0.565   5.706   6.625  0.6947  0.3418  0.8913
  182SOPE   C2120773   0.579   5.754   6.745 -0.1960 -0.2605  0.3904
  182SOPE   O2220774   0.554   5.869   6.787 -0.5241  0.1530 -0.7606
  182SOPE   C2220775   0.617   5.629   6.826 -0.3926  0.5760 -0.4260
  182SOPE   H2R20776   0.702   5.578   6.775 -0.1256 -0.9883  1.5330
  182SOPE   H2S20777   0.527   5.564   6.832  0.9742 -1.4494 -1.1946
  182SOPE    C320778   0.312   5.733   6.626  0.9621 -0.7122 -0.0711
  182SOPE    HX20779   0.318   5.625   6.652  0.3762 -1.1020 -1.5101
  182SOPE    HY20780   0.236   5.722   6.546  1.0586 -0.2781 -0.2285
  182SOPE   O3120781   0.278   5.811   6.744  0.4967 -0.3452  0.5885
  182SOPE   C3120782   0.218   5.925   6.704 -0.4363 -0.0217  0.4331
  182SOPE   O3220783   0.192   5.950   6.586  0.2786  0.1578 -0.1116
  182SOPE   C3220784   0.184   6.014   6.820 -0.0533 -0.0805  0.8667
  182SOPE   H2X20785   0.260   6.092   6.845  1.3984 -0.3759 -2.2720
  182SOPE   H2Y20786   0.179   5.952   6.912  3.5472  0.5909  1.6132
  182SOPE   C2320787   0.671   5.657   6.973 -0.4232 -0.1716 -0.5731
  182SOPE   H3R20788   0.591   5.712   7.027  1.1412  0.4071  1.1923
  182SOPE   H3S20789   0.766   5.713   6.962 -0.6278  0.2349 -0.3246
  182SOPE   C2420790   0.696   5.535   7.060 -0.0805  0.4666  0.0154
  182SOPE   H4R20791   0.698   5.574   7.164 -4.6898  0.0734  0.3434
  182SOPE   H4S20792   0.614   5.460   7.056 -1.2297  1.6862  0.3623
  182SOPE   C2520793   0.830   5.481   7.029 -0.3331  0.4167  0.1837
  182SOPE   H5R20794   0.833   5.462   6.919  1.9975  3.2607 -0.2937
  182SOPE   H5S20795   0.917   5.547   7.048 -0.4281  0.5621  0.1174
  182SOPE   C2620796   0.873   5.348   7.106 -0.2248  0.4009 -0.1253
  182SOPE   H6R20797   0.799   5.274   7.070 -0.0330  0.0267  0.2429
  182SOPE   H6S20798   0.976   5.331   7.067  0.8902 -0.2943  2.9664
  182SOPE   C2720799   0.884   5.368   7.260 -0.5114  0.1092 -0.0308
  182SOPE   H7R20800   0.991   5.357   7.287 -0.8195 -2.0141  0.4258
  182SOPE   H7S20801   0.858   5.470   7.296  1.0172  0.2092  0.8270
  182SOPE   C2820802   0.805   5.251   7.321  0.4792  0.3185 -0.0094
  182SOPE   H8R20803   0.822   5.160   7.259 -2.7893  1.3113 -2.5494
  182SOPE   H8S20804   0.847   5.229   7.421  0.9408 -1.4665 -0.5777
  182SOPE   C2920805   0.656   5.274   7.332  0.4617  0.6204 -0.2809
  182SOPE   H9120806   0.619   5.326   7.243  0.7075 -1.5929 -1.7277
  182SOPE  C21020807   0.570   5.236   7.432 -0.2371 -0.2410  0.2304
  182SOPE  H10120808   0.462   5.256   7.427 -0.3082 -0.8441 -1.1095
  182SOPE  C21120809   0.607   5.148   7.550 -0.6254  0.0312 -0.0106
  182SOPE  H11R20810   0.689   5.075   7.533  0.9775  1.2703  2.1083
  182SOPE  H11S20811   0.519   5.091   7.586  0.2914 -1.3703  0.0905
  182SOPE  C21220812   0.641   5.237   7.676 -1.0048  0.0289 -0.1580
  182SOPE  H12R20813   0.549   5.295   7.695  0.0358  1.8369 -0.5186
  182SOPE  H12S20814   0.727   5.306   7.662 -0.0052 -1.1370  0.1054
  182SOPE  C21320815   0.677   5.158   7.803 -0.0541 -0.3372 -0.2187
  182SOPE  H13R20816   0.709   5.225   7.885 -0.8273 -0.8045  0.4662
  182SOPE  H13S20817   0.758   5.087   7.776  0.1979 -0.4735  0.8702
  182SOPE  C21420818   0.542   5.084   7.865  0.2405 -0.8271  0.8341
  182SOPE  H14R20819   0.494   5.016   7.791 -0.3364  0.3866  0.0849
  182SOPE  H14S20820   0.462   5.158   7.886 -1.1249 -0.9197 -3.4763
  182SOPE  C21520821   0.568   5.001   7.996  0.6434  0.6483 -0.0623
  182SOPE  H15R20822   0.633   4.917   7.965 -1.1013 -0.7879  0.0565
  182SOPE  H15S20823   0.470   4.954   8.022  1.3879  0.7880  3.2540
  182SOPE  C21620824   0.621   5.091   8.110  0.1994  0.1256  0.8129
  182SOPE  H16R20825   0.537   5.163   8.125  1.3819  1.5949  0.5296
  182SOPE  H16S20826   0.716   5.138   8.077 -0.2316  1.8855  2.0111
  182SOPE  C21720827   0.646   5.035   8.250  0.8685  0.4798  0.7196
  182SOPE  H17R20828   0.667   5.119   8.321  0.0463  1.6789 -0.4337
  182SOPE  H17S20829   0.735   4.970   8.236 -0.0152 -0.1509 -2.2807
  182SOPE  C21820830   0.529   4.960   8.312 -0.2878 -0.3674 -0.0521
  182SOPE  H18R20831   0.546   4.931   8.418  2.5520 -0.0698 -0.3884
  182SOPE  H18S20832   0.527   4.858   8.267 -0.0984  0.3157 -1.6476
  182SOPE  H18T20833   0.436   5.019   8.314 -0.8665 -1.3095  2.0512
  182SOPE   C3320834   0.043   6.083   6.792  0.3447  1.4206 -0.5208
  182SOPE   H3X20835  -0.035   6.010   6.761 -2.6877  2.0308  5.0250
  182SOPE   H3Y20836   0.044   6.156   6.708 -1.3936  2.4929  0.3421
  182SOPE   C3420837  -0.003   6.164   6.917 -0.0400  0.6755  0.0212
  182SOPE   H4X20838  -0.103   6.205   6.895  0.1148  1.1878  0.2747
  182SOPE   H4Y20839   0.063   6.252   6.926  0.8644  0.0397 -0.3040
  182SOPE   C3520840   0.010   6.094   7.051  0.3481 -0.2613  1.3545
  182SOPE   H5X20841   0.114   6.106   7.088 -0.0186  0.5413  2.1617
  182SOPE   H5Y20842  -0.015   5.986   7.043  1.4586 -0.4795  0.5664
  182SOPE   C3620843  -0.091   6.150   7.151 -0.4684  0.7450  0.2390
  182SOPE   H6X20844  -0.092   6.078   7.235  3.0070 -0.7771 -0.9327
  182SOPE   H6Y20845  -0.189   6.143   7.099  0.5023  3.8553 -2.1931
  182SOPE   C3720846  -0.066   6.291   7.197 -0.1683  0.3307  0.4117
  182SOPE   H7X20847  -0.077   6.347   7.102 -0.1899  3.1995  2.0604
  182SOPE   H7Y20848   0.043   6.297   7.220  0.3864 -1.9011 -1.4633
  182SOPE   C3820849  -0.161   6.335   7.310 -0.6095  0.4766  0.1947
  182SOPE   H8X20850  -0.244   6.261   7.312  0.2277 -0.5470 -1.5883
  182SOPE   H8Y20851  -0.200   6.437   7.289  2.4534  1.8937  1.0917
  182SOPE   C3920852  -0.085   6.345   7.443 -0.4866 -0.0460 -0.1093
  182SOPE   H9X20853  -0.022   6.436   7.434  3.0751 -2.4703 -0.5239
  182SOPE   H9Y20854  -0.019   6.255   7.438 -0.8930 -0.3657  0.2733
  182SOPE  C31020855  -0.178   6.337   7.560  0.6664  0.3952  0.1360
  182SOPE  H10X20856  -0.244   6.249   7.548  2.0668 -0.4946 -1.1603
  182SOPE  H10Y20857  -0.235   6.432   7.567 -2.3740 -1.3619  0.0576
  182SOPE  C31120858  -0.103   6.336   7.700  0.0128  0.2679 -0.1447
  182SOPE  H11X20859  -0.031   6.420   7.704  1.4182 -1.0014  2.7176
  182SOPE  H11Y20860  -0.034   6.249   7.700 -0.9292 -0.4927  1.4363
  182SOPE  C31220861  -0.196   6.349   7.831 -0.0022  0.6668 -0.2840
  182SOPE  H12X20862  -0.279   6.275   7.839  2.1520 -1.7268  0.6327
  182SOPE  H12Y20863  -0.252   6.443   7.847 -2.5792 -0.7477 -0.7212
  182SOPE  C31320864  -0.102   6.341   7.961  0.6678 -0.0671  0.5065
  182SOPE  H13X20865  -0.041   6.433   7.961  0.0013  0.4063 -1.5709
  182SOPE  H13Y20866  -0.034   6.253   7.957 -1.7890 -2.0709  1.0441
  182SOPE  C31420867  -0.185   6.321   8.097 -0.2064 -0.4069  0.6360
  182SOPE  H14X20868  -0.287   6.355   8.068 -0.1179 -2.3489 -2.1678
  182SOPE  H14Y20869  -0.134   6.383   8.174 -0.4598 -0.4029  0.8014
  182SOPE  C31520870  -0.185   6.172   8.140  0.2108  0.1654 -0.5239
  182SOPE  H15X20871  -0.077   6.151   8.154  0.2205  0.4937 -0.0764
  182SOPE  H15Y20872  -0.223   6.109   8.057 -0.7578 -0.1028  0.1150
  182SOPE  C31620873  -0.256   6.144   8.270 -0.1496  0.7454  0.4361
  182SOPE  H16X20874  -0.281   6.037   8.290  1.1745  0.2254 -0.6705
  182SOPE  H16Y20875  -0.355   6.192   8.257 -0.8010 -0.4274  0.9586
  182SOPE  C31720876  -0.183   6.197   8.396  0.1879  0.3857 -0.0050
  182SOPE  H17X20877  -0.183   6.308   8.388 -3.4869  0.2583 -2.8619
  182SOPE  H17Y20878  -0.083   6.148   8.396 -0.8409 -1.8066 -2.4263
  182SOPE  C31820879  -0.254   6.163   8.533  0.1358  0.1577 -0.6093
  182SOPE  H18X20880  -0.357   6.205   8.533 -0.2656 -0.6584  3.2553
  182SOPE  H18Y20881  -0.196   6.207   8.617 -2.1456 -0.2439  1.1997
  182SOPE  H18Z20882  -0.267   6.053   8.546  0.5681  0.2112  0.3453
  183SOPE     N20883   2.712   3.696   6.245  0.5280 -0.0626 -0.7284
  183SOPE   HN120884   2.716   3.789   6.198  1.1610  0.5338  0.4875
  183SOPE   HN220885   2.633   3.642   6.206 -0.3607  0.4008  0.4025
  183SOPE   HN320886   2.696   3.705   6.347 -0.5730  0.6041 -0.9506
  183SOPE   C1220887   2.835   3.628   6.200  0.1470  0.0777  0.5189
  183SOPE  H12A20888   2.848   3.644   6.091 -2.8935 -0.1300  0.0889
  183SOPE  H12B20889   2.823   3.518   6.217  1.6306  0.3568  3.6411
  183SOPE   C1120890   2.954   3.671   6.274  0.0869  0.4371  0.2171
  183SOPE  H11A20891   3.041   3.611   6.238 -1.0247 -0.3467 -1.2007
  183SOPE  H11B20892   2.937   3.646   6.381  0.1039  0.1978  0.1641
  183SOPE     P20893   3.127   3.869   6.242 -0.1545  0.2739 -0.0121
  183SOPE   O1320894   3.124   4.016   6.239 -0.6755  0.0275  0.1231
  183SOPE   O1420895   3.165   3.810   6.114 -0.1321 -0.3658 -0.2868
  183SOPE   O1220896   2.982   3.814   6.282  0.0093 -0.4290 -0.3248
  183SOPE   O1120897   3.230   3.825   6.352 -0.3981 -1.2473 -0.2878
  183SOPE    C120898   3.239   3.702   6.430  0.2830 -0.0183 -0.6453
  183SOPE    HA20899   3.340   3.671   6.465  0.4039 -0.2477 -1.1993
  183SOPE    HB20900   3.204   3.614   6.373 -1.3813 -2.3842  3.7593
  183SOPE    C220901   3.154   3.725   6.561  0.5916 -0.4924 -0.8003
  183SOPE    HS20902   3.055   3.763   6.528  0.3838  1.3438  1.8228
  183SOPE   O2120903   3.220   3.837   6.631 -0.1881  0.0224 -0.0821
  183SOPE   C2120904   3.150   3.926   6.700  0.4853  0.6155  0.5564
  183SOPE   O2220905   3.031   3.931   6.726 -0.0845 -0.5713 -0.0574
  183SOPE   C2220906   3.252   4.024   6.757 -0.2090  0.0689  0.4950
  183SOPE   H2R20907   3.313   4.071   6.677  1.8737 -0.8229  1.4994
  183SOPE   H2S20908   3.323   3.964   6.820 -1.0017  1.6233  2.9264
  183SOPE    C320909   3.155   3.599   6.651 -0.5715  0.4363  0.0974
  183SOPE    HX20910   3.259   3.571   6.675 -1.3733 -1.6762  1.2140
  183SOPE    HY20911   3.102   3.521   6.592 -1.4265 -0.8323  2.4717
  183SOPE   O3120912   3.091   3.618   6.779  0.3797  0.0060  0.2872
  183SOPE   C3120913   2.952   3.608   6.771 -0.3476 -1.0378 -0.9059
  183SOPE   O3220914   2.888   3.598   6.672 -0.5485  0.1913 -0.1690
  183SOPE   C3220915   2.888   3.619   6.917 -0.4981 -0.5529  0.0532
  183SOPE   H2X20916   2.915   3.528   6.975  0.5064 -0.2880  0.0208
  183SOPE   H2Y20917   2.778   3.613   6.907 -0.4830  0.0749 -0.5117
  183SOPE   C2320918   3.191   4.134   6.847 -0.2802 -0.1451 -0.0796
  183SOPE   H3R20919   3.091   4.173   6.820  0.4487  1.3616 -0.6497
  183SOPE   H3S20920   3.249   4.229   6.845  0.1276 -0.3781  0.3723
  183SOPE   C2420921   3.194   4.097   6.998 -0.9154 -0.3020  0.6625
  183SOPE   H4R20922   3.138   4.173   7.057  0.6492  1.2398  0.1769
  183SOPE   H4S20923   3.142   3.999   7.004 -2.4545  0.2263 -2.9870
  183SOPE   C2520924   3.331   4.087   7.066 -0.1302  0.0817  0.0432
  183SOPE   H5R20925   3.391   4.001   7.029  0.9710 -0.5237  3.0595
  183SOPE   H5S20926   3.382   4.184   7.044  1.6718 -0.9062 -0.2366
  183SOPE   C2620927   3.320   4.076   7.220 -0.3077 -0.3895  0.9606
  183SOPE   H6R20928   3.255   4.153   7.266  0.3282  0.1193  1.0047
  183SOPE   H6S20929   3.284   3.974   7.249 -2.0581  1.0699  4.1610
  183SOPE   C2720930   3.458   4.085   7.290 -0.0655  0.3876 -0.3642
  183SOPE   H7R20931   3.528   4.025   7.228  0.9813  3.5149 -2.3302
  183SOPE   H7S20932   3.497   4.188   7.278 -2.3949  1.6367  2.1450
  183SOPE   C2820933   3.456   4.033   7.430 -0.0687 -0.2918  0.2288
  183SOPE   H8R20934   3.551   4.055   7.483  0.9475 -0.0173 -1.6644
  183SOPE   H8S20935   3.377   4.090   7.484 -0.5956  0.4432 -1.2855
  183SOPE   C2920936   3.417   3.893   7.445  0.1987 -0.5370  0.3714
  183SOPE   H9120937   3.438   3.822   7.364  2.4939  1.3789 -0.7610
  183SOPE  C21020938   3.351   3.838   7.545 -1.0599  0.7314 -0.2232
  183SOPE  H10120939   3.326   3.731   7.542 -0.5642  0.6162 -0.2420
  183SOPE  C21120940   3.305   3.918   7.664  0.5045 -1.1744 -0.0239
  183SOPE  H11R20941   3.199   3.891   7.685 -0.4258  1.5680 -0.9939
  183SOPE  H11S20942   3.307   4.029   7.659  0.1197 -1.1575  0.1796
  183SOPE  C21220943   3.385   3.893   7.798 -0.5448 -0.2464 -0.4524
  183SOPE  H12R20944   3.414   3.786   7.800  1.4956  0.2525 -2.5611
  183SOPE  H12S20945   3.308   3.924   7.872 -1.4103 -1.1286 -0.9709
  183SOPE  C21320946   3.504   3.983   7.816 -0.3226  0.0470 -0.0641
  183SOPE  H13R20947   3.483   4.091   7.826  1.3165  0.1531  2.7445
  183SOPE  H13S20948   3.559   3.966   7.721 -1.8677 -4.3749 -0.2999
  183SOPE  C21420949   3.587   3.941   7.937  0.2694 -0.4560  0.5171
  183SOPE  H14R20950   3.664   3.869   7.903  1.8527  1.2934  0.3127
  183SOPE  H14S20951   3.525   3.879   8.007 -3.5863 -0.1980 -2.5030
  183SOPE  C21520952   3.633   4.059   8.023  0.4545  0.7914 -0.5470
  183SOPE  H15R20953   3.549   4.119   8.063  0.3102 -0.0907  0.4981
  183SOPE  H15S20954   3.700   4.124   7.963  0.2885  0.8103 -0.7097
  183SOPE  C21620955   3.714   4.026   8.151  0.2023 -0.6620  0.0442
  183SOPE  H16R20956   3.754   4.121   8.193 -1.5854 -0.4089  1.2100
  183SOPE  H16S20957   3.806   3.971   8.121 -0.3572 -1.8243  0.3988
  183SOPE  C21720958   3.648   3.949   8.265  0.2669 -0.7926  0.8266
  183SOPE  H17R20959   3.725   3.920   8.340  0.6590  0.6894  1.0082
  183SOPE  H17S20960   3.607   3.856   8.220 -0.3601  1.3076 -3.1428
  183SOPE  C21820961   3.542   4.031   8.337 -0.1583 -0.0965  0.1324
  183SOPE  H18R20962   3.528   3.978   8.434  2.9629 -1.6545 -0.1784
  183SOPE  H18S20963   3.458   4.026   8.264  0.8633 -0.2768 -1.0528
  183SOPE  H18T20964   3.583   4.134   8.343 -3.0257  1.1678 -1.2163
  183SOPE   C3320965   2.931   3.750   6.992  0.0841  0.2271 -0.6658
  183SOPE   H3X20966   2.859   3.829   6.963 -1.5318 -1.2801 -0.9027
  183SOPE   H3Y20967   3.039   3.770   6.974  0.4719 -0.7142  0.5396
  183SOPE   C3420968   2.919   3.731   7.144  0.6719  0.1231 -0.4539
  183SOPE   H4X20969   2.987   3.649   7.177 -0.4627 -0.9607 -0.7808
  183SOPE   H4Y20970   2.819   3.696   7.177  1.0736  1.3175  2.1502
  183SOPE   C3520971   2.959   3.859   7.237 -0.8732 -0.0934 -0.5326
  183SOPE   H5X20972   2.881   3.935   7.216 -0.6409 -0.0384 -1.2015
  183SOPE   H5Y20973   3.058   3.907   7.223 -0.7261 -0.6378 -1.3677
  183SOPE   C3620974   2.969   3.823   7.387  0.0521 -0.3562  0.2032
  183SOPE   H6X20975   3.044   3.742   7.394  2.3578  1.5769 -1.4435
  183SOPE   H6Y20976   2.878   3.766   7.417  0.6504 -1.2200  0.4001
  183SOPE   C3720977   3.026   3.932   7.478  0.0012  0.3651 -0.5012
  183SOPE   H7X20978   3.116   3.972   7.427  0.5370 -1.0535 -0.7043
  183SOPE   H7Y20979   3.054   3.880   7.573  1.3173  2.6625  0.3944
  183SOPE   C3820980   2.931   4.045   7.511 -0.2031  0.0489  0.2210
  183SOPE   H8X20981   2.827   4.012   7.529  0.7245 -2.5445  0.9902
  183SOPE   H8Y20982   2.939   4.122   7.431  0.0152 -0.9114 -0.6954
  183SOPE   C3920983   2.984   4.110   7.641 -0.8363  0.2235  0.3295
  183SOPE   H9X20984   2.946   4.214   7.644 -2.4793 -0.3295 -0.6718
  183SOPE   H9Y20985   3.094   4.124   7.633 -0.6056 -0.1807  2.5362
  183SOPE  C31020986   2.956   4.032   7.772  0.1566 -0.4286  0.5486
  183SOPE  H10X20987   2.990   3.926   7.763  0.3595 -0.3456  0.3246
  183SOPE  H10Y20988   2.847   4.022   7.788  0.6193 -1.9355  3.0545
  183SOPE  C31120989   3.023   4.095   7.899 -0.1940 -0.0991  0.2313
  183SOPE  H11X20990   2.997   4.202   7.911  1.2686  0.5919 -2.3780
  183SOPE  H11Y20991   3.134   4.090   7.885  0.0992  1.3090  1.9268
  183SOPE  C31220992   2.986   4.017   8.022 -0.0747  0.1230 -0.4228
  183SOPE  H12X20993   3.014   3.912   8.002  0.5144 -0.1939  1.9767
  183SOPE  H12Y20994   2.877   4.004   8.041 -0.0194 -1.9688 -1.3766
  183SOPE  C31320995   3.061   4.044   8.157  0.3577 -0.6913  0.2767
  183SOPE  H13X20996   3.027   4.132   8.216  1.0732 -0.3777  0.2251
  183SOPE  H13Y20997   3.164   4.066   8.123 -0.4973 -0.4994 -2.3432
  183SOPE  C31420998   3.063   3.917   8.237  0.1092  0.2788 -0.3114
  183SOPE  H14X20999   3.144   3.925   8.312  1.7607  1.5049 -2.1948
  183SOPE  H14Y21000   3.093   3.834   8.170 -0.4335 -0.8522  0.8233
  183SOPE  C31521001   2.923   3.894   8.301  1.0808 -0.4459 -0.0247
  183SOPE  H15X21002   2.849   3.878   8.220  0.6370 -1.4863  0.5788
  183SOPE  H15Y21003   2.891   3.993   8.340 -0.1035 -0.7481 -0.1961
  183SOPE  C31621004   2.913   3.791   8.412  0.0874  0.7296  1.0874
  183SOPE  H16X21005   2.811   3.785   8.456 -1.3006  0.8776 -1.9830
  183SOPE  H16Y21006   2.985   3.823   8.490  1.9140  1.9593 -1.0344
  183SOPE  C31721007   2.941   3.653   8.353 -0.2437  0.8152  0.0530
  183SOPE  H17X21008   3.049   3.627   8.355 -0.2451  0.4415 -2.9181
  183SOPE  H17Y21009   2.908   3.644   8.247 -1.1051 -1.7751  0.5021
  183SOPE  C31821010   2.872   3.538   8.421  0.8084 -0.6568 -0.1306
  183SOPE  H18X21011   2.765   3.551   8.393  1.3425 -0.9515 -2.4170
  183SOPE  H18Y21012   2.896   3.533   8.530  2.5705  3.0075 -0.2675
  183SOPE  H18Z21013   2.897   3.442   8.371 -2.4795 -1.1085 -1.0053
  184SOPE     N21014   2.871   4.138   6.309  0.5531 -0.1426  0.0692
  184SOPE   HN121015   2.967   4.103   6.292  1.1820  1.2028  0.7541
  184SOPE   HN221016   2.797   4.108   6.243  2.9930 -0.7192 -2.4910
  184SOPE   HN321017   2.878   4.241   6.315 -2.6442  0.0482  2.1772
  184SOPE   C1221018   2.815   4.085   6.436 -0.1051  0.5810 -0.8417
  184SOPE  H12A21019   2.872   4.131   6.519 -1.6885 -0.9597  1.1325
  184SOPE  H12B21020   2.824   3.975   6.439  1.1925  0.5485 -3.7548
  184SOPE   C1121021   2.665   4.116   6.440 -0.1434  0.0772  0.4168
  184SOPE  H11A21022   2.663   4.219   6.481 -0.5675  0.6828 -1.1024
  184SOPE  H11B21023   2.600   4.046   6.498 -0.3922  0.9119  1.1615
  184SOPE     P21024   2.545   4.015   6.232  0.3640  0.4095  0.2338
  184SOPE   O1321025   2.655   3.956   6.143  0.0918 -0.0089  0.1701
  184SOPE   O1421026   2.422   4.069   6.164  0.0013  0.0795  0.0455
  184SOPE   O1221027   2.612   4.128   6.305 -0.3790  0.1605  0.1004
  184SOPE   O1121028   2.487   3.908   6.334 -0.1344 -0.1664  0.4111
  184SOPE    C121029   2.352   3.882   6.354 -1.0155  0.6836  0.0455
  184SOPE    HA21030   2.343   3.772   6.367 -1.1546  0.6929  0.0350
  184SOPE    HB21031   2.287   3.904   6.267 -1.4603 -1.5932 -0.2284
  184SOPE    C221032   2.320   3.957   6.485 -0.6210 -0.4386  0.4014
  184SOPE    HS21033   2.356   4.062   6.487  2.1074 -1.3214  0.1065
  184SOPE   O2121034   2.373   3.886   6.604 -0.0181  0.5890 -0.7123
  184SOPE   C2121035   2.392   3.965   6.712 -0.6737 -0.3780 -1.0522
  184SOPE   O2221036   2.382   4.086   6.720  0.2529 -0.3845 -0.5359
  184SOPE   C2221037   2.400   3.868   6.825  0.2195  0.3816  0.0809
  184SOPE   H2R21038   2.464   3.783   6.792 -0.9301 -0.1937 -0.7168
  184SOPE   H2S21039   2.297   3.830   6.841 -0.4309  1.8723 -0.4586
  184SOPE    C321040   2.164   3.947   6.496 -0.0894  0.8059 -0.1860
  184SOPE    HX21041   2.156   3.836   6.498 -1.7596  0.9122  3.5866
  184SOPE    HY21042   2.108   3.987   6.409 -0.9060  3.2328  1.4020
  184SOPE   O3121043   2.115   4.011   6.613  0.0587 -0.9939  0.0815
  184SOPE   C3121044   2.051   3.938   6.695  0.7057  0.1288  0.4460
  184SOPE   O3221045   2.022   3.816   6.685 -0.1935 -0.2267 -0.1474
  184SOPE   C3221046   2.014   4.025   6.814 -0.2064 -0.8227 -0.2491
  184SOPE   H2X21047   1.936   4.095   6.775  0.3111 -0.1964 -0.1620
  184SOPE   H2Y21048   2.104   4.076   6.855 -1.6943  1.8510 -0.1912
  184SOPE   C2321049   2.457   3.927   6.955 -0.7848 -0.5749 -0.4830
  184SOPE   H3R21050   2.402   4.019   6.984 -1.5698 -1.0946 -0.2765
  184SOPE   H3S21051   2.561   3.961   6.941 -0.2483 -2.3243 -0.8473
  184SOPE   C2421052   2.447   3.839   7.081  0.3000 -0.3242  0.1274
  184SOPE   H4R21053   2.353   3.779   7.080 -0.5544  0.9932 -0.3728
  184SOPE   H4S21054   2.533   3.770   7.090  1.2612  1.0712  2.0668
  184SOPE   C2521055   2.458   3.925   7.206  0.3925 -0.0280  0.0442
  184SOPE   H5R21056   2.549   3.988   7.203  0.5414 -0.2974 -1.8909
  184SOPE   H5S21057   2.375   3.998   7.213  1.3279  0.8563  2.4302
  184SOPE   C2621058   2.459   3.843   7.338  0.7336  0.8402 -0.5575
  184SOPE   H6R21059   2.368   3.779   7.346  0.6129  1.0151 -0.5494
  184SOPE   H6S21060   2.542   3.769   7.336  1.1267  1.2915 -1.6258
  184SOPE   C2721061   2.497   3.927   7.457  0.3142  0.2714  0.5930
  184SOPE   H7R21062   2.606   3.949   7.466  0.0921  1.9106 -0.4056
  184SOPE   H7S21063   2.447   4.026   7.449  0.6791  0.6250  2.4886
  184SOPE   C2821064   2.456   3.866   7.592  0.2314 -0.4690 -0.3891
  184SOPE   H8R21065   2.442   3.945   7.669 -0.7663 -0.5597 -0.4691
  184SOPE   H8S21066   2.350   3.835   7.587  0.2356 -0.6402  0.4419
  184SOPE   C2921067   2.558   3.769   7.647  0.3379 -0.3991 -0.2517
  184SOPE   H9121068   2.572   3.684   7.577  1.2406 -0.1263 -0.4118
  184SOPE  C21021069   2.617   3.772   7.762 -0.0607  0.1510  0.2730
  184SOPE  H10121070   2.686   3.692   7.794  0.1534  1.3819  3.0621
  184SOPE  C21121071   2.609   3.877   7.865  0.3564 -0.1520  0.4518
  184SOPE  H11R21072   2.547   3.960   7.824 -2.0382 -2.3720 -0.5424
  184SOPE  H11S21073   2.713   3.904   7.896 -0.3212  1.4424  1.4257
  184SOPE  C21221074   2.537   3.821   7.990  0.9667 -0.0638  0.3743
  184SOPE  H12R21075   2.433   3.859   7.994  1.1017  0.5122 -1.1264
  184SOPE  H12S21076   2.578   3.872   8.080  1.2560 -0.3239  0.3899
  184SOPE  C21321077   2.545   3.672   8.033 -0.2289  0.3404  0.1895
  184SOPE  H13R21078   2.509   3.598   7.958 -0.4904  0.6753 -0.0166
  184SOPE  H13S21079   2.477   3.668   8.121  0.2734  0.3850  0.5820
  184SOPE  C21421080   2.684   3.617   8.076  0.3047 -0.1550  0.0388
  184SOPE  H14R21081   2.717   3.669   8.169  0.9184 -3.3683  1.7040
  184SOPE  H14S21082   2.754   3.634   7.991  1.6428 -1.3271  0.8775
  184SOPE  C21521083   2.688   3.457   8.100  0.2521  0.2163 -0.1717
  184SOPE  H15R21084   2.793   3.435   8.131  1.4522  0.5820 -3.6589
  184SOPE  H15S21085   2.676   3.413   7.998  3.4479  1.3073 -1.0944
  184SOPE  C21621086   2.578   3.415   8.198  0.5122 -1.3165  0.1771
  184SOPE  H16R21087   2.483   3.452   8.152  1.3742  0.6160 -0.0997
  184SOPE  H16S21088   2.576   3.465   8.297 -0.0827 -0.5550 -0.2110
  184SOPE  C21721089   2.579   3.261   8.225  0.2444 -0.2688  0.3216
  184SOPE  H17R21090   2.584   3.215   8.125 -3.1276 -0.0743 -0.0063
  184SOPE  H17S21091   2.478   3.237   8.264  0.9657  0.1623  2.5742
  184SOPE  C21821092   2.685   3.211   8.327 -0.0833  0.7764 -0.0644
  184SOPE  H18R21093   2.671   3.101   8.326 -0.1716  0.7885 -0.1140
  184SOPE  H18S21094   2.672   3.238   8.434 -1.2176 -2.7642  0.7666
  184SOPE  H18T21095   2.791   3.222   8.293  0.7365  1.2541  2.5637
  184SOPE   C3321096   1.968   3.949   6.941 -0.1382 -0.0291  0.2154
  184SOPE   H3X21097   2.021   3.853   6.957 -0.1537 -0.0432  0.1823
  184SOPE   H3Y21098   1.864   3.913   6.923  0.5145 -0.8248 -2.1496
  184SOPE   C3421099   1.982   4.037   7.063  0.3418  0.2402  0.9937
  184SOPE   H4X21100   1.901   4.114   7.066  1.0935  1.1082 -0.4167
  184SOPE   H4Y21101   2.081   4.087   7.051  1.4628 -2.6415 -2.6575
  184SOPE   C3521102   1.988   3.956   7.192 -0.8047 -0.1644  0.3188
  184SOPE   H5X21103   2.085   3.904   7.199 -0.3962  0.7535  1.7479
  184SOPE   H5Y21104   1.911   3.876   7.185 -0.7073 -0.1516 -0.9525
  184SOPE   C3621105   1.983   4.036   7.324  0.2413  0.3001  0.3721
  184SOPE   H6X21106   1.887   4.091   7.322  0.2025  0.2091 -0.6456
  184SOPE   H6Y21107   2.071   4.103   7.318  0.8647 -0.2541  2.7181
  184SOPE   C3721108   1.986   3.945   7.442 -0.0965 -0.1075 -0.3647
  184SOPE   H7X21109   2.091   3.914   7.461 -0.7429 -1.9802  0.2670
  184SOPE   H7Y21110   1.916   3.861   7.425 -0.2326  0.4414 -2.6964
  184SOPE   C3821111   1.950   4.021   7.571  0.6226  0.2040  0.2064
  184SOPE   H8X21112   1.842   4.044   7.582  0.0885 -2.3513  0.5508
  184SOPE   H8Y21113   1.999   4.121   7.561 -1.0995  1.0226 -0.2416
  184SOPE   C3921114   1.989   3.947   7.704  0.2435 -0.0055 -0.0319
  184SOPE   H9X21115   2.091   3.904   7.693  0.0707 -0.4557  0.1144
  184SOPE   H9Y21116   1.921   3.860   7.693  0.8928 -0.2582 -2.3689
  184SOPE  C31021117   1.984   4.031   7.833  0.3014 -0.1205  0.1303
  184SOPE  H10X21118   1.880   4.068   7.842  0.2185 -0.5277  0.8662
  184SOPE  H10Y21119   2.047   4.122   7.821 -1.2608  1.1743  1.5205
  184SOPE  C31121120   2.033   3.955   7.955  0.4986  0.0214 -0.7228
  184SOPE  H11X21121   2.141   3.932   7.948  0.9073  1.2045  1.2067
  184SOPE  H11Y21122   1.972   3.862   7.963 -2.2073  1.6121 -2.2490
  184SOPE  C31221123   2.001   4.041   8.085  0.0707 -0.6053  0.3595
  184SOPE  H12X21124   1.894   4.067   8.070 -0.0023 -0.5150  1.0006
  184SOPE  H12Y21125   2.051   4.140   8.074 -1.8313  0.6919  2.8529
  184SOPE  C31321126   2.025   3.964   8.218 -0.2011 -0.8665  0.0209
  184SOPE  H13X21127   2.133   3.950   8.236  0.0622 -0.7419 -1.4078
  184SOPE  H13Y21128   1.977   3.864   8.205 -1.6239 -0.1071 -0.7373
  184SOPE  C31421129   1.950   4.015   8.338  0.0095  0.4608  0.3534
  184SOPE  H14X21130   1.940   3.939   8.418  0.0274  1.3240  1.1902
  184SOPE  H14Y21131   1.852   4.048   8.297  0.1922 -0.7863 -1.1048
  184SOPE  C31521132   2.020   4.137   8.400  0.1568 -0.3289  0.1277
  184SOPE  H15X21133   2.044   4.219   8.330 -2.1152 -1.2235 -1.7966
  184SOPE  H15Y21134   2.117   4.115   8.449 -1.2290  0.5421  3.4491
  184SOPE  C31621135   1.929   4.195   8.518  0.1734  0.8834  0.0745
  184SOPE  H16X21136   1.893   4.105   8.571 -0.4501  0.1897 -1.5049
  184SOPE  H16Y21137   1.845   4.257   8.479 -2.9103 -2.8964  0.4149
  184SOPE  C31721138   2.022   4.271   8.614 -0.8473 -0.4852 -0.5166
  184SOPE  H17X21139   2.078   4.349   8.558  0.4437  0.4594  1.9815
  184SOPE  H17Y21140   2.097   4.195   8.645  2.4598  1.8116 -2.5706
  184SOPE  C31821141   1.966   4.320   8.754 -0.3411 -0.5696 -0.0889
  184SOPE  H18X21142   2.043   4.348   8.828 -4.1255  2.4107  2.9069
  184SOPE  H18Y21143   1.892   4.246   8.792  0.5663 -0.1641  2.5902
  184SOPE  H18Z21144   1.904   4.410   8.734  2.5937  1.0981 -2.0262
  185SAPI   C1221145   5.943   0.492  10.714  0.2423  0.1972 -0.3779
  185SAPI    H221146   5.940   0.424  10.802  3.2353  0.1442 -0.2957
  185SAPI    O221147   6.053   0.588  10.737 -0.3277  0.0770 -0.5867
  185SAPI   HO221148   6.111   0.538  10.795 -1.4407 -0.5215  0.0307
  185SAPI   C1321149   5.968   0.409  10.587  0.2868  0.8307  0.0189
  185SAPI    H321150   5.886   0.336  10.575  1.5712 -0.7310  0.5170
  185SAPI    O321151   6.087   0.325  10.607  0.7301  0.3479 -0.1357
  185SAPI   HO321152   6.168   0.358  10.568  0.9938 -1.0372 -0.7789
  185SAPI   C1421153   5.981   0.498  10.455 -0.0382 -0.6814  0.0620
  185SAPI    H421154   6.068   0.567  10.453  0.2412 -1.0530 -1.0763
  185SAPI    O421155   5.996   0.416  10.336 -0.0697 -0.1908  0.0747
  185SAPI   HO421156   5.965   0.471  10.263 -1.5381 -0.2754  0.6180
  185SAPI   C1521157   5.850   0.573  10.452  0.5745  0.1622 -0.5359
  185SAPI    H521158   5.769   0.498  10.440  3.4350 -3.4379  1.2656
  185SAPI    O521159   5.847   0.654  10.336 -0.6188 -0.1544  0.2991
  185SAPI   HO521160   5.848   0.745  10.366 -0.0618  0.6405 -2.0601
  185SAPI   C1621161   5.812   0.651  10.577  0.2687  0.1547 -0.3910
  185SAPI    H621162   5.891   0.728  10.589 -0.6907  1.1061 -0.0133
  185SAPI    O621163   5.681   0.702  10.559 -0.4630  0.1907  0.0308
  185SAPI   HO621164   5.615   0.651  10.608 -0.9275 -0.4457 -1.2382
  185SAPI   C1121165   5.813   0.565  10.701  0.0557 -0.1794 -0.0789
  185SAPI    H121166   5.736   0.489  10.673 -0.6609  0.1569  0.9394
  185SAPI     P21167   5.688   0.529  10.947  0.2352 -0.3411 -0.0330
  185SAPI   O1321168   5.724   0.577  11.081 -0.0794  0.0708  0.5786
  185SAPI   O1421169   5.715   0.387  10.923 -0.1751 -0.2299 -0.6936
  185SAPI   O1221170   5.763   0.621  10.827  0.3053 -0.0454 -0.5093
  185SAPI   O1121171   5.531   0.541  10.935 -0.5895  0.6632 -0.4667
  185SAPI    C121172   5.469   0.651  10.872  0.0419 -0.6257  0.1653
  185SAPI    HA21173   5.410   0.711  10.945  2.2636  1.4038  0.3619
  185SAPI    HB21174   5.536   0.726  10.824  0.9424 -1.3181  0.3247
  185SAPI    C221175   5.374   0.599  10.763  0.4979 -0.6738 -0.3899
  185SAPI    HS21176   5.305   0.525  10.808 -1.6204  0.5117 -1.5993
  185SAPI   O2121177   5.450   0.526  10.657 -0.0007  0.5299 -0.7097
  185SAPI   C2121178   5.378   0.471  10.573 -0.3003  0.6385 -0.3883
  185SAPI   O2221179   5.257   0.452  10.575 -0.1538 -0.6249 -0.5810
  185SAPI   C2221180   5.469   0.426  10.455 -0.3709  0.4224  0.2003
  185SAPI   H2R21181   5.514   0.516  10.407  1.0853  0.2095  1.1353
  185SAPI   H2S21182   5.554   0.368  10.496 -1.1564 -1.1152 -0.3298
  185SAPI    C321183   5.281   0.717  10.710  0.1814 -0.1923  0.3471
  185SAPI    HX21184   5.239   0.774  10.795 -0.0134 -0.4422  0.4159
  185SAPI    HY21185   5.201   0.673  10.647 -1.3623  1.4653  1.1068
  185SAPI   O3121186   5.368   0.806  10.632 -0.2166  0.2407 -0.1324
  185SAPI   C3121187   5.321   0.922  10.593 -0.5882 -0.0805 -0.5065
  185SAPI   O3221188   5.205   0.961  10.606 -0.4694  0.3339 -0.1813
  185SAPI   C3221189   5.430   0.996  10.532 -0.4338  0.1211  0.1582
  185SAPI   H2X21190   5.526   0.962  10.577 -0.8164  1.1062  1.7278
  185SAPI   H2Y21191   5.407   1.102  10.557 -1.8621 -0.7971  2.8732
  185SAPI   C2321192   5.383   0.346  10.359 -0.0698  0.4112  0.2440
  185SAPI   H3R21193   5.294   0.404  10.328  0.8469  2.5465  1.4685
  185SAPI   H3S21194   5.352   0.251  10.406  1.3750  0.8788  2.1983
  185SAPI   C2421195   5.457   0.329  10.224  0.8654  0.9259  0.0013
  185SAPI   H4R21196   5.488   0.423  10.174  3.3001  0.5155  0.6428
  185SAPI   H4S21197   5.377   0.283  10.163  1.3249 -2.1489  1.5955
  185SAPI   C2521198   5.583   0.248  10.219  0.2712 -0.6685 -0.2347
  185SAPI   H5R21199   5.594   0.171  10.296  3.1377  0.1276  0.2180
  185SAPI   C2621200   5.688   0.242  10.134  1.2868  0.3498  0.1042
  185SAPI   H6R21201   5.773   0.176  10.156  2.1346  1.8295  1.2975
  185SAPI   C2721202   5.687   0.328  10.013 -0.0218  0.5232  0.0535
  185SAPI   H7R21203   5.605   0.399   9.991 -0.6983 -0.7542 -1.6903
  185SAPI   H7S21204   5.691   0.252   9.932  4.4394  0.4927  0.1427
  185SAPI   C2821205   5.813   0.411   9.997  0.0761  0.8881 -0.1710
  185SAPI   H8R21206   5.863   0.426  10.093 -2.4018 -1.9168  1.6565
  185SAPI   C2921207   5.866   0.449   9.877 -0.3679  0.1470  0.1691
  185SAPI   H9R21208   5.963   0.500   9.882  0.0883 -0.8085  1.6369
  185SAPI  C21021209   5.805   0.423   9.746 -0.3128  0.3206  0.4152
  185SAPI  H10R21210   5.698   0.391   9.755 -0.5521  1.3119  1.1686
  185SAPI  H10S21211   5.860   0.337   9.702 -0.7184  1.0963 -1.6826
  185SAPI  C21121212   5.819   0.550   9.660  0.7664 -0.1856 -0.5041
  185SAPI  H11R21213   5.825   0.644   9.717 -0.8022 -0.7700  0.6780
  185SAPI  C21221214   5.821   0.546   9.529  0.7363 -0.4013  0.5483
  185SAPI  H12R21215   5.814   0.645   9.482  0.4930 -0.9794 -0.6376
  185SAPI  C21321216   5.821   0.423   9.446 -0.3657 -0.4111  0.6781
  185SAPI  H13R21217   5.721   0.404   9.401  0.5798 -0.4005 -1.4803
  185SAPI  H13S21218   5.855   0.332   9.500  0.1198 -0.6576 -0.0385
  185SAPI  C21421219   5.915   0.450   9.333 -0.1571  0.1474  0.4261
  185SAPI  H14R21220   6.019   0.423   9.356 -0.5740 -1.5633  0.3955
  185SAPI  C21521221   5.877   0.491   9.209  0.0050  0.2308  0.0755
  185SAPI  H15R21222   5.963   0.512   9.143  0.2998 -2.1989 -0.3810
  185SAPI  C21621223   5.734   0.516   9.156  0.3421 -0.3663  0.0299
  185SAPI  H16R21224   5.718   0.621   9.125 -2.9965 -0.6952  0.4817
  185SAPI  H16S21225   5.662   0.491   9.238  1.1629  0.9881  1.1877
  185SAPI  C21721226   5.693   0.422   9.042  0.7355  0.4709  0.9778
  185SAPI  H17R21227   5.600   0.467   9.001 -0.4657 -1.1592  1.8632
  185SAPI  H17S21228   5.691   0.315   9.072  1.6231 -0.1975 -1.2035
  185SAPI  C21821229   5.800   0.431   8.931 -0.1094  0.3764  0.6398
  185SAPI  H18R21230   5.887   0.366   8.958  1.0803  1.7897  0.2837
  185SAPI  H18S21231   5.839   0.535   8.925  1.7878 -0.3651 -0.6911
  185SAPI  C21921232   5.750   0.397   8.790 -0.0791 -0.0333 -0.2912
  185SAPI  H19R21233   5.657   0.455   8.771  0.5998  0.8047 -1.0759
  185SAPI  H19S21234   5.714   0.292   8.795 -1.8258  0.5142 -0.8097
  185SAPI  C22021235   5.850   0.404   8.681 -0.0058 -0.2411  0.3042
  185SAPI  H20R21236   5.811   0.360   8.586 -0.8280 -1.0585  1.0088
  185SAPI  H20S21237   5.939   0.345   8.712  0.7496  1.1222  0.7163
  185SAPI  H20T21238   5.884   0.507   8.662 -0.3776 -0.1439  0.1484
  185SAPI   C3321239   5.426   0.983  10.380 -0.5923  0.5933 -0.2700
  185SAPI   H3X21240   5.516   1.038  10.346 -0.5710 -0.2710 -1.6995
  185SAPI   H3Y21241   5.335   1.002  10.320 -1.0317 -0.3503  0.0870
  185SAPI   C3421242   5.452   0.845  10.322 -0.4933 -0.4147 -0.1384
  185SAPI   H4X21243   5.365   0.776  10.328 -0.1791 -0.6443  2.4543
  185SAPI   H4Y21244   5.545   0.811  10.373 -1.8643  0.3032  2.8933
  185SAPI   C3521245   5.489   0.842  10.172  0.1664 -0.0796  0.3037
  185SAPI   H5X21246   5.549   0.928  10.134  2.3350 -0.4879  2.6660
  185SAPI   H5Y21247   5.394   0.857  10.116 -0.9587  1.4007  2.5183
  185SAPI   C3621248   5.549   0.711  10.123  0.8145  0.4227  0.7865
  185SAPI   H6X21249   5.486   0.627  10.160 -1.6393  2.0450  0.4213
  185SAPI   H6Y21250   5.653   0.697  10.158  1.1910  1.1975 -0.0073
  185SAPI   C3721251   5.553   0.689   9.968  0.5059 -0.7260  0.6818
  185SAPI   H7X21252   5.604   0.596   9.934 -0.3512 -0.0736 -2.4884
  185SAPI   H7Y21253   5.622   0.761   9.920  2.1732 -2.6056  0.1996
  185SAPI   C3821254   5.414   0.698   9.899 -0.3854  0.1458 -0.1324
  185SAPI   H8X21255   5.360   0.789   9.931  0.3508  0.2098  0.9501
  185SAPI   H8Y21256   5.350   0.612   9.928  0.9772 -1.6848 -2.3640
  185SAPI   C3921257   5.447   0.689   9.749 -0.2826 -0.7705  0.0032
  185SAPI   H9X21258   5.499   0.594   9.724 -1.7387 -1.6623  0.2854
  185SAPI   H9Y21259   5.513   0.773   9.719 -1.6398  0.4361  0.3575
  185SAPI  C31021260   5.322   0.695   9.660  0.1936  0.5369  0.3310
  185SAPI  H10X21261   5.271   0.793   9.672 -1.7806 -0.2437 -1.4114
  185SAPI  H10Y21262   5.254   0.615   9.697  0.3882  0.4120  0.4165
  185SAPI  C31121263   5.342   0.687   9.512  0.4225  0.0560  0.7536
  185SAPI  H11X21264   5.238   0.675   9.475  0.3959 -2.7031  1.5917
  185SAPI  H11Y21265   5.390   0.591   9.482  2.9862  1.5674 -0.1412
  185SAPI  C31221266   5.417   0.801   9.452 -0.3967  0.0073 -0.1639
  185SAPI  H12X21267   5.509   0.806   9.514  0.3942 -1.6554 -1.1631
  185SAPI  H12Y21268   5.358   0.895   9.460  1.0588  0.9642 -0.4209
  185SAPI  C31321269   5.455   0.768   9.307  0.1170 -0.0942  0.1995
  185SAPI  H13X21270   5.525   0.682   9.303  2.1506  1.5851 -2.7146
  185SAPI  H13Y21271   5.503   0.862   9.271 -3.1310  1.0943 -1.2573
  185SAPI  C31421272   5.343   0.754   9.211 -0.6561 -0.6819 -0.4547
  185SAPI  H14X21273   5.283   0.846   9.228 -1.5999 -1.5228  0.8890
  185SAPI  H14Y21274   5.272   0.673   9.241 -1.5406  0.5620  0.8777
  185SAPI  C31521275   5.391   0.744   9.062 -0.2746  0.7766 -0.1350
  185SAPI  H15X21276   5.463   0.660   9.060 -2.0008 -0.7279 -0.4830
  185SAPI  H15Y21277   5.444   0.838   9.034  1.3358  0.2572  1.1293
  185SAPI  C31621278   5.273   0.708   8.965  0.1337 -0.0890 -1.0574
  185SAPI  H16X21279   5.187   0.777   8.978 -1.1894 -1.8567 -0.3833
  185SAPI  H16Y21280   5.234   0.607   8.989  0.6163  0.5461  2.7327
  185SAPI  C31721281   5.300   0.705   8.814 -0.1170  0.4745  0.0161
  185SAPI  H17X21282   5.254   0.791   8.761 -0.9121 -1.1602 -2.0099
  185SAPI  H17Y21283   5.245   0.620   8.769 -1.1839  0.7505  0.7946
  185SAPI  C31821284   5.449   0.674   8.776 -0.4487  0.0469  0.2008
  185SAPI  H18X21285   5.477   0.571   8.806 -1.5611 -0.2073  0.3854
  185SAPI  H18Y21286   5.526   0.746   8.810 -1.5587  2.3030 -1.8963
  185SAPI  H18Z21287   5.460   0.685   8.666 -2.3268 -0.0819 -0.0162
  186SAPI   C1221288   6.409   5.622  10.685  0.6482  0.4389  0.1959
  186SAPI    H221289   6.433   5.514  10.681  0.9951  0.5368 -0.3721
  186SAPI    O221290   6.401   5.671  10.549  0.3709 -0.4741  0.4148
  186SAPI   HO221291   6.338   5.616  10.502  1.5086  0.5362 -2.3981
  186SAPI   C1321292   6.267   5.641  10.752 -0.5318  0.1490  0.3280
  186SAPI    H321293   6.280   5.604  10.856  2.1143 -1.1036 -0.3945
  186SAPI    O321294   6.166   5.560  10.691  0.4078 -0.7991 -0.2049
  186SAPI   HO321295   6.119   5.604  10.621  0.9671  2.1238  1.1920
  186SAPI   C1421296   6.245   5.788  10.765  0.1013 -0.0909 -0.5238
  186SAPI    H421297   6.229   5.825  10.661 -0.7936 -0.8836 -0.6704
  186SAPI    O421298   6.119   5.810  10.831  0.3994 -0.6202 -0.1966
  186SAPI   HO421299   6.104   5.905  10.825  0.2757 -0.7399 -1.9823
  186SAPI   C1521300   6.356   5.869  10.823  0.0985 -0.8911  0.2006
  186SAPI    H521301   6.367   5.847  10.932 -2.1090  3.4890  1.4264
  186SAPI    O521302   6.319   6.006  10.815 -0.4421 -0.1179 -0.2018
  186SAPI   HO521303   6.358   6.048  10.892  2.7632 -1.5003 -1.0187
  186SAPI   C1621304   6.493   5.837  10.761 -0.1857 -0.1535  0.4224
  186SAPI    H621305   6.499   5.876  10.657 -0.2294 -1.1808  0.0217
  186SAPI    O621306   6.597   5.897  10.833  0.0517 -0.7276 -0.5359
  186SAPI   HO621307   6.678   5.869  10.790  1.6269 -1.3845  2.7120
  186SAPI   C1121308   6.516   5.692  10.754  1.4380  0.1426 -1.0091
  186SAPI    H121309   6.522   5.664  10.862  2.4716 -0.0208 -1.0988
  186SAPI     P21310   6.722   5.532  10.684 -0.2835  0.2294  0.1792
  186SAPI   O1321311   6.677   5.443  10.795  0.4212  0.0653  0.2717
  186SAPI   O1421312   6.863   5.567  10.685  0.1283 -0.3580 -0.4611
  186SAPI   O1221313   6.641   5.673  10.686  0.3018 -0.6238  0.4759
  186SAPI   O1121314   6.697   5.467  10.536 -0.5823 -0.3038 -0.5570
  186SAPI    C121315   6.780   5.515  10.426  0.9904 -0.1107 -0.1974
  186SAPI    HA21316   6.771   5.626  10.417 -4.5487 -0.3940  0.0285
  186SAPI    HB21317   6.886   5.488  10.445  0.6238 -0.4977  1.3448
  186SAPI    C221318   6.733   5.446  10.295  0.0422  0.1565 -0.4698
  186SAPI    HS21319   6.783   5.509  10.218  1.8911 -0.2380  0.3878
  186SAPI   O2121320   6.588   5.451  10.285  0.8174  0.3850 -0.7648
  186SAPI   C2121321   6.554   5.567  10.240 -0.4869 -0.2953 -0.3315
  186SAPI   O2221322   6.630   5.658  10.213 -0.5534 -0.1299  0.3691
  186SAPI   C2221323   6.401   5.565  10.217 -0.1671 -0.6715  0.0409
  186SAPI   H2R21324   6.386   5.478  10.151 -0.1867 -1.0484  0.5408
  186SAPI   H2S21325   6.347   5.551  10.313 -0.3066 -0.5269 -0.0138
  186SAPI    C321326   6.787   5.294  10.287  0.1805  1.1013  0.3005
  186SAPI    HX21327   6.709   5.229  10.332  1.5680 -0.6345  0.2208
  186SAPI    HY21328   6.875   5.284  10.355  0.4549  1.9350  0.0722
  186SAPI   O3121329   6.817   5.259  10.151  0.1745  0.6387  1.2032
  186SAPI   C3121330   6.938   5.291  10.113  0.3751 -0.0883 -0.2140
  186SAPI   O3221331   7.012   5.371  10.169  0.0984 -0.2381  0.5083
  186SAPI   C3221332   6.968   5.221   9.978  0.2783  0.5341  0.3170
  186SAPI   H2X21333   6.880   5.154   9.963 -0.8941  2.1294 -0.1021
  186SAPI   H2Y21334   7.057   5.156   9.990 -0.7894 -1.7213 -3.1838
  186SAPI   C2321335   6.355   5.698  10.140 -0.9428  0.0101 -0.5661
  186SAPI   H3R21336   6.363   5.784  10.209 -2.9281 -0.4915  0.3312
  186SAPI   H3S21337   6.244   5.696  10.127 -1.0111 -2.2331  0.0640
  186SAPI   C2421338   6.422   5.731  10.006  0.2952  0.4083  0.5789
  186SAPI   H4R21339   6.533   5.731  10.008  0.2907  0.7488  0.9412
  186SAPI   H4S21340   6.382   5.831   9.979  0.9692  0.8912  1.3572
  186SAPI   C2521341   6.360   5.627   9.907  0.0605 -0.3153 -0.4950
  186SAPI   H5R21342   6.363   5.524   9.947 -2.6541  0.1623  1.1194
  186SAPI   C2621343   6.308   5.652   9.786 -0.3112  0.7516 -0.2257
  186SAPI   H6R21344   6.280   5.566   9.725  0.8344  0.5961 -0.5582
  186SAPI   C2721345   6.297   5.781   9.709  0.0223 -0.1295 -0.7429
  186SAPI   H7R21346   6.272   5.862   9.781 -1.9931 -1.6920  0.4045
  186SAPI   H7S21347   6.209   5.774   9.641  0.1234  1.1230 -1.0087
  186SAPI   C2821348   6.420   5.826   9.631 -0.2202  0.2118 -0.0393
  186SAPI   H8R21349   6.496   5.885   9.686  1.8283 -1.2899 -1.1923
  186SAPI   C2921350   6.452   5.780   9.507 -0.1327 -0.1206 -0.2466
  186SAPI   H9R21351   6.542   5.820   9.458  2.2090 -3.2377  1.2393
  186SAPI  C21021352   6.373   5.684   9.422  0.1973  0.6941 -0.4691
  186SAPI  H10R21353   6.324   5.601   9.478  0.2715  0.6046 -0.5393
  186SAPI  H10S21354   6.440   5.631   9.351 -0.9890 -1.6309  0.0882
  186SAPI  C21121355   6.260   5.748   9.348 -0.3785 -0.3607  0.1560
  186SAPI  H11R21356   6.164   5.748   9.403  0.3500 -0.2081  1.4481
  186SAPI  C21221357   6.250   5.772   9.215 -0.4551  0.1336  0.0540
  186SAPI  H12R21358   6.154   5.811   9.178  0.7644  2.1084 -1.0746
  186SAPI  C21321359   6.367   5.751   9.117 -0.1854  0.0036 -0.0878
  186SAPI  H13R21360   6.368   5.642   9.097 -2.6579  0.1988 -1.4866
  186SAPI  H13S21361   6.455   5.788   9.174  1.4469 -1.8308 -1.3533
  186SAPI  C21421362   6.355   5.832   8.989 -0.5789 -0.1263 -0.5834
  186SAPI  H14R21363   6.298   5.780   8.911 -0.6686  0.1414 -0.6950
  186SAPI  C21521364   6.412   5.954   8.969  0.4677 -0.5979 -0.0166
  186SAPI  H15R21365   6.402   5.993   8.866  0.7249  0.0446  0.2002
  186SAPI  C21621366   6.492   6.035   9.068 -0.1087 -0.1937 -0.6743
  186SAPI  H16R21367   6.497   5.990   9.170 -2.0723  0.6062 -0.2204
  186SAPI  H16S21368   6.441   6.132   9.082  0.6277  0.5181 -2.7558
  186SAPI  C21721369   6.634   6.055   9.016 -0.5121  0.1669  0.0237
  186SAPI  H17R21370   6.674   5.952   8.999  0.1356  0.6966 -1.7698
  186SAPI  H17S21371   6.698   6.097   9.097 -1.8581  2.4150 -0.0381
  186SAPI  C21821372   6.646   6.132   8.889  0.8484  0.9077 -0.6008
  186SAPI  H18R21373   6.588   6.225   8.905  1.8576  1.6619 -1.2394
  186SAPI  H18S21374   6.605   6.071   8.806  2.3947  1.4777 -1.8166
  186SAPI  C21921375   6.791   6.162   8.859  0.1186  0.1879  0.4095
  186SAPI  H19R21376   6.845   6.172   8.956 -0.0583 -2.2771  0.7845
  186SAPI  H19S21377   6.792   6.254   8.797 -0.6421 -1.0443 -1.4706
  186SAPI  C22021378   6.862   6.049   8.779  0.0360  0.1343 -0.0508
  186SAPI  H20R21379   6.962   6.089   8.750 -0.5960  3.0585  1.6180
  186SAPI  H20S21380   6.800   6.022   8.690  1.4179 -2.9439 -0.1375
  186SAPI  H20T21381   6.866   5.961   8.847  0.3272 -0.6661 -1.0816
  186SAPI   C3321382   6.994   5.302   9.852 -0.4608  0.3246 -0.3616
  186SAPI   H3X21383   7.054   5.393   9.872  0.2318 -0.5745  1.7875
  186SAPI   H3Y21384   6.897   5.333   9.806 -0.6852 -0.4521 -0.4174
  186SAPI   C3421385   7.063   5.217   9.745  0.5590  0.0013  1.1702
  186SAPI   H4X21386   7.012   5.120   9.724  0.1323  0.2377  1.1158
  186SAPI   H4Y21387   7.164   5.197   9.787  0.1878 -1.3881  1.4389
  186SAPI   C3521388   7.074   5.304   9.617  0.0346  0.7565  0.1356
  186SAPI   H5X21389   7.118   5.402   9.647  0.2165 -0.4431  4.0906
  186SAPI   H5Y21390   6.971   5.339   9.595  0.1985  1.7751  0.9271
  186SAPI   C3621391   7.160   5.230   9.508  0.5678  0.3932 -0.4060
  186SAPI   H6X21392   7.115   5.129   9.510 -3.7533  2.2093  2.5179
  186SAPI   H6Y21393   7.267   5.218   9.539  0.8048  1.6224 -0.7145
  186SAPI   C3721394   7.161   5.301   9.370 -0.1978  0.9244 -0.3027
  186SAPI   H7X21395   7.183   5.405   9.402  2.5614  0.0199  0.9303
  186SAPI   H7Y21396   7.062   5.308   9.321 -0.8478 -1.8159  0.4984
  186SAPI   C3821397   7.262   5.230   9.280  0.5857  0.4881  0.3551
  186SAPI   H8X21398   7.233   5.126   9.253  1.2009  0.1409  1.0127
  186SAPI   H8Y21399   7.364   5.221   9.323  0.9145  0.6148 -0.3880
  186SAPI   C3921400   7.266   5.308   9.149  0.2767 -0.3672  0.1730
  186SAPI   H9X21401   7.310   5.400   9.193  1.8109 -0.9482 -0.1056
  186SAPI   H9Y21402   7.166   5.330   9.107  0.7709  0.8469 -0.4005
  186SAPI  C31021403   7.355   5.240   9.044  0.2507  0.1477 -1.3001
  186SAPI  H10X21404   7.350   5.129   9.048 -0.3988  0.2409  0.6563
  186SAPI  H10Y21405   7.459   5.273   9.062 -0.3225  0.5546  1.4656
  186SAPI  C31121406   7.324   5.285   8.901 -0.1538 -0.3066  0.5586
  186SAPI  H11X21407   7.217   5.268   8.874  0.2180  0.1270 -1.2222
  186SAPI  H11Y21408   7.387   5.221   8.835  1.2311  2.7551 -1.2018
  186SAPI  C31221409   7.359   5.438   8.872  0.6838 -0.2359 -0.4122
  186SAPI  H12X21410   7.470   5.440   8.863  0.8988  0.0358  1.9715
  186SAPI  H12Y21411   7.341   5.506   8.958  4.1784  1.4683 -0.9076
  186SAPI  C31321412   7.291   5.495   8.746 -0.8902  0.6448  0.0446
  186SAPI  H13X21413   7.337   5.596   8.736 -2.4670  1.6296  2.4369
  186SAPI  H13Y21414   7.182   5.491   8.766 -0.4503 -1.1958  2.3297
  186SAPI  C31421415   7.299   5.424   8.606 -0.2235  0.2732  0.3522
  186SAPI  H14X21416   7.272   5.317   8.621  0.7731 -0.2145 -1.3044
  186SAPI  H14Y21417   7.405   5.429   8.575  0.1688  0.9558  1.7418
  186SAPI  C31521418   7.209   5.493   8.501  0.1989 -0.1627 -0.6649
  186SAPI  H15X21419   7.229   5.601   8.481  0.4426 -0.3452 -1.4354
  186SAPI  H15Y21420   7.101   5.483   8.524  0.1243 -0.7533 -1.2384
  186SAPI  C31621421   7.247   5.446   8.364 -0.4755  0.6005  0.8154
  186SAPI  H16X21422   7.187   5.354   8.344 -0.1868  0.1594  1.9526
  186SAPI  H16Y21423   7.354   5.419   8.379  0.0067  1.7584 -0.4207
  186SAPI  C31721424   7.235   5.561   8.264 -0.7574 -0.1894 -0.3003
  186SAPI  H17X21425   7.284   5.652   8.305 -0.6410 -0.1271 -0.5690
  186SAPI  H17Y21426   7.131   5.593   8.242 -0.7698  1.2038  1.7235
  186SAPI  C31821427   7.302   5.530   8.121  0.5153  0.4193  0.8829
  186SAPI  H18X21428   7.240   5.458   8.064  1.9717 -1.3486  1.4777
  186SAPI  H18Y21429   7.397   5.477   8.144 -0.9942 -2.3507  0.8387
  186SAPI  H18Z21430   7.317   5.617   8.053 -1.4518  0.6887  0.7631
  187SAPI   C1221431   2.752   0.292   6.070  0.2336 -0.7830  0.2099
  187SAPI    H221432   2.791   0.205   6.015 -0.7638 -1.2362  0.2006
  187SAPI    O221433   2.862   0.344   6.140 -0.6854 -0.2104  0.4793
  187SAPI   HO221434   2.920   0.273   6.170 -1.6192 -0.2428  2.2524
  187SAPI   C1321435   2.688   0.394   5.980  1.4807 -1.3141 -0.4203
  187SAPI    H321436   2.607   0.349   5.919  0.5512  0.7081 -0.7164
  187SAPI    O321437   2.788   0.437   5.891  0.2976 -0.6011 -0.6696
  187SAPI   HO321438   2.870   0.423   5.940  0.5513 -0.0226 -0.9335
  187SAPI   C1421439   2.631   0.510   6.060  0.1571  0.0827 -0.4584
  187SAPI    H421440   2.710   0.561   6.119  0.6632 -0.2215 -0.8618
  187SAPI    O421441   2.565   0.593   5.961  0.7461 -0.1155 -0.2046
  187SAPI   HO421442   2.566   0.684   5.993  0.4446  0.5184 -1.9676
  187SAPI   C1521443   2.516   0.459   6.145 -0.5883 -0.1419  0.0859
  187SAPI    H521444   2.434   0.417   6.082 -0.5336  0.1448 -0.1764
  187SAPI    O521445   2.451   0.562   6.226  0.5457 -0.4341 -0.0999
  187SAPI   HO521446   2.396   0.511   6.286 -0.8147 -0.2765 -1.1865
  187SAPI   C1621447   2.574   0.350   6.239  0.6603 -0.4913 -0.3843
  187SAPI    H621448   2.650   0.392   6.308 -0.2673  0.3282  0.1605
  187SAPI    O621449   2.475   0.301   6.324  0.3882 -0.3253 -0.3753
  187SAPI   HO621450   2.527   0.250   6.386  1.2431 -0.1215 -0.9225
  187SAPI   C1121451   2.639   0.233   6.168 -0.6609  0.1048  0.0048
  187SAPI    H121452   2.559   0.183   6.109 -0.1116 -2.6120  1.4400
  187SAPI     P21453   2.715  -0.021   6.208 -0.2132  0.4344  0.1953
  187SAPI   O1321454   2.833  -0.043   6.119  0.2351  0.1117 -0.0308
  187SAPI   O1421455   2.583  -0.065   6.162 -0.5630 -0.7484 -0.5910
  187SAPI   O1221456   2.705   0.135   6.250 -0.2297 -0.2863  0.0750
  187SAPI   O1121457   2.746  -0.094   6.338  0.0992 -0.4864 -0.4996
  187SAPI    C121458   2.638  -0.103   6.430 -0.0720  0.0067  0.1345
  187SAPI    HA21459   2.555  -0.032   6.408  1.1906  2.5241  3.1746
  187SAPI    HB21460   2.600  -0.207   6.429  1.6645 -0.7452  3.9816
  187SAPI    C221461   2.676  -0.081   6.578 -0.7714 -0.4058 -0.2684
  187SAPI    HS21462   2.583  -0.071   6.638  0.5467 -2.3259  2.1929
  187SAPI   O2121463   2.747   0.045   6.588  0.2033  0.1769 -0.3846
  187SAPI   C2121464   2.679   0.151   6.557 -0.1921 -0.7516  0.4250
  187SAPI   O2221465   2.562   0.166   6.532  0.4649 -0.1241 -0.3754
  187SAPI   C2221466   2.784   0.264   6.542  0.2207 -0.2294 -0.0211
  187SAPI   H2R21467   2.832   0.245   6.444  2.4190 -0.8959  1.1582
  187SAPI   H2S21468   2.721   0.355   6.531 -0.4234 -0.7102 -0.3158
  187SAPI    C321469   2.757  -0.195   6.647 -0.2187  0.1251 -0.8272
  187SAPI    HX21470   2.851  -0.214   6.591 -0.7607  2.9412 -2.7823
  187SAPI    HY21471   2.700  -0.290   6.633 -0.7286  0.5045 -1.3319
  187SAPI   O3121472   2.783  -0.169   6.794 -0.2253  0.0645  0.9892
  187SAPI   C3121473   2.703  -0.218   6.876  0.3027  1.0267 -0.3768
  187SAPI   O3221474   2.617  -0.303   6.856  0.0775 -0.4280  0.7107
  187SAPI   C3221475   2.726  -0.159   7.016  1.2840  0.0599  0.0859
  187SAPI   H2X21476   2.745  -0.050   7.006  1.1398  0.2783  2.0129
  187SAPI   H2Y21477   2.823  -0.194   7.057  0.5671 -0.2366  1.5355
  187SAPI   C2321478   2.892   0.268   6.654 -0.5254  0.6981  0.5781
  187SAPI   H3R21479   2.970   0.332   6.608  0.0822 -1.9040 -2.1693
  187SAPI   H3S21480   2.956   0.178   6.660 -1.4161  0.1424  2.1504
  187SAPI   C2421481   2.841   0.324   6.786  0.5953 -0.1415  0.4466
  187SAPI   H4R21482   2.768   0.254   6.832  2.3543 -2.7311 -0.5705
  187SAPI   H4S21483   2.794   0.421   6.761 -0.7015 -1.4389 -2.4581
  187SAPI   C2521484   2.957   0.352   6.883 -0.4670  1.0731  0.3856
  187SAPI   H5R21485   3.037   0.419   6.848  0.6867 -1.5606 -2.3278
  187SAPI   C2621486   2.963   0.307   7.010  0.1604 -0.1741  0.4862
  187SAPI   H6R21487   3.046   0.336   7.076  1.8815 -0.4534 -1.5178
  187SAPI   C2721488   2.862   0.228   7.076 -0.0529 -0.3063  0.3843
  187SAPI   H7R21489   2.910   0.187   7.168  1.7108 -1.0965 -0.8457
  187SAPI   H7S21490   2.841   0.138   7.014  0.8530  1.7015 -2.9514
  187SAPI   C2821491   2.730   0.289   7.106 -0.2677  0.5310 -0.2510
  187SAPI   H8R21492   2.676   0.318   7.014  0.9002 -0.9876 -1.4604
  187SAPI   C2921493   2.668   0.309   7.228  1.3377 -0.1628 -0.2658
  187SAPI   H9R21494   2.573   0.365   7.229  0.8696 -0.9671  1.6948
  187SAPI  C21021495   2.722   0.275   7.358 -0.2961 -0.0409 -0.3512
  187SAPI  H10R21496   2.833   0.274   7.348 -0.2298  2.1068 -0.0124
  187SAPI  H10S21497   2.683   0.175   7.387 -1.7030  0.6566  0.2102
  187SAPI  C21121498   2.695   0.377   7.468 -0.8255  0.3685  0.4613
  187SAPI  H11R21499   2.778   0.447   7.479 -1.3086  0.7266  1.9280
  187SAPI  C21221500   2.593   0.377   7.560  0.2224 -0.1462 -0.0013
  187SAPI  H12R21501   2.592   0.452   7.640  0.0543  0.7995 -0.8832
  187SAPI  C21321502   2.480   0.285   7.571 -0.1792 -0.3077  0.5039
  187SAPI  H13R21503   2.493   0.217   7.484 -2.0286  1.2228 -1.0310
  187SAPI  H13S21504   2.389   0.346   7.556 -0.0707  0.1141  1.5111
  187SAPI  C21421505   2.459   0.206   7.701 -0.3462 -0.6975 -0.0112
  187SAPI  H14R21506   2.372   0.229   7.765  0.4132 -0.7068  1.0501
  187SAPI  C21521507   2.554   0.120   7.750 -0.0714  0.0807  0.0213
  187SAPI  H15R21508   2.538   0.069   7.846  1.6197 -0.1757  0.1802
  187SAPI  C21621509   2.691   0.076   7.695  0.1948  0.1086 -0.2022
  187SAPI  H16R21510   2.760   0.148   7.743  2.3697 -1.7591 -0.4178
  187SAPI  H16S21511   2.706   0.086   7.586 -0.2135 -0.0920 -0.2797
  187SAPI  C21721512   2.745  -0.062   7.736  0.3677 -0.5814  0.0954
  187SAPI  H17R21513   2.842  -0.076   7.682 -1.3704  1.2853 -3.7434
  187SAPI  H17S21514   2.679  -0.150   7.719  1.5900 -1.2826 -1.1710
  187SAPI  C21821515   2.785  -0.047   7.885  0.0408 -0.1589  0.3790
  187SAPI  H18R21516   2.691  -0.041   7.945  1.1943 -1.0568  2.3081
  187SAPI  H18S21517   2.836   0.047   7.913 -2.0298  1.2433 -0.3954
  187SAPI  C21921518   2.852  -0.166   7.953  0.0061 -0.0778 -0.1061
  187SAPI  H19R21519   2.804  -0.262   7.923  1.8565 -1.5272  1.4611
  187SAPI  H19S21520   2.831  -0.155   8.061 -1.0765  1.2594 -0.4375
  187SAPI  C22021521   3.002  -0.180   7.921 -0.3644  0.1573  0.1054
  187SAPI  H20R21522   3.031  -0.280   7.960 -0.7357  0.7626  1.9874
  187SAPI  H20S21523   3.058  -0.094   7.963 -1.4131  1.6638 -1.5234
  187SAPI  H20T21524   3.023  -0.188   7.813  0.8319 -2.4848  0.4942
  187SAPI   C3321525   2.625  -0.196   7.125  0.1643 -0.5154 -0.3341
  187SAPI   H3X21526   2.627  -0.304   7.152 -2.2149 -0.4352  0.2934
  187SAPI   H3Y21527   2.523  -0.176   7.085  0.7594  1.7069 -0.7765
  187SAPI   C3421528   2.644  -0.100   7.243  0.5448 -0.2030 -0.3734
  187SAPI   H4X21529   2.649  -0.001   7.191 -2.6352  1.0227  1.5378
  187SAPI   H4Y21530   2.736  -0.122   7.301  0.2054  1.5104  0.8634
  187SAPI   C3521531   2.529  -0.084   7.335  0.4532  0.3274 -0.7310
  187SAPI   H5X21532   2.437  -0.076   7.274  0.5422 -5.1276 -1.7834
  187SAPI   H5Y21533   2.540   0.012   7.391  1.3349  1.4946 -2.8294
  187SAPI   C3621534   2.494  -0.199   7.427  0.0321  0.3802 -0.5668
  187SAPI   H6X21535   2.589  -0.230   7.477  0.1130  1.7936  0.1697
  187SAPI   H6Y21536   2.451  -0.287   7.375  2.3166 -0.7047 -0.6958
  187SAPI   C3721537   2.386  -0.166   7.528 -0.2069 -0.4681  0.5803
  187SAPI   H7X21538   2.291  -0.164   7.470  0.3069  0.8234 -0.2464
  187SAPI   H7Y21539   2.398  -0.065   7.572 -1.4684  0.0581 -0.2609
  187SAPI   C3821540   2.392  -0.263   7.644 -0.6256 -0.6426 -0.1861
  187SAPI   H8X21541   2.494  -0.287   7.679  0.2745  0.8884 -1.6913
  187SAPI   H8Y21542   2.350  -0.359   7.607 -0.6277 -0.6620 -0.1344
  187SAPI   C3921543   2.302  -0.208   7.754  0.3665  0.0677  0.0422
  187SAPI   H9X21544   2.210  -0.168   7.705 -0.6101  0.3255  2.0330
  187SAPI   H9Y21545   2.358  -0.126   7.803 -0.5892 -0.8376  2.7742
  187SAPI  C31021546   2.261  -0.316   7.859 -1.1004 -0.6229  0.4808
  187SAPI  H10X21547   2.194  -0.391   7.813 -2.9715  1.9656 -1.0768
  187SAPI  H10Y21548   2.190  -0.262   7.925 -0.5225  0.9269 -0.1417
  187SAPI  C31121549   2.380  -0.372   7.948  0.6726 -0.2206  0.9604
  187SAPI  H11X21550   2.455  -0.402   7.872 -0.1651 -1.3303  0.5717
  187SAPI  H11Y21551   2.353  -0.454   8.017  2.6974 -2.2279 -0.5737
  187SAPI  C31221552   2.436  -0.266   8.039 -0.1362 -0.8735 -0.9274
  187SAPI  H12X21553   2.360  -0.222   8.107 -0.8293  0.0997 -2.3089
  187SAPI  H12Y21554   2.471  -0.178   7.981 -3.0388  0.1421 -1.1989
  187SAPI  C31321555   2.575  -0.294   8.113  0.6809  0.2510  0.9116
  187SAPI  H13X21556   2.620  -0.196   8.140  0.0610  0.2769  1.8521
  187SAPI  H13Y21557   2.638  -0.346   8.037 -0.7174  0.7731 -0.6568
  187SAPI  C31421558   2.568  -0.385   8.231 -0.1637  0.5857  0.0954
  187SAPI  H14X21559   2.495  -0.467   8.210  1.2670 -0.7561  0.2457
  187SAPI  H14Y21560   2.524  -0.333   8.319  0.5064 -0.2405  0.9292
  187SAPI  C31521561   2.701  -0.442   8.273  0.2487  0.1180  0.5791
  187SAPI  H15X21562   2.771  -0.365   8.310  0.8830 -0.4552  0.5957
  187SAPI  H15Y21563   2.754  -0.481   8.183  1.4099 -1.1112  1.7687
  187SAPI  C31621564   2.678  -0.563   8.369 -0.4098  0.2439 -0.2209
  187SAPI  H16X21565   2.580  -0.614   8.353  0.4537 -1.2927 -0.6788
  187SAPI  H16Y21566   2.672  -0.516   8.470 -0.3102 -0.6002  0.1875
  187SAPI  C31721567   2.788  -0.671   8.364 -0.0976 -0.6347 -0.1870
  187SAPI  H17X21568   2.883  -0.622   8.392  0.1277 -1.7851  1.1131
  187SAPI  H17Y21569   2.792  -0.709   8.260 -0.3097  0.7713 -0.7233
  187SAPI  C31821570   2.758  -0.786   8.462 -0.3354 -0.2471 -0.1205
  187SAPI  H18X21571   2.683  -0.854   8.416  2.1249 -2.5269 -0.9401
  187SAPI  H18Y21572   2.731  -0.747   8.562 -0.5181  0.1431 -0.3178
  187SAPI  H18Z21573   2.849  -0.849   8.460 -0.3860 -0.3161 -0.4399
  188SAPI   C1221574   3.924   3.920   6.435  0.5144  0.2112 -0.0996
  188SAPI    H221575   3.908   3.866   6.531 -0.5343 -1.2747 -1.0939
  188SAPI    O221576   3.818   3.880   6.348  0.0044 -0.9141  0.0358
  188SAPI   HO221577   3.850   3.793   6.326 -0.6499 -1.1268 -0.0809
  188SAPI   C1321578   3.924   4.067   6.464 -0.0338 -0.0039 -0.0679
  188SAPI    H321579   3.999   4.098   6.540  0.8956  0.9337 -1.3465
  188SAPI    O321580   3.801   4.112   6.527 -0.2738  0.0624  0.7829
  188SAPI   HO321581   3.795   4.206   6.509 -1.0328 -0.3188 -1.0831
  188SAPI   C1421582   3.954   4.149   6.332  0.2841  0.0200 -0.5220
  188SAPI    H421583   3.866   4.131   6.267 -2.1037  2.7608  1.7888
  188SAPI    O421584   3.944   4.291   6.349  0.0347 -0.1861  0.2254
  188SAPI   HO421585   3.863   4.322   6.307 -0.3870  0.5343  1.5249
  188SAPI   C1521586   4.084   4.105   6.269  0.3154 -0.7131  0.2536
  188SAPI    H521587   4.172   4.130   6.331  1.7097 -1.4187 -1.4080
  188SAPI    O521588   4.106   4.174   6.144  0.2277  0.5310 -0.3068
  188SAPI   HO521589   4.111   4.268   6.163  0.2647  0.1552  1.6437
  188SAPI   C1621590   4.080   3.955   6.250  0.1527  0.1950  0.5578
  188SAPI    H621591   4.001   3.933   6.175 -0.4776  2.3132  0.5791
  188SAPI    O621592   4.209   3.916   6.196 -0.4768 -0.0741  0.3149
  188SAPI   HO621593   4.222   3.823   6.213 -0.6628 -0.4504 -1.5815
  188SAPI   C1121594   4.060   3.884   6.382 -0.3889 -0.6483 -0.8862
  188SAPI    H121595   4.132   3.922   6.457 -1.6272  0.3370 -0.1787
  188SAPI     P21596   4.195   3.655   6.425  0.5389  0.1113 -0.0379
  188SAPI   O1321597   4.314   3.737   6.433 -0.3641 -0.1589  0.3302
  188SAPI   O1421598   4.193   3.530   6.357 -0.3271 -0.3930  0.4879
  188SAPI   O1221599   4.062   3.745   6.374 -0.1613 -0.2982  0.1014
  188SAPI   O1121600   4.154   3.631   6.581 -0.0810  0.1915 -0.1359
  188SAPI    C121601   4.068   3.524   6.617 -0.7737  0.2012 -0.0703
  188SAPI    HA21602   3.963   3.561   6.608 -1.1005 -0.0307  2.3801
  188SAPI    HB21603   4.080   3.431   6.556  1.7712  0.2684  0.2816
  188SAPI    C221604   4.094   3.476   6.764  0.8816  0.5668 -0.7872
  188SAPI    HS21605   4.015   3.403   6.792  2.7479 -0.4308  2.1649
  188SAPI   O2121606   4.110   3.586   6.859 -0.3609  0.3418  0.4536
  188SAPI   C2121607   4.012   3.602   6.939  1.0818  0.2980 -0.2192
  188SAPI   O2221608   3.894   3.560   6.928 -0.5216  0.0675 -0.0579
  188SAPI   C2221609   4.053   3.710   7.041 -0.0534 -0.1288  0.1822
  188SAPI   H2R21610   4.162   3.700   7.057 -0.3353 -4.0478  0.3764
  188SAPI   H2S21611   4.027   3.807   6.995 -0.2110 -1.0470 -1.6905
  188SAPI    C321612   4.223   3.386   6.776  0.6956 -0.0017 -0.2498
  188SAPI    HX21613   4.304   3.460   6.760  0.0198  1.0913  1.2034
  188SAPI    HY21614   4.215   3.307   6.698 -2.2783 -0.6828  0.6600
  188SAPI   O3121615   4.228   3.334   6.908  0.5246  0.6003  0.4427
  188SAPI   C3121616   4.340   3.274   6.944 -0.2730  0.0674 -0.4620
  188SAPI   O3221617   4.439   3.263   6.876  0.0581  0.4495  0.1486
  188SAPI   C3221618   4.338   3.239   7.087 -0.1719 -0.0773 -0.9413
  188SAPI   H2X21619   4.254   3.170   7.108  0.5611 -0.4230  1.0362
  188SAPI   H2Y21620   4.321   3.337   7.136  4.2014  0.4142 -0.1748
  188SAPI   C2321621   3.979   3.686   7.179 -0.4097  0.0020  0.4616
  188SAPI   H3R21622   4.023   3.602   7.238  0.1682  1.3849  2.0636
  188SAPI   H3S21623   3.873   3.661   7.160  0.4814 -1.6876 -2.7271
  188SAPI   C2421624   3.995   3.813   7.266 -0.8732  0.9771  0.2649
  188SAPI   H4R21625   3.959   3.901   7.208 -5.3062 -1.0433 -0.2616
  188SAPI   H4S21626   4.103   3.829   7.285 -0.1190 -2.0323 -1.1185
  188SAPI   C2521627   3.905   3.797   7.385 -0.3518  0.3551 -0.8703
  188SAPI   H5R21628   3.798   3.795   7.360 -0.6570 -0.5057  0.4796
  188SAPI   C2621629   3.941   3.774   7.512  0.1164 -0.5727  0.2692
  188SAPI   H6R21630   3.856   3.774   7.582 -0.2728  1.2435 -0.1584
  188SAPI   C2721631   4.076   3.755   7.572 -0.2160  0.2693 -0.7217
  188SAPI   H7R21632   4.127   3.852   7.555  0.6321 -0.1386 -0.5426
  188SAPI   H7S21633   4.138   3.677   7.521 -0.9819 -0.8278  0.0221
  188SAPI   C2821634   4.066   3.727   7.715  0.0284 -0.4498 -0.5637
  188SAPI   H8R21635   4.022   3.628   7.733  0.8972 -1.1403 -2.1141
  188SAPI   C2921636   4.095   3.800   7.823  0.3597 -0.0153  0.1566
  188SAPI   H9R21637   4.060   3.742   7.910 -1.6236 -0.9413 -1.2346
  188SAPI  C21021638   4.153   3.938   7.828 -0.0612 -1.0200 -0.5667
  188SAPI  H10R21639   4.085   4.016   7.788 -0.7749 -0.4906  1.6385
  188SAPI  H10S21640   4.245   3.921   7.768  0.2770 -0.1460 -0.2977
  188SAPI  C21121641   4.203   3.970   7.964 -0.1025  0.7708 -0.2344
  188SAPI  H11R21642   4.291   3.915   7.997  0.6582  1.7642 -0.5689
  188SAPI  C21221643   4.148   4.062   8.048  0.1945 -0.6517  0.0660
  188SAPI  H12R21644   4.200   4.077   8.144  2.5563 -3.4305 -0.7141
  188SAPI  C21321645   4.028   4.154   8.026  0.3572  0.3031 -0.1962
  188SAPI  H13R21646   3.987   4.191   8.122 -3.2714 -1.1343 -1.0766
  188SAPI  H13S21647   3.946   4.102   7.971  0.5162 -0.5972  0.4127
  188SAPI  C21421648   4.061   4.278   7.938  0.0137  0.5043  0.7056
  188SAPI  H14R21649   4.136   4.255   7.860 -0.2866  1.5903  0.0759
  188SAPI  C21521650   4.016   4.402   7.953 -0.9290  0.0046 -0.3629
  188SAPI  H15R21651   4.034   4.476   7.873 -0.4020  0.7656  0.4573
  188SAPI  C21621652   3.917   4.447   8.055 -0.5870  0.5496  0.1499
  188SAPI  H16R21653   3.937   4.555   8.073 -0.3478  0.3726  0.9434
  188SAPI  H16S21654   3.922   4.392   8.151  1.6612 -1.7777 -1.2328
  188SAPI  C21721655   3.772   4.461   7.999 -0.1168 -0.4487  0.4659
  188SAPI  H17R21656   3.730   4.371   7.949  0.6838 -0.8128  0.4397
  188SAPI  H17S21657   3.784   4.538   7.920 -0.7789 -0.2441  0.5603
  188SAPI  C21821658   3.661   4.508   8.094 -0.7487 -0.2671 -0.5490
  188SAPI  H18R21659   3.608   4.428   8.150  0.2904  0.0761  0.9603
  188SAPI  H18S21660   3.582   4.538   8.023  0.6975  1.1718 -1.5955
  188SAPI  C21921661   3.701   4.634   8.178  0.0127  0.2069  0.0736
  188SAPI  H19R21662   3.724   4.723   8.116  1.9400 -0.8519 -0.7690
  188SAPI  H19S21663   3.803   4.615   8.218  0.9797  0.8951 -1.9888
  188SAPI  C22021664   3.590   4.652   8.280 -0.0329  0.5489  0.0825
  188SAPI  H20R21665   3.501   4.672   8.216  1.9805  0.9391 -2.7220
  188SAPI  H20S21666   3.601   4.745   8.340 -1.5976  1.0259 -0.3595
  188SAPI  H20T21667   3.584   4.563   8.345  0.0986 -0.0195 -0.6720
  188SAPI   C3321668   4.472   3.174   7.124 -0.3146  0.1187 -0.4465
  188SAPI   H3X21669   4.564   3.215   7.076  0.0441 -0.6401 -0.4194
  188SAPI   H3Y21670   4.464   3.068   7.091  0.3715  0.1903 -0.8694
  188SAPI   C3421671   4.501   3.181   7.271  0.1806  0.5860  0.7670
  188SAPI   H4X21672   4.527   3.285   7.301 -0.4584  0.7283  0.8325
  188SAPI   H4Y21673   4.595   3.126   7.294  0.1500  0.5552  0.8179
  188SAPI   C3521674   4.389   3.112   7.357 -0.4008  0.5155 -0.5111
  188SAPI   H5X21675   4.337   3.032   7.300 -1.2759  1.1922 -0.6731
  188SAPI   H5Y21676   4.314   3.188   7.389  0.2578  0.7041  0.6015
  188SAPI   C3621677   4.449   3.043   7.482  0.3750 -0.6883 -0.1521
  188SAPI   H6X21678   4.538   2.982   7.455  2.3479  2.0167 -0.0244
  188SAPI   H6Y21679   4.371   2.984   7.534  0.3827 -0.8951 -0.3724
  188SAPI   C3721680   4.509   3.142   7.588  0.4969 -0.2576 -0.5698
  188SAPI   H7X21681   4.422   3.189   7.640  0.0443  1.1639 -2.5703
  188SAPI   H7Y21682   4.577   3.219   7.548  1.6487 -0.5826  0.7209
  188SAPI   C3821683   4.587   3.069   7.699  0.7911  0.4806 -0.2067
  188SAPI   H8X21684   4.674   3.032   7.640  1.9276  0.7038  1.2958
  188SAPI   H8Y21685   4.522   2.983   7.726  0.9816  0.3743 -0.0868
  188SAPI   C3921686   4.614   3.155   7.824  0.2785  0.6723  0.5071
  188SAPI   H9X21687   4.648   3.257   7.795 -0.9968  1.0707  0.3998
  188SAPI   H9Y21688   4.689   3.105   7.889 -0.5762  0.1197  1.0861
  188SAPI  C31021689   4.482   3.167   7.915 -0.3934 -0.0536  0.2895
  188SAPI  H10X21690   4.392   3.203   7.860 -0.0991 -1.4710 -1.1384
  188SAPI  H10Y21691   4.498   3.248   7.989 -1.9889 -0.8961  1.5744
  188SAPI  C31121692   4.444   3.041   7.993 -0.3336 -0.3448  0.2448
  188SAPI  H11X21693   4.432   2.956   7.922 -0.7600  0.9522 -1.2668
  188SAPI  H11Y21694   4.343   3.056   8.037  0.4289  0.3591  1.7956
  188SAPI  C31221695   4.536   3.014   8.112 -0.1909  0.3135 -0.2984
  188SAPI  H12X21696   4.643   3.033   8.090  0.5378  0.8837  3.3895
  188SAPI  H12Y21697   4.535   2.903   8.121 -4.0543  0.0949 -2.3817
  188SAPI  C31321698   4.493   3.086   8.235 -0.0332 -0.7114  0.5213
  188SAPI  H13X21699   4.392   3.042   8.248 -0.1111 -0.8829 -0.6361
  188SAPI  H13Y21700   4.481   3.196   8.230  1.8250 -0.4718  1.1105
  188SAPI  C31421701   4.571   3.049   8.362  0.8343  0.7465 -0.1605
  188SAPI  H14X21702   4.677   3.081   8.355  1.3338 -0.5420  1.2097
  188SAPI  H14Y21703   4.587   2.939   8.364  0.4967  0.7180  2.2008
  188SAPI  C31521704   4.500   3.095   8.493  0.4840 -0.2920 -0.0685
  188SAPI  H15X21705   4.428   3.023   8.538  2.5975 -0.7302  2.7364
  188SAPI  H15Y21706   4.442   3.188   8.473 -0.6739 -1.1489 -0.7930
  188SAPI  C31621707   4.609   3.133   8.596 -0.1229 -0.3927  0.3401
  188SAPI  H16X21708   4.693   3.182   8.543 -0.8915 -1.4228 -1.8620
  188SAPI  H16Y21709   4.646   3.032   8.623 -0.7027 -0.6040  0.3557
  188SAPI  C31721710   4.559   3.200   8.721 -0.5834  0.5664  0.6195
  188SAPI  H17X21711   4.459   3.161   8.751 -0.5246  1.0432  1.4411
  188SAPI  H17Y21712   4.535   3.305   8.693 -1.3507 -0.2212 -1.8403
  188SAPI  C31821713   4.645   3.193   8.849  0.6563  0.1088  0.2754
  188SAPI  H18X21714   4.627   3.290   8.898 -1.7575 -0.6477  0.9515
  188SAPI  H18Y21715   4.753   3.174   8.828  0.3928 -0.2247 -0.8294
  188SAPI  H18Z21716   4.611   3.104   8.906  1.9429 -0.4031  0.2632
  189POPC     N21717   4.733   4.831  11.213 -0.5621  0.3095 -0.1450
  189POPC   C1221718   4.590   4.877  11.221  0.3944  0.3745  0.8789
  189POPC  H12A21719   4.586   4.967  11.280  1.4157  0.8760  0.2024
  189POPC  H12B21720   4.528   4.799  11.263  0.4033 -1.4464 -2.3626
  189POPC   C1321721   4.818   4.925  11.135 -0.2419 -0.2202  0.1779
  189POPC  H13A21722   4.796   4.914  11.029  1.3348  1.1335 -0.3020
  189POPC  H13B21723   4.795   5.029  11.155  2.2269  0.4565 -0.2603
  189POPC  H13C21724   4.922   4.905  11.153  0.2392 -1.7600 -3.7570
  189POPC   C1421725   4.794   4.829  11.352 -0.0639  0.3354 -0.1952
  189POPC  H14A21726   4.739   4.773  11.426  0.5764  0.1949  0.1803
  189POPC  H14B21727   4.887   4.775  11.339  0.8969  1.8656  0.1844
  189POPC  H14C21728   4.815   4.927  11.393 -2.5735 -0.0954  2.2941
  189POPC   C1521729   4.746   4.697  11.153  0.2645  1.0226 -0.2304
  189POPC  H15A21730   4.844   4.671  11.116 -0.4114 -4.1455  1.3016
  189POPC  H15B21731   4.665   4.667  11.088  0.9788 -2.1515  0.2614
  189POPC  H15C21732   4.738   4.627  11.234  2.1698  0.7556 -0.2618
  189POPC   C1121733   4.514   4.900  11.085 -0.2788 -0.4408  0.3495
  189POPC  H11A21734   4.578   4.969  11.026  2.0736  0.1773  3.4774
  189POPC  H11B21735   4.417   4.951  11.106 -0.7109 -0.7036 -0.9684
  189POPC     P21736   4.423   4.775  10.878 -0.1103 -0.1032  0.0147
  189POPC   O1321737   4.291   4.839  10.902  0.2295 -0.6220 -0.4187
  189POPC   O1421738   4.423   4.642  10.810 -0.1630  0.4713 -0.0120
  189POPC   O1221739   4.492   4.771  11.019 -0.2856  0.3799 -0.2425
  189POPC   O1121740   4.518   4.872  10.795  0.2336 -0.0816  0.1360
  189POPC    C121741   4.647   4.828  10.752 -0.3927 -0.6490 -0.4352
  189POPC    HA21742   4.666   4.719  10.760 -0.0888 -0.3831  3.2917
  189POPC    HB21743   4.717   4.882  10.820  0.2919 -1.6937 -0.2842
  189POPC    C221744   4.672   4.879  10.612 -0.1957  0.1357  0.5949
  189POPC    HS21745   4.656   4.989  10.611 -2.0136 -0.1086  0.7828
  189POPC   O2121746   4.576   4.804  10.528  0.0535 -0.0524  0.2043
  189POPC   C2121747   4.465   4.875  10.495 -0.0097 -0.2993 -0.0168
  189POPC   O2221748   4.437   4.989  10.531  0.3183 -0.3958 -0.2696
  189POPC   C2221749   4.386   4.786  10.394 -1.1956  1.2282 -0.6809
  189POPC   H2R21750   4.462   4.758  10.317  0.7416  1.4384  1.0957
  189POPC   H2S21751   4.321   4.860  10.342  1.7142  2.1473 -3.2030
  189POPC    C321752   4.820   4.858  10.562  1.2165  0.1346  0.8139
  189POPC    HX21753   4.845   4.749  10.562 -0.9588 -0.4959 -3.7990
  189POPC    HY21754   4.894   4.899  10.633  1.8280 -0.4267  0.5168
  189POPC   O3121755   4.843   4.910  10.430 -0.1144 -0.3640 -0.1776
  189POPC   C3121756   4.849   5.041  10.423 -0.6227 -0.0538 -0.1683
  189POPC   O3221757   4.854   5.118  10.518  0.3834 -0.1699  0.2532
  189POPC   C3221758   4.841   5.086  10.281  0.0464 -0.8868  0.4749
  189POPC   H2X21759   4.923   5.044  10.220  1.2673  0.2220  1.3239
  189POPC   H2Y21760   4.859   5.196  10.284 -0.5007 -0.7279 -1.2415
  189POPC   C2321761   4.316   4.663  10.448  0.7104  0.0186 -0.1357
  189POPC   H3R21762   4.241   4.696  10.523  0.2361 -0.8852 -0.1962
  189POPC   H3S21763   4.387   4.594  10.500 -0.2202 -1.2987 -0.5831
  189POPC   C2421764   4.232   4.595  10.339 -0.6228  0.4862 -0.8446
  189POPC   H4R21765   4.155   4.665  10.300 -0.6518  0.4121 -0.9213
  189POPC   H4S21766   4.187   4.505  10.388 -0.7777  0.8767 -0.2619
  189POPC   C2521767   4.313   4.538  10.229 -0.6987  0.0593  0.5384
  189POPC   H5R21768   4.379   4.463  10.278  0.8667  0.7671 -0.4324
  189POPC   H5S21769   4.376   4.609  10.172 -0.1535  0.9675  2.2555
  189POPC   C2621770   4.235   4.453  10.135 -0.1330  0.7863  1.0665
  189POPC   H6R21771   4.155   4.509  10.081  0.2442 -0.1798 -0.5277
  189POPC   H6S21772   4.186   4.369  10.190  0.6432  0.1644  0.8082
  189POPC   C2721773   4.326   4.383  10.032 -0.7000  0.7154  0.0816
  189POPC   H7R21774   4.412   4.339  10.086 -0.1813 -1.9936 -2.8158
  189POPC   H7S21775   4.369   4.459   9.965 -0.2402  3.9323  3.8222
  189POPC   C2821776   4.255   4.273   9.955  0.3388 -0.1177  0.0901
  189POPC   H8R21777   4.220   4.198  10.029  0.4112  0.9965  1.2548
  189POPC   H8S21778   4.330   4.214   9.897  0.8500  2.1251 -1.5877
  189POPC   C2921779   4.130   4.322   9.880 -0.3009  0.4851 -0.3657
  189POPC   H9121780   4.049   4.360   9.944 -0.2904  0.0388 -0.0778
  189POPC  C21021781   4.122   4.318   9.749 -0.2422  0.4705  0.0728
  189POPC  H10121782   4.024   4.349   9.709 -0.1526  0.9841  0.2506
  189POPC  C21121783   4.215   4.276   9.633 -0.2464 -0.2590 -0.7632
  189POPC  H11R21784   4.259   4.174   9.646 -2.0645 -0.9840 -0.1567
  189POPC  H11S21785   4.301   4.345   9.620 -1.9999  1.7437 -1.8734
  189POPC  C21221786   4.143   4.286   9.494  0.5141  0.3924 -0.1629
  189POPC  H12R21787   4.082   4.378   9.482 -1.8141 -1.0996 -0.2243
  189POPC  H12S21788   4.073   4.200   9.482  1.2728 -0.2931  0.3051
  189POPC  C21321789   4.240   4.277   9.371  0.4371 -0.5673  0.0678
  189POPC  H13R21790   4.312   4.193   9.383  0.0381 -1.1332 -1.3706
  189POPC  H13S21791   4.286   4.374   9.347  1.7753 -1.7006 -2.1040
  189POPC  C21421792   4.158   4.242   9.246 -0.0590  0.7288  0.3699
  189POPC  H14R21793   4.060   4.294   9.248 -1.2481 -1.4330 -0.2838
  189POPC  H14S21794   4.139   4.132   9.247 -1.7163  1.0059 -0.0456
  189POPC  C21521795   4.228   4.277   9.110  0.2581 -0.3161  0.4834
  189POPC  H15R21796   4.334   4.244   9.110 -0.0622 -1.4255 -0.3239
  189POPC  H15S21797   4.240   4.387   9.101  1.4613 -0.3895  1.1635
  189POPC  C21621798   4.156   4.228   8.985  1.0228 -0.5614  0.0776
  189POPC  H16R21799   4.056   4.276   8.982  1.5457  0.4853 -1.1537
  189POPC  H16S21800   4.143   4.118   8.974 -2.0132 -0.3306  1.0340
  189POPC  C21721801   4.229   4.267   8.851  0.4614  0.0913  0.1951
  189POPC  H17R21802   4.269   4.369   8.873 -1.5561  0.5985  1.6236
  189POPC  H17S21803   4.162   4.288   8.765  0.6897  0.4161  0.0927
  189POPC  C21821804   4.349   4.185   8.806 -0.3540  0.1524  0.1744
  189POPC  H18R21805   4.407   4.235   8.726 -1.4599  1.5108  0.2094
  189POPC  H18S21806   4.316   4.088   8.764 -1.3621  0.2943  0.6131
  189POPC  H18T21807   4.416   4.161   8.892  0.1667 -0.6725 -0.4522
  189POPC   C3321808   4.711   5.057  10.200 -0.0982  0.2876  0.4920
  189POPC   H3X21809   4.642   5.125  10.255  0.6742 -0.2404  2.1400
  189POPC   H3Y21810   4.672   4.954  10.206  0.7322  0.0032  1.1389
  189POPC   C3421811   4.710   5.101  10.057  0.1683  0.6004 -0.1661
  189POPC   H4X21812   4.788   5.056   9.993 -1.2645 -0.4056 -1.2355
  189POPC   H4Y21813   4.718   5.212  10.054  2.2512  0.4512 -1.5240
  189POPC   C3521814   4.583   5.062   9.979  0.3922  0.1339  0.6035
  189POPC   H5X21815   4.494   5.080  10.043  0.8870  4.3731  0.1844
  189POPC   H5Y21816   4.583   4.950   9.978  3.9174  0.0730  0.2316
  189POPC   C3621817   4.579   5.122   9.840  0.4692  0.7328 -0.0682
  189POPC   H6X21818   4.598   5.231   9.846 -0.4432  0.8836  0.0454
  189POPC   H6Y21819   4.478   5.113   9.795  0.5196  1.3644 -0.3045
  189POPC   C3721820   4.669   5.054   9.746  0.4158 -0.1316  0.5540
  189POPC   H7X21821   4.630   4.951   9.727  2.5125 -0.5865 -1.5220
  189POPC   H7Y21822   4.769   5.026   9.786 -0.0220  1.2881  2.7370
  189POPC   C3821823   4.682   5.128   9.612  0.7689 -0.0887 -0.0690
  189POPC   H8X21824   4.773   5.183   9.580 -0.5920  2.4384  0.2045
  189POPC   H8Y21825   4.604   5.207   9.604  0.6570  0.0406  2.0826
  189POPC   C3921826   4.682   5.033   9.489 -0.5758  0.5670 -0.4177
  189POPC   H9X21827   4.600   4.960   9.510  1.9329 -1.2400  3.8038
  189POPC   H9Y21828   4.781   4.985   9.474 -0.3267  0.5146  1.2693
  189POPC  C31021829   4.639   5.116   9.368  0.3626  0.0031 -0.1021
  189POPC  H10X21830   4.687   5.216   9.378  0.7000 -0.2073  0.4476
  189POPC  H10Y21831   4.529   5.129   9.375  0.0693 -1.5534 -1.7465
  189POPC  C31121832   4.694   5.043   9.245  0.5927 -0.4888 -0.4026
  189POPC  H11X21833   4.620   4.962   9.222  0.3783  0.3386 -2.7859
  189POPC  H11Y21834   4.790   4.992   9.267  0.6417 -1.1923 -2.1745
  189POPC  C31221835   4.721   5.151   9.134 -1.1944 -0.1930 -1.0337
  189POPC  H12X21836   4.795   5.211   9.191 -2.6842  2.6603 -2.0140
  189POPC  H12Y21837   4.632   5.208   9.098 -1.4343  1.5324  2.1435
  189POPC  C31321838   4.784   5.093   9.010  0.2510 -0.7674  0.3731
  189POPC  H13X21839   4.846   5.172   8.962 -1.6423 -0.0286 -0.9262
  189POPC  H13Y21840   4.702   5.082   8.936  1.3021  0.1225 -0.9599
  189POPC  C31421841   4.869   4.973   9.015 -0.3392  0.0044 -0.0878
  189POPC  H14X21842   4.824   4.891   9.076  0.0232 -0.5973 -0.6271
  189POPC  H14Y21843   4.962   5.009   9.065  0.5919 -1.7355 -0.5510
  189POPC  C31521844   4.910   4.919   8.874  0.7346 -0.1061  0.6042
  189POPC  H15X21845   4.997   4.850   8.873 -0.4591 -1.6273 -1.3760
  189POPC  H15Y21846   4.949   5.009   8.822  1.2712  0.6879  2.3363
  189POPC  C31621847   4.806   4.845   8.797 -1.0194 -0.7600  0.1500
  189POPC  H16X21848   4.721   4.916   8.786 -0.5922 -0.2992 -0.1968
  189POPC  H16Y21849   4.756   4.762   8.852 -1.9569 -0.6080 -0.4529
  189POPC  H16Z21850   4.835   4.805   8.698 -1.1376  1.4436 -0.8073
  190POPC     N21851   6.215   0.056  11.214 -0.6016  0.0425  0.2895
  190POPC   C1221852   6.304   0.165  11.268 -0.6801 -0.5421 -0.7537
  190POPC  H12A21853   6.408   0.135  11.273 -0.5333  0.0857  0.1414
  190POPC  H12B21854   6.275   0.184  11.371  2.6192  2.2614 -0.2564
  190POPC   C1321855   6.069   0.080  11.237  0.0705 -0.5587 -0.2824
  190POPC  H13A21856   6.026   0.166  11.188 -1.1203 -0.5994  0.6760
  190POPC  H13B21857   6.031  -0.007  11.184  2.0345 -0.1585 -2.4728
  190POPC  H13C21858   6.040   0.091  11.340 -1.3471  1.3902 -0.8584
  190POPC   C1421859   6.239   0.038  11.070 -0.6526  0.5666  0.2430
  190POPC  H14A21860   6.152  -0.000  11.020 -1.4120 -0.5469  2.3557
  190POPC  H14B21861   6.252   0.137  11.028 -3.2955  1.6304  1.8398
  190POPC  H14C21862   6.333  -0.011  11.046 -0.4756  1.1924 -0.3579
  190POPC   C1521863   6.251  -0.070  11.283 -0.5074 -1.0636  0.1326
  190POPC  H15A21864   6.234  -0.053  11.388 -0.7572 -0.5148  0.0016
  190POPC  H15B21865   6.354  -0.101  11.268  0.2129  1.7982 -1.1053
  190POPC  H15C21866   6.193  -0.154  11.246 -1.3441 -0.3854 -0.1038
  190POPC   C1121867   6.317   0.298  11.181  0.0302 -0.7658 -0.3538
  190POPC  H11A21868   6.344   0.388  11.241 -1.0284  0.6391 -1.9263
  190POPC  H11B21869   6.212   0.319  11.151 -0.6697 -1.4746  1.5315
  190POPC     P21870   6.553   0.284  11.094  0.1473 -0.6541 -0.0845
  190POPC   O1321871   6.573   0.225  11.226 -0.3750 -0.2932 -0.3001
  190POPC   O1421872   6.611   0.418  11.072 -0.0249  0.2112 -0.0534
  190POPC   O1221873   6.402   0.277  11.062 -0.4025 -0.5786  0.4682
  190POPC   O1121874   6.616   0.183  10.998  0.1836 -0.3405  0.2750
  190POPC    C121875   6.544   0.148  10.873 -0.3152 -0.8395 -0.4505
  190POPC    HA21876   6.439   0.124  10.900 -1.5224  4.3361  0.0524
  190POPC    HB21877   6.585   0.053  10.833 -2.5861 -1.6241 -0.9518
  190POPC    C221878   6.549   0.251  10.748 -0.6766  0.1699  1.1717
  190POPC    HS21879   6.657   0.270  10.734 -0.9398  1.4318  0.8551
  190POPC   O2121880   6.476   0.372  10.785  0.3877 -0.2995 -0.0324
  190POPC   C2121881   6.523   0.482  10.734  0.1008  0.7969 -0.5526
  190POPC   O2221882   6.624   0.494  10.666 -0.1354  0.0859  0.2809
  190POPC   C2221883   6.428   0.597  10.785 -0.5800 -0.1836  0.0499
  190POPC   H2R21884   6.421   0.585  10.895 -0.3770 -5.4792 -0.4309
  190POPC   H2S21885   6.332   0.565  10.738  0.3089  0.3316 -2.1904
  190POPC    C321886   6.481   0.182  10.622 -0.0310 -0.2842  0.2541
  190POPC    HX21887   6.371   0.197  10.630 -0.0143  0.0543 -0.1324
  190POPC    HY21888   6.500   0.073  10.620 -2.0035 -0.6105 -1.2547
  190POPC   O3121889   6.530   0.232  10.494  0.2558 -0.8686 -0.1984
  190POPC   C3121890   6.452   0.323  10.432 -0.0534 -0.1004  0.2121
  190POPC   O3221891   6.335   0.337  10.450  0.0799  0.1208 -0.6344
  190POPC   C3221892   6.532   0.376  10.318  0.2463 -0.1809  0.3121
  190POPC   H2X21893   6.639   0.363  10.345  0.4476 -0.1557 -0.4738
  190POPC   H2Y21894   6.518   0.485  10.309 -1.0997 -0.4083 -0.4991
  190POPC   C2321895   6.460   0.743  10.736 -0.2643  0.4045  0.6100
  190POPC   H3R21896   6.554   0.769  10.789 -0.4347  0.3261  0.9536
  190POPC   H3S21897   6.384   0.816  10.769 -0.4317  0.0857  0.9274
  190POPC   C2421898   6.478   0.762  10.586  0.9251  0.1818  0.0213
  190POPC   H4R21899   6.572   0.712  10.555  0.6751 -1.2462  1.4993
  190POPC   H4S21900   6.497   0.870  10.573 -0.7006  0.3816 -0.7891
  190POPC   C2521901   6.356   0.721  10.504  0.1554 -0.2760 -0.1879
  190POPC   H5R21902   6.265   0.774  10.540 -0.0356  0.5505 -1.8506
  190POPC   H5S21903   6.341   0.610  10.507 -3.0047  0.0520 -1.6411
  190POPC   C2621904   6.369   0.763  10.364 -0.2252  0.9034  0.2184
  190POPC   H6R21905   6.455   0.714  10.314 -2.2725 -0.4405 -2.0399
  190POPC   H6S21906   6.378   0.873  10.351  0.7555  0.7845 -0.1366
  190POPC   C2721907   6.244   0.719  10.285  0.5774  0.9223 -0.2777
  190POPC   H7R21908   6.165   0.781  10.332 -0.1619 -0.1535 -0.0892
  190POPC   H7S21909   6.219   0.612  10.298 -2.1909  1.3974 -1.4835
  190POPC   C2821910   6.256   0.760  10.142 -0.2999  0.1306 -0.4675
  190POPC   H8R21911   6.260   0.871  10.143 -1.5389  0.1790  0.7087
  190POPC   H8S21912   6.156   0.727  10.106 -0.2487 -0.9956  0.3969
  190POPC   C2921913   6.378   0.701  10.064 -0.1253 -0.3715  0.0779
  190POPC   H9121914   6.477   0.738  10.096 -0.6136  0.9432  0.0865
  190POPC  C21021915   6.360   0.626   9.952 -0.4341  0.0395  0.3542
  190POPC  H10121916   6.445   0.600   9.887 -1.2747  1.1279 -1.2153
  190POPC  C21121917   6.230   0.586   9.890  0.0841  0.5245 -0.3378
  190POPC  H11R21918   6.148   0.583   9.965  1.3477  1.7251  1.1246
  190POPC  H11S21919   6.244   0.482   9.852  0.1170  0.3876  0.0415
  190POPC  C21221920   6.181   0.667   9.778  0.2066  0.7572 -0.1623
  190POPC  H12R21921   6.184   0.778   9.786  1.5228  0.6877  0.4007
  190POPC  H12S21922   6.077   0.638   9.753  0.9430 -0.9546 -1.3949
  190POPC  C21321923   6.269   0.629   9.650  0.2812 -0.1918 -0.2082
  190POPC  H13R21924   6.278   0.519   9.637 -0.9532 -0.1318 -1.7343
  190POPC  H13S21925   6.369   0.675   9.665  0.7347 -0.3465 -2.5580
  190POPC  C21421926   6.215   0.677   9.515  0.0753  0.0073 -0.3354
  190POPC  H14R21927   6.184   0.782   9.531  1.5581  0.2830  0.8027
  190POPC  H14S21928   6.117   0.628   9.495 -0.6775  1.0811  0.6730
  190POPC  C21521929   6.301   0.657   9.392 -0.7942 -0.3224 -0.3146
  190POPC  H15R21930   6.341   0.553   9.390 -1.3116 -0.5182 -0.3524
  190POPC  H15S21931   6.388   0.726   9.385 -1.8544  1.0270 -0.3948
  190POPC  C21621932   6.220   0.662   9.260 -0.2222  0.2611 -0.9572
  190POPC  H16R21933   6.173   0.762   9.250 -1.8082 -0.5388 -1.5966
  190POPC  H16S21934   6.133   0.593   9.257 -1.3566  1.6936 -1.6295
  190POPC  C21721935   6.303   0.622   9.136  0.3275 -0.1004  0.1913
  190POPC  H17R21936   6.344   0.520   9.151 -1.4883 -0.5812  2.0460
  190POPC  H17S21937   6.403   0.669   9.122  0.4082  0.0686  1.3101
  190POPC  C21821938   6.225   0.658   9.007 -0.5956 -0.1607 -0.0532
  190POPC  H18R21939   6.151   0.579   8.980  0.2515 -1.3937  1.1270
  190POPC  H18S21940   6.299   0.663   8.924  1.4685  0.7895  1.7859
  190POPC  H18T21941   6.168   0.751   9.028 -1.0566  0.0079 -1.9207
  190POPC   C3321942   6.484   0.302  10.187  0.5255  0.3196  0.8167
  190POPC   H3X21943   6.380   0.339  10.174 -0.3367 -1.3048  2.7767
  190POPC   H3Y21944   6.478   0.192  10.183 -0.5704  0.4385 -1.9758
  190POPC   C3421945   6.578   0.347  10.081 -0.1639 -0.3333 -0.7281
  190POPC   H4X21946   6.674   0.294  10.094 -0.6841 -1.7982 -2.6874
  190POPC   H4Y21947   6.593   0.457  10.075 -1.2538 -0.1243  0.2464
  190POPC   C3521948   6.524   0.291   9.950  0.1054 -0.0278 -0.6132
  190POPC   H5X21949   6.416   0.310   9.937  0.0621  1.2041  1.3041
  190POPC   H5Y21950   6.545   0.183   9.959  0.4944  0.2810  2.9221
  190POPC   C3621951   6.599   0.349   9.829  0.4229  0.1448 -0.3685
  190POPC   H6X21952   6.702   0.313   9.847 -0.1187 -1.1160  0.2344
  190POPC   H6Y21953   6.585   0.459   9.818 -1.0302 -0.0723 -0.8338
  190POPC   C3721954   6.562   0.274   9.695  0.3880 -0.1444 -0.1130
  190POPC   H7X21955   6.456   0.304   9.681 -0.2841 -1.9831  0.8772
  190POPC   H7Y21956   6.560   0.164   9.708  1.5216 -0.4366 -2.2649
  190POPC   C3821957   6.658   0.298   9.583 -0.2810  0.3425  0.3627
  190POPC   H8X21958   6.736   0.219   9.582  2.1906  2.7155  0.9442
  190POPC   H8Y21959   6.721   0.387   9.602  0.9663 -0.2327 -0.9859
  190POPC   C3921960   6.588   0.295   9.446  0.0889 -0.2996  0.8907
  190POPC   H9X21961   6.502   0.364   9.451  0.9295  0.7749  0.6819
  190POPC   H9Y21962   6.547   0.192   9.437 -0.9745 -0.0766  2.8421
  190POPC  C31021963   6.674   0.321   9.321 -1.0908 -0.6431 -0.1266
  190POPC  H10X21964   6.747   0.236   9.323  1.8007  1.7130 -1.6162
  190POPC  H10Y21965   6.734   0.412   9.345 -0.7125 -1.0724  0.5987
  190POPC  C31121966   6.595   0.333   9.188 -0.3064 -0.3532 -0.3957
  190POPC  H11X21967   6.521   0.414   9.201 -1.9316 -1.4662 -2.4787
  190POPC  H11Y21968   6.545   0.237   9.163  0.3999 -1.3137  1.7466
  190POPC  C31221969   6.677   0.367   9.062 -0.0797  0.4965  0.1956
  190POPC  H12X21970   6.752   0.286   9.063 -0.3006  0.2856 -0.0966
  190POPC  H12Y21971   6.743   0.455   9.069  0.4255  0.2704 -1.6191
  190POPC  C31321972   6.597   0.368   8.929 -0.4696  0.5126 -0.2725
  190POPC  H13X21973   6.522   0.449   8.918 -1.2784  0.1249  2.2232
  190POPC  H13Y21974   6.538   0.275   8.924 -2.6303  1.7299  1.8042
  190POPC  C31421975   6.697   0.379   8.813  0.2054 -0.2729 -0.3157
  190POPC  H14X21976   6.762   0.289   8.818  2.1441  1.0771 -0.4331
  190POPC  H14Y21977   6.766   0.465   8.830  1.1413 -0.5457 -2.4483
  190POPC  C31521978   6.651   0.408   8.670  0.6438 -0.0771  0.1669
  190POPC  H15X21979   6.738   0.431   8.605  0.7007 -3.3548 -1.0011
  190POPC  H15Y21980   6.591   0.501   8.679 -1.0608 -1.4248  3.6372
  190POPC  C31621981   6.565   0.292   8.605 -0.2895  0.1119 -0.2827
  190POPC  H16X21982   6.484   0.247   8.666  0.2980 -1.8761 -0.9200
  190POPC  H16Y21983   6.636   0.217   8.563  0.6542  0.9401 -0.1753
  190POPC  H16Z21984   6.524   0.330   8.508 -0.8786 -0.1009 -0.1194
  191POPC     N21985   6.233   2.152   5.967 -0.3180  0.5499  0.2642
  191POPC   C1221986   6.257   2.300   5.973  0.1026 -0.4478  0.6245
  191POPC  H12A21987   6.265   2.327   5.869  1.0269 -1.3894  0.4403
  191POPC  H12B21988   6.354   2.334   6.007  1.4131 -1.4140 -1.9829
  191POPC   C1321989   6.350   2.089   5.899  0.1546  0.3920  0.1249
  191POPC  H13A21990   6.436   2.105   5.961  0.8563  0.8303 -0.9586
  191POPC  H13B21991   6.347   1.981   5.903  1.4542  0.3875  1.3278
  191POPC  H13C21992   6.376   2.132   5.804  0.1506  2.4495  1.0264
  191POPC   C1421993   6.215   2.079   6.104  0.0474  0.7696  0.9234
  191POPC  H14A21994   6.302   2.072   6.167 -1.0438  0.2746  2.4294
  191POPC  H14B21995   6.142   2.128   6.168  2.2237  0.4127  3.7783
  191POPC  H14C21996   6.178   1.979   6.086  2.0597  0.2289 -0.2694
  191POPC   C1521997   6.112   2.125   5.882 -0.6762 -0.2494 -0.2109
  191POPC  H15A21998   6.026   2.173   5.927  1.4844  2.0823  1.6049
  191POPC  H15B21999   6.096   2.019   5.871 -2.3965  0.0304 -0.5111
  191POPC  H15C22000   6.117   2.175   5.787 -0.7192  0.2044  0.0216
  191POPC   C1122001   6.155   2.383   6.054 -0.0721 -0.9137  0.0068
  191POPC  H11A22002   6.054   2.345   6.030 -1.2141  2.7653 -1.3315
  191POPC  H11B22003   6.155   2.493   6.038 -0.8455 -0.5066  2.5262
  191POPC     P22004   6.287   2.410   6.283  0.2865 -0.0265 -0.0199
  191POPC   O1322005   6.262   2.551   6.319 -0.1538 -0.3757 -0.2760
  191POPC   O1422006   6.415   2.389   6.203 -0.2380 -0.2976 -0.4845
  191POPC   O1222007   6.160   2.356   6.193 -0.2829 -0.4078  0.5188
  191POPC   O1122008   6.281   2.319   6.405  0.6197  0.0584 -0.1149
  191POPC    C122009   6.159   2.300   6.484  0.0361  0.1513  0.0811
  191POPC    HA22010   6.093   2.223   6.437  0.5338  1.4286 -2.8167
  191POPC    HB22011   6.099   2.393   6.475  0.2909  0.4697  1.7090
  191POPC    C222012   6.187   2.254   6.635 -0.3458  0.3926 -0.4770
  191POPC    HS22013   6.086   2.240   6.679 -0.3572 -1.0541 -0.9648
  191POPC   O2122014   6.255   2.346   6.720 -0.0748  0.0815 -0.3158
  191POPC   C2122015   6.198   2.467   6.733  0.2597 -0.2920  0.3688
  191POPC   O2222016   6.088   2.500   6.686  0.2250 -0.8380  0.2917
  191POPC   C2222017   6.295   2.553   6.821 -0.8874  0.0097  1.0205
  191POPC   H2R22018   6.354   2.623   6.758  2.9255 -1.6600  2.5875
  191POPC   H2S22019   6.369   2.489   6.873 -1.7657 -1.1523  0.8756
  191POPC    C322020   6.261   2.116   6.633  0.3148  0.0302 -0.1305
  191POPC    HX22021   6.370   2.125   6.617  0.7365 -1.2462  1.8119
  191POPC    HY22022   6.216   2.065   6.545  1.2835 -0.9341 -0.0674
  191POPC   O3122023   6.222   2.055   6.750  0.3576 -0.1211 -0.5321
  191POPC   C3122024   6.305   1.958   6.788  0.8902 -0.1493  0.0974
  191POPC   O3222025   6.382   1.901   6.713 -0.4397  0.3871 -0.2512
  191POPC   C3222026   6.288   1.930   6.939 -0.6755 -0.6240 -0.1351
  191POPC   H2X22027   6.217   1.990   7.000  0.7228 -0.3436  1.2446
  191POPC   H2Y22028   6.384   1.965   6.982 -1.0838 -0.0891  0.3595
  191POPC   C2322029   6.222   2.639   6.922  0.3545 -0.8309  0.0412
  191POPC   H3R22030   6.135   2.592   6.972  0.8292 -1.5663  0.1812
  191POPC   H3S22031   6.173   2.726   6.872 -0.9670 -1.4285  0.2699
  191POPC   C2422032   6.312   2.699   7.030  0.4187  0.0282 -0.5285
  191POPC   H4R22033   6.352   2.794   6.988  1.2268  0.5461  1.3903
  191POPC   H4S22034   6.388   2.625   7.061  2.0383  0.5968 -2.9287
  191POPC   C2522035   6.232   2.744   7.146 -1.1494  0.0987 -0.0513
  191POPC   H5R22036   6.148   2.800   7.100 -1.4960 -1.3236 -1.1982
  191POPC   H5S22037   6.294   2.821   7.196  0.5237 -0.1409 -1.7157
  191POPC   C2622038   6.193   2.631   7.240 -0.3051 -0.8130  0.0760
  191POPC   H6R22039   6.170   2.536   7.187  0.2017 -0.7975 -0.1723
  191POPC   H6S22040   6.093   2.648   7.286 -0.9177 -2.7496 -0.4706
  191POPC   C2722041   6.292   2.618   7.359 -0.4086 -0.7202  0.3334
  191POPC   H7R22042   6.287   2.720   7.403 -2.1708 -0.0457 -1.3369
  191POPC   H7S22043   6.398   2.607   7.326 -0.5850 -1.0509 -0.1313
  191POPC   C2822044   6.257   2.514   7.466 -0.3130 -0.1358  0.2429
  191POPC   H8R22045   6.247   2.424   7.403  0.0112 -0.5815  0.8243
  191POPC   H8S22046   6.161   2.542   7.514 -0.8410  0.0994 -0.9210
  191POPC   C2922047   6.366   2.487   7.567 -0.5764  0.4931 -0.5031
  191POPC   H9122048   6.456   2.436   7.531 -1.6620 -1.9694  0.1314
  191POPC  C21022049   6.356   2.512   7.701 -0.2206  0.3276 -0.2962
  191POPC  H10122050   6.441   2.495   7.769  1.8640  1.7633 -2.4566
  191POPC  C21122051   6.233   2.564   7.771  0.2087 -0.1170 -0.3934
  191POPC  H11R22052   6.134   2.549   7.724 -0.6421 -0.2691  1.4026
  191POPC  H11S22053   6.246   2.674   7.761  0.0177  0.1601  2.1428
  191POPC  C21222054   6.242   2.535   7.924  0.2567  0.0304 -0.2548
  191POPC  H12R22055   6.142   2.559   7.966  1.0126  0.6098  1.2623
  191POPC  H12S22056   6.319   2.608   7.956 -0.7871  0.1426  2.1726
  191POPC  C21322057   6.276   2.398   7.969  0.0971  0.3721 -0.8097
  191POPC  H13R22058   6.355   2.342   7.915  0.9441  1.3571 -0.5986
  191POPC  H13S22059   6.184   2.337   7.961 -0.6665  1.1045  1.8853
  191POPC  C21422060   6.305   2.388   8.120  0.4640 -0.5492  0.4698
  191POPC  H14R22061   6.227   2.452   8.168  1.6935 -0.4292  2.3819
  191POPC  H14S22062   6.400   2.437   8.152  0.3849 -1.2173  1.7674
  191POPC  C21522063   6.321   2.251   8.185 -0.0308  1.1929 -0.0487
  191POPC  H15R22064   6.418   2.207   8.152  0.2560  0.0786  2.1665
  191POPC  H15S22065   6.252   2.178   8.139  1.0116  0.4304 -0.4269
  191POPC  C21622066   6.327   2.255   8.338 -0.3283 -0.7049 -0.0517
  191POPC  H16R22067   6.375   2.347   8.376 -1.8988  1.5577 -3.3483
  191POPC  H16S22068   6.376   2.168   8.388  0.4891 -0.4641 -0.4251
  191POPC  C21722069   6.184   2.256   8.388  0.7017  0.4027  0.1521
  191POPC  H17R22070   6.129   2.178   8.331  1.6144 -1.0254  1.1857
  191POPC  H17S22071   6.134   2.355   8.381 -0.0562 -0.0517 -1.0462
  191POPC  C21822072   6.171   2.214   8.537  0.3139  0.1312 -0.3345
  191POPC  H18R22073   6.225   2.287   8.601  2.1161  0.4079 -2.1046
  191POPC  H18S22074   6.206   2.111   8.558 -1.2811 -0.4203 -0.2888
  191POPC  H18T22075   6.063   2.216   8.564  0.1741 -3.6353 -0.4019
  191POPC   C3322076   6.276   1.780   6.974  0.1073 -0.9971  0.5474
  191POPC   H3X22077   6.354   1.720   6.924  1.2196  1.3052 -0.5405
  191POPC   H3Y22078   6.173   1.743   6.956 -0.9082  2.4399 -1.0017
  191POPC   C3422079   6.310   1.773   7.123 -0.2230  0.2869 -0.6078
  191POPC   H4X22080   6.241   1.838   7.182 -0.4336 -0.6840  0.2297
  191POPC   H4Y22081   6.406   1.828   7.138  0.1816 -1.1363  2.4846
  191POPC   C3522082   6.290   1.637   7.193  0.0565 -0.4359  0.5845
  191POPC   H5X22083   6.352   1.556   7.148  1.3804 -0.5167  2.5200
  191POPC   H5Y22084   6.181   1.615   7.186  0.3603 -2.0840  0.7774
  191POPC   C3622085   6.333   1.646   7.344 -0.1622 -0.1383  0.4352
  191POPC   H6X22086   6.295   1.737   7.395  0.4222  0.7575 -0.6892
  191POPC   H6Y22087   6.441   1.661   7.362 -0.2883 -1.2603  2.2574
  191POPC   C3722088   6.270   1.526   7.413 -0.3651  0.1266 -0.1728
  191POPC   H7X22089   6.288   1.432   7.355 -0.5397  0.2898 -0.4922
  191POPC   H7Y22090   6.160   1.536   7.401 -0.2570 -0.0223 -1.4221
  191POPC   C3822091   6.299   1.509   7.565 -0.1003 -0.0597 -0.6407
  191POPC   H8X22092   6.321   1.614   7.594  0.8394 -0.8658  1.6995
  191POPC   H8Y22093   6.392   1.451   7.580  0.6263  1.2386 -0.0509
  191POPC   C3922094   6.183   1.452   7.642  0.6973  0.3228 -0.6155
  191POPC   H9X22095   6.172   1.345   7.615 -1.4432 -0.1502  2.0387
  191POPC   H9Y22096   6.088   1.506   7.620  0.8147  0.4132 -0.9053
  191POPC  C31022097   6.201   1.472   7.794 -0.4475 -0.1765 -0.2072
  191POPC  H10X22098   6.194   1.581   7.811  2.3910  0.0472 -0.2867
  191POPC  H10Y22099   6.301   1.431   7.818 -0.8394  0.2529  2.3449
  191POPC  C31122100   6.105   1.393   7.874  0.6475  0.6659 -0.0782
  191POPC  H11X22101   6.097   1.292   7.829  1.1987 -0.1539  1.6157
  191POPC  H11Y22102   6.006   1.439   7.853 -0.5871 -2.1074 -0.5487
  191POPC  C31222103   6.124   1.388   8.025  0.5031 -0.2586  0.1192
  191POPC  H12X22104   6.125   1.495   8.052 -0.5356 -0.4413  0.9073
  191POPC  H12Y22105   6.223   1.344   8.048  1.2491  0.5515 -1.4575
  191POPC  C31322106   6.009   1.309   8.091  0.1881 -0.0145 -0.0564
  191POPC  H13X22107   6.013   1.200   8.071 -0.6915 -0.3485  1.5153
  191POPC  H13Y22108   5.915   1.348   8.046  0.6725  0.9255 -0.2615
  191POPC  C31422109   6.003   1.333   8.246 -0.2200  0.7846 -0.2854
  191POPC  H14X22110   5.997   1.444   8.258  0.6458  0.9265 -1.1046
  191POPC  H14Y22111   6.098   1.305   8.298 -1.5957 -1.4588  1.0849
  191POPC  C31522112   5.889   1.267   8.313  0.2511  1.3947 -0.4469
  191POPC  H15X22113   5.898   1.311   8.415  3.3231  0.4807 -0.2884
  191POPC  H15Y22114   5.914   1.159   8.322 -1.3719  1.0434  0.0815
  191POPC  C31622115   5.749   1.267   8.241  0.2014  0.7927  0.1302
  191POPC  H16X22116   5.724   1.372   8.217 -0.2956  0.8635  0.9370
  191POPC  H16Y22117   5.674   1.231   8.315  0.0531 -1.0605 -0.8679
  191POPC  H16Z22118   5.752   1.208   8.147  1.6649 -0.0307  0.6630
  192POPC     N22119   4.709   5.512   5.966 -0.3730  0.2014  0.0622
  192POPC   C1222120   4.737   5.376   6.035  0.7706  0.0923  0.2543
  192POPC  H12A22121   4.647   5.317   6.043 -0.2572  1.3312 -1.6027
  192POPC  H12B22122   4.766   5.409   6.134 -0.5606  0.8245  0.4151
  192POPC   C1322123   4.661   5.488   5.824 -0.4606 -0.7424 -0.2247
  192POPC  H13A22124   4.632   5.581   5.778  0.4032 -0.2003  0.3176
  192POPC  H13B22125   4.744   5.451   5.766 -0.0456 -0.3369  0.1048
  192POPC  H13C22126   4.587   5.410   5.825 -1.0149 -0.2302  1.6275
  192POPC   C1422127   4.606   5.580   6.051  0.1143 -0.0248 -0.0354
  192POPC  H14A22128   4.579   5.675   6.007  2.8357 -0.2667 -2.3767
  192POPC  H14B22129   4.522   5.516   6.073 -0.0382  0.5337  1.0452
  192POPC  H14C22130   4.639   5.604   6.151 -1.5072  0.9153  0.2896
  192POPC   C1522131   4.822   5.607   5.960 -0.4492  0.1791  0.1014
  192POPC  H15A22132   4.898   5.548   5.910 -0.0933  0.6767  0.0572
  192POPC  H15B22133   4.839   5.654   6.055 -0.5367  0.1520  0.1296
  192POPC  H15C22134   4.793   5.692   5.901 -0.2416 -0.1393 -0.4714
  192POPC   C1122135   4.850   5.288   5.978 -0.8025 -0.0858 -0.2539
  192POPC  H11A22136   4.819   5.267   5.874  0.4053  0.6259 -0.7803
  192POPC  H11B22137   4.853   5.192   6.034 -0.2499  0.0736 -0.0083
  192POPC     P22138   5.045   5.360   6.136 -0.0901 -0.1137 -0.0340
  192POPC   O1322139   4.942   5.364   6.237 -0.3038 -0.5294 -0.3031
  192POPC   O1422140   5.138   5.474   6.142  0.1682  0.2010  0.2265
  192POPC   O1222141   4.982   5.347   5.994 -0.2336 -0.1593 -0.4298
  192POPC   O1122142   5.135   5.236   6.150  0.4022  0.4247  0.1601
  192POPC    C122143   5.083   5.122   6.224  0.0781 -0.6004  0.1859
  192POPC    HA22144   5.143   5.034   6.191  0.6848 -0.4801  0.9446
  192POPC    HB22145   4.979   5.099   6.195  1.3890 -3.1322 -2.8152
  192POPC    C222146   5.100   5.135   6.382  0.4444 -0.4952  0.6617
  192POPC    HS22147   5.051   5.225   6.425  0.5264  0.0552 -0.4010
  192POPC   O2122148   5.244   5.129   6.393  0.3726  0.4040 -0.4625
  192POPC   C2122149   5.301   5.210   6.475 -0.1154  0.0105  0.4075
  192POPC   O2222150   5.252   5.304   6.541 -0.1208 -0.4317  0.5054
  192POPC   C2222151   5.448   5.167   6.492  0.4945 -0.0787  0.2484
  192POPC   H2R22152   5.505   5.167   6.397  0.3820  0.6946  0.1733
  192POPC   H2S22153   5.454   5.061   6.523 -0.4482  0.8074  3.8119
  192POPC    C322154   5.044   5.009   6.453 -0.2394 -0.5480 -0.1372
  192POPC    HX22155   5.083   4.914   6.413  1.6362 -0.7269  2.0072
  192POPC    HY22156   4.937   5.003   6.422  0.3450 -1.1732 -2.0877
  192POPC   O3122157   5.059   5.003   6.593  0.1925  0.3425  0.4098
  192POPC   C3122158   4.957   5.047   6.660  0.4764  0.2136 -0.2218
  192POPC   O3222159   4.856   5.103   6.613  0.1073  0.2079  0.3514
  192POPC   C3222160   4.970   5.035   6.813  0.5028  0.2646 -0.5186
  192POPC   H2X22161   4.880   5.090   6.848  0.6404  0.5059 -0.5401
  192POPC   H2Y22162   5.058   5.086   6.859 -1.0510  0.7076  2.0637
  192POPC   C2322163   5.514   5.237   6.603 -0.2164  0.2857  0.0328
  192POPC   H3R22164   5.511   5.346   6.585  1.3388  0.7310  2.1357
  192POPC   H3S22165   5.624   5.221   6.617 -0.2923  0.8027  1.2921
  192POPC   C2422166   5.451   5.220   6.746 -0.0262  0.0288 -0.0539
  192POPC   H4R22167   5.350   5.266   6.748 -0.9345 -1.9139 -0.3278
  192POPC   H4S22168   5.516   5.285   6.808  0.5231 -0.3376 -0.2302
  192POPC   C2522169   5.454   5.078   6.792  0.6811  0.0607 -0.7432
  192POPC   H5R22170   5.559   5.053   6.818 -0.2942  0.1021  3.5871
  192POPC   H5S22171   5.425   4.994   6.725 -3.3658 -1.0094  2.1909
  192POPC   C2622172   5.380   5.051   6.920 -0.2029  0.1562  0.2181
  192POPC   H6R22173   5.379   4.942   6.939 -3.1346 -0.3799 -2.4891
  192POPC   H6S22174   5.275   5.072   6.891 -0.5961 -2.8974 -0.6852
  192POPC   C2722175   5.434   5.126   7.043 -0.2275  0.8133 -0.7648
  192POPC   H7R22176   5.423   5.235   7.059 -0.7800  0.6700 -0.1315
  192POPC   H7S22177   5.538   5.093   7.065 -1.7314 -2.6002  1.8392
  192POPC   C2822178   5.368   5.066   7.169  0.0578 -0.3767 -0.3832
  192POPC   H8R22179   5.378   4.955   7.162  0.4718 -0.4317  0.9716
  192POPC   H8S22180   5.262   5.095   7.158  1.0867  2.9648 -2.1288
  192POPC   C2922181   5.406   5.121   7.299 -0.2084 -0.2919  0.3607
  192POPC   H9122182   5.380   5.228   7.307 -2.2492 -0.7192 -0.2560
  192POPC  C21022183   5.478   5.063   7.395  0.0208  0.0459  0.2466
  192POPC  H10122184   5.504   5.115   7.489  0.1140 -1.2669  0.9623
  192POPC  C21122185   5.537   4.927   7.396 -0.4497  0.0502 -0.1571
  192POPC  H11R22186   5.639   4.919   7.440 -0.8301  1.6826  1.0768
  192POPC  H11S22187   5.546   4.885   7.294 -1.6609  2.2748 -1.2123
  192POPC  C21222188   5.461   4.838   7.490  0.3936 -0.0311  0.1961
  192POPC  H12R22189   5.516   4.742   7.480 -0.4529 -0.3483 -1.4330
  192POPC  H12S22190   5.357   4.821   7.456  0.4846  1.5182 -0.9015
  192POPC  C21322191   5.458   4.870   7.638  0.8151 -0.8179  0.7382
  192POPC  H13R22192   5.480   4.977   7.656  0.2511 -0.5218 -0.2714
  192POPC  H13S22193   5.549   4.816   7.672  0.1917 -1.4937  1.3625
  192POPC  C21422194   5.333   4.826   7.711 -0.3445  0.1988  0.4140
  192POPC  H14R22195   5.313   4.717   7.700  0.2076  0.0987  0.3754
  192POPC  H14S22196   5.246   4.878   7.665  1.6711  1.9028 -1.6167
  192POPC  C21522197   5.326   4.866   7.860 -0.3880  0.0528  0.7247
  192POPC  H15R22198   5.344   4.974   7.874 -0.3288  0.4477 -2.1230
  192POPC  H15S22199   5.419   4.826   7.907 -0.4581  1.0640  1.7554
  192POPC  C21622200   5.194   4.820   7.933 -0.0892  0.4004 -0.3593
  192POPC  H16R22201   5.176   4.710   7.931 -1.9654  0.6780  0.4973
  192POPC  H16S22202   5.109   4.863   7.875 -0.2114  0.6343 -0.0047
  192POPC  C21722203   5.198   4.867   8.076 -0.1604 -0.4360 -0.0765
  192POPC  H17R22204   5.226   4.975   8.073  1.5835 -0.8589  0.5109
  192POPC  H17S22205   5.288   4.817   8.118 -0.9769 -0.6831  1.4411
  192POPC  C21822206   5.078   4.839   8.168  0.1373  0.0788 -0.0102
  192POPC  H18R22207   4.994   4.911   8.156  0.8941  1.0027  0.1533
  192POPC  H18S22208   5.114   4.842   8.273  0.1997 -1.7280  0.0293
  192POPC  H18T22209   5.036   4.741   8.139  0.4175  0.5223 -2.0284
  192POPC   C3322210   4.970   4.890   6.861  0.2018 -0.3856  0.1325
  192POPC   H3X22211   5.067   4.839   6.846  0.6372  0.4465  0.1155
  192POPC   H3Y22212   4.884   4.846   6.806  0.0749  1.8105 -1.4837
  192POPC   C3422213   4.921   4.888   7.014  0.5896  0.4736 -0.6424
  192POPC   H4X22214   4.891   4.785   7.041 -0.7373  1.7060  2.9931
  192POPC   H4Y22215   4.831   4.951   7.029  0.4787 -0.1343  1.4339
  192POPC   C3522216   5.037   4.913   7.114 -0.8609 -0.4934  0.7731
  192POPC   H5X22217   5.065   5.018   7.092 -0.9890 -0.4553  0.7937
  192POPC   H5Y22218   5.132   4.865   7.084 -1.9892 -0.6806 -2.7097
  192POPC   C3622219   5.003   4.916   7.265 -0.5004 -0.6410 -0.2282
  192POPC   H6X22220   5.003   4.813   7.306 -2.6809 -0.0648  1.2840
  192POPC   H6Y22221   4.902   4.960   7.281 -1.0054 -0.9513 -2.4361
  192POPC   C3722222   5.095   5.004   7.350  0.0551 -0.3388  0.6293
  192POPC   H7X22223   5.107   5.105   7.305 -1.8293 -1.1374 -1.8023
  192POPC   H7Y22224   5.198   4.962   7.347 -0.0424 -0.5543  0.2542
  192POPC   C3822225   5.040   5.007   7.494 -0.6098 -0.0104 -0.1393
  192POPC   H8X22226   5.059   4.909   7.541  1.8089  1.1139  1.3302
  192POPC   H8Y22227   4.933   5.036   7.502 -0.8817 -1.0441 -0.0816
  192POPC   C3922228   5.092   5.118   7.587  0.2396 -0.5420 -0.5039
  192POPC   H9X22229   5.077   5.213   7.534 -3.6735 -0.0867  1.2706
  192POPC   H9Y22230   5.201   5.103   7.602  0.2956 -0.4822 -0.8576
  192POPC  C31022231   5.012   5.133   7.717 -0.2224 -0.2716 -0.8335
  192POPC  H10X22232   5.000   5.037   7.772 -1.6612 -0.2202 -1.0624
  192POPC  H10Y22233   4.910   5.171   7.698  1.6423  4.8402 -1.2770
  192POPC  C31122234   5.066   5.243   7.813 -0.2676  0.4257 -0.6568
  192POPC  H11X22235   5.087   5.334   7.753  2.5236  0.6198  0.5243
  192POPC  H11Y22236   5.165   5.204   7.846 -1.5934 -0.1674  2.7648
  192POPC  C31222237   4.981   5.267   7.943  0.1236  0.3442  0.1754
  192POPC  H12X22238   4.935   5.167   7.962  1.8404 -0.1763  1.7776
  192POPC  H12Y22239   4.899   5.341   7.933 -2.0625 -2.1568 -1.0142
  192POPC  C31322240   5.061   5.303   8.064 -0.6408  0.5149 -0.3349
  192POPC  H13X22241   5.080   5.412   8.060  1.2964  0.2361  0.6949
  192POPC  H13Y22242   5.158   5.251   8.073 -0.5205  0.8393  0.2661
  192POPC  C31422243   4.978   5.265   8.182 -0.1808 -0.1018 -0.0592
  192POPC  H14X22244   4.937   5.162   8.167 -1.8514  0.3722  1.1429
  192POPC  H14Y22245   4.903   5.347   8.186 -2.0164 -1.7085 -0.4790
  192POPC  C31522246   5.060   5.260   8.318 -0.2681  1.1460  0.3120
  192POPC  H15X22247   5.103   5.360   8.340  0.8438  0.7196  0.1053
  192POPC  H15Y22248   5.141   5.185   8.312  0.6222  2.0792  0.5312
  192POPC  C31622249   4.960   5.233   8.431  0.2558 -0.1065 -0.3490
  192POPC  H16X22250   5.016   5.238   8.528 -3.5740  3.4007  1.8265
  192POPC  H16Y22251   4.917   5.133   8.411 -0.4019 -0.2567  1.7322
  192POPC  H16Z22252   4.880   5.310   8.431 -1.0371 -1.3741  2.6077
  193SOD    SOD22253   1.536   4.325   5.397 -0.1895 -0.5382  0.1330
  194SOD    SOD22254   6.364   3.558   3.986  0.1994  0.4268 -0.0432
  195SOD    SOD22255   1.292   2.469   2.289 -0.5896  0.2179  0.4561
  196SOD    SOD22256   5.587   4.443   2.614  0.1081  0.2094 -0.3684
  197SOD    SOD22257   0.089   3.052   5.206 -0.1363  0.2256 -0.0016
  198SOD    SOD22258   1.950   1.015   5.434 -0.4711 -0.0521 -0.5786
  199SOD    SOD22259   0.338   6.227  13.632  0.1994  0.0212  0.0032
  200SOD    SOD22260   1.495   0.657  17.072 -0.3011 -0.1391  0.1314
  201SOD    SOD22261   5.773   4.027  15.376  0.1218  0.3318 -0.2747
  202SOD    SOD22262   4.816   3.062  16.269  0.8603  0.4483  0.4216
  203SOD    SOD22263   1.946   6.302  15.339 -0.2548 -0.0530 -0.1469
  204SOD    SOD22264   1.367   0.542   2.106 -0.0524  0.2517  0.2567
  205SOD    SOD22265   5.470   1.696  15.468  0.4147 -0.4299 -0.5129
  206SOD    SOD22266   5.936   5.352   0.235  0.0760  0.1167  0.1194
  207SOD    SOD22267   2.671   2.680  14.512 -0.4340 -0.0646 -0.1149
  208SOD    SOD22268   6.244   1.699   1.094 -0.3768  0.2797  0.2564
  209SOD    SOD22269   5.371   2.521  13.334  0.2247  0.5138 -0.3011
  210SOD    SOD22270   6.703   1.732  10.798 -0.4665  0.0461  0.3899
  211SOD    SOD22271   3.298   4.384   3.502 -0.2010 -0.5500  0.0885
  212SOD    SOD22272   4.320   0.923   3.833 -0.2985 -0.0645 -0.0326
  213SOD    SOD22273   0.471   5.636  10.811 -0.2261  0.0733  0.1392
  214SOD    SOD22274   5.546   4.477   3.779 -0.0527  0.2943  0.0899
  215SOD    SOD22275   1.045   2.164   4.516 -0.0283  0.2015  0.5511
  216SOD    SOD22276   0.331   1.436   6.187  0.2055 -0.0485  0.3855
  217SOD    SOD22277   5.892   2.658   6.351 -0.1551 -0.0114 -0.1581
  218SOD    SOD22278   3.550   3.901   4.854 -0.0515 -0.2305  0.1357
  219SOD    SOD22279   0.383   6.269  16.150 -0.5043 -0.0932 -0.6619
  220SOD    SOD22280   4.478   1.128  10.783 -0.2671 -0.2517  0.4573
  221SOD    SOD22281   4.426   2.041   3.871  0.3659  0.0569 -0.3743
  222SOD    SOD22282   6.781   5.534  11.208 -0.2655  0.2496 -0.0193
  223SOD    SOD22283   6.631   0.212  11.429 -0.1614 -0.1303  0.3667
  224SOD    SOD22284   4.559   5.223   0.088 -0.2465  0.2088 -0.4084
  225SOD    SOD22285   1.552   6.202  16.060  0.0414 -0.3949 -0.0316
  226SOD    SOD22286   4.817   2.261  10.930  0.4806 -0.0874  0.0806
  227SOD    SOD22287   4.955   0.399   5.466 -0.5269  0.2457  0.1335
  228SOD    SOD22288   6.409   0.981  12.210 -0.1609  0.4325  0.2425
  229SOD    SOD22289   6.048   4.781  12.428 -0.1324  0.0297 -0.3435
  230SOD    SOD22290   0.562   2.554   0.401 -0.0087  0.1242 -0.0720
  231SOD    SOD22291   6.548   4.888   3.385 -0.1250 -0.2444  0.0711
  232SOD    SOD22292   1.949   4.582   0.390  0.3346  0.1396 -0.7358
  233SOD    SOD22293   0.017   3.134  13.083 -0.5340  0.3028 -0.1686
  234SOD    SOD22294   4.161   1.530   5.933  0.2276  0.3206 -0.4072
  235SOD    SOD22295   0.892   4.488  12.932  0.0300  0.1596 -0.0049
  236SOD    SOD22296   2.493   1.848   4.555 -0.2900 -0.1018  0.2020
  237SOD    SOD22297   4.729   1.910  11.376  0.6365 -0.3821 -0.4599
  238SOD    SOD22298   3.811   5.645  15.955  0.1163  0.0723 -0.0781
  239SOD    SOD22299   2.796   5.003   4.948  0.2042 -0.3747 -0.3233
  240SOD    SOD22300   1.545   4.811   3.681 -1.0336 -0.2455 -0.0295
  241SOD    SOD22301   2.329   1.760  13.493  0.2872  0.1442 -0.1177
  242SOD    SOD22302   4.462   3.699   5.128 -0.0546 -0.2608 -0.1258
  243SOD    SOD22303   3.556   6.484  11.873 -0.0250 -0.0789  0.1139
  244SOD    SOD22304   2.179   4.735   5.425 -0.0025  0.3253  0.4426
  245SOD    SOD22305   1.033   4.986   3.972 -0.2844  0.4957 -0.2323
  246SOD    SOD22306   2.254   1.593   6.206 -0.4429 -0.0528 -0.0786
  247SOD    SOD22307   3.837   1.830   5.654 -0.5152  0.2012  0.0904
  248SOD    SOD22308   3.566   5.387  14.597  0.2112 -0.0528 -0.4004
  249SOD    SOD22309   0.466   3.873  14.665  0.3477 -0.2615 -0.4322
  250SOD    SOD22310   3.420   1.099   4.382 -0.2452 -0.3618  0.3094
  251SOD    SOD22311   3.897   2.307  13.544  0.3032  0.1043  0.1221
  252SOD    SOD22312   6.649   2.522  16.576  0.0990 -0.1833  0.3216
  253SOD    SOD22313   5.685   2.104   1.367  0.8065 -0.0402  0.0620
  254SOD    SOD22314   0.349   5.673  11.683 -0.1825 -0.0009  0.3149
  255SOD    SOD22315   0.909   4.569   3.894  0.1063 -0.0623 -0.4450
  256SOD    SOD22316   4.506   3.525   1.205 -0.1052 -0.2502  0.2975
  257SOD    SOD22317   6.511   3.426  10.486 -0.7915  0.2350  0.0145
  258SOD    SOD22318   4.275   0.610  16.189  0.5297 -0.4799 -0.4833
  259SOD    SOD22319   4.627   0.124  10.605 -0.4000 -0.0889  0.6874
  260SOD    SOD22320   2.206   4.826  11.293 -0.0597  0.1257 -0.4720
  261SOD    SOD22321   5.017   6.362  10.668 -0.1104  0.3774 -0.2731
  262SOD    SOD22322   6.218   0.462   2.114  0.1638 -0.4455 -0.0742
  263SOD    SOD22323   2.458   6.632  12.051 -0.4343 -0.0738 -0.3745
  264SOD    SOD22324   1.334   0.843   3.599 -0.1034  0.0765  0.0882
  265SOD    SOD22325   0.210   5.480   0.262  0.3815  0.0084  0.6579
  266SOD    SOD22326   2.886   4.550   1.930  0.4396  0.0380  0.3472
  267SOD    SOD22327   2.100   6.381  14.471 -0.4313 -0.1644 -0.7765
  268SOD    SOD22328   5.147   5.870   1.001  0.2615  0.1488 -0.3011
  269SOD    SOD22329   2.480   4.227   3.099  0.0480 -0.0728  0.5678
  270CLA    CLA22330   0.306   4.317  15.315  0.1044 -0.0175 -0.0093
  271CLA    CLA22331   0.170   0.743   3.504 -0.3968  0.0076  0.3742
  272CLA    CLA22332   6.250   3.310   5.762 -0.4700  0.1472  0.1370
  273CLA    CLA22333   4.653   4.181  11.926  0.1272  0.1089  0.0668
  274CLA    CLA22334   1.605   2.819  15.162 -0.0471 -0.0273  0.0712
  275CLA    CLA22335   2.606   0.531   2.516 -0.0882 -0.2789  0.1331
  276CLA    CLA22336   6.412   1.481  13.533  0.0491 -0.2261  0.4678
  277CLA    CLA22337   2.201   0.441  13.616  0.0077  0.2661  0.1667
  278CLA    CLA22338   6.709   5.784  11.682  0.0416 -0.1743 -0.0622
  279CLA    CLA22339   6.719   5.559   1.343 -0.0593  0.1409 -0.0414
  280CLA    CLA22340   6.498   5.010   0.478 -0.1838  0.4952 -0.0490
  281CLA    CLA22341   4.363   3.256  15.557  0.2861 -0.1902 -0.2550
  282CLA    CLA22342   2.671   1.508  14.089 -0.2539  0.1007  0.1944
  283CLA    CLA22343   5.918   6.433  11.702 -0.3873  0.1544  0.0125
  284CLA    CLA22344   3.608   4.389  12.182  0.0102  0.2150  0.1987
  285CLA    CLA22345   3.136   0.563   0.410 -0.2791 -0.0731 -0.5625
  286CLA    CLA22346   2.205   2.563   3.521  0.0468 -0.4327 -0.0262
  287CLA    CLA22347   5.279   0.037  16.623  0.1600 -0.1517 -0.0948
  288CLA    CLA22348   2.195   4.168   3.724 -0.0057 -0.0717 -0.1625
  289CLA    CLA22349   2.243   1.205   0.362 -0.0184  0.0617  0.5967
  290CLA    CLA22350   5.514   3.673   3.144 -0.1917  0.1085 -0.2825
  291CLA    CLA22351   0.998   4.366   1.256 -0.1897 -0.1785 -0.1453
  292CLA    CLA22352   6.083   2.910  16.876 -0.0456  0.0844 -0.1363
  293CLA    CLA22353   4.654   3.360  16.614 -0.3081  0.1419  0.1032
  294CLA    CLA22354   2.777   6.356   2.611  0.2178 -0.0853  0.2033
  295CLA    CLA22355   5.618   0.417   3.416  0.0860 -0.1002  0.3113
  296CLA    CLA22356   2.018   2.464  13.742  0.2283  0.1683 -0.0308
  297CLA    CLA22357   4.335   1.233  13.577  0.0610 -0.3817 -0.1231
  298CLA    CLA22358   4.375   5.716  15.823 -0.2106 -0.5466  0.1862
  299CLA    CLA22359   5.727   0.417  16.008 -0.2823  0.2073  0.1768
  300CLA    CLA22360   5.367   3.370   5.159 -0.1432  0.0084 -0.0901
  301CLA    CLA22361   4.310   0.464   3.545  0.4475  0.3876  0.1020
  302CLA    CLA22362   5.126   0.277   5.081 -0.1333 -0.0033  0.4682
  303CLA    CLA22363   2.346   5.589  16.431  0.1833  0.0193 -0.2076
  304CLA    CLA22364   0.853   2.160   0.995  0.3528 -0.5147  0.2004
  305CLA    CLA22365   5.686   1.962   4.136  0.2964 -0.1374 -0.4292
  306CLA    CLA22366   5.155   2.436   1.596 -0.1827  0.0668 -0.0119
  307CLA    CLA22367   0.579   1.618   2.814  0.2026  0.0682  0.1572
  308CLA    CLA22368   5.895   6.325   2.284  0.0120  0.2889 -0.2626
  309CLA    CLA22369   1.790   0.159  16.801 -0.1359 -0.5680 -0.1166
  310CLA    CLA22370   2.160   5.119  16.113  0.0102  0.0832  0.2049
  311CLA    CLA22371   3.647   4.768   5.033  0.2085  0.1311  0.1850
  312CLA    CLA22372   5.024   0.384  16.880 -0.2580  0.4715  0.6496
  313CLA    CLA22373   2.362   6.582  15.183 -0.2289 -0.2546  0.0068
  314CLA    CLA22374   5.071   3.831   2.218  0.3130 -0.1277 -0.3861
  315CLA    CLA22375   5.166   0.508  12.231  0.0466 -0.0567 -0.1947
  316CLA    CLA22376   0.755   5.273  12.430  0.1356  0.3044  0.5024
  317CLA    CLA22377   2.278   6.450   4.166 -0.5111  0.0049  0.3871
  318CLA    CLA22378   1.236   5.122  15.354  0.1896  0.2350 -0.1135
  319CLA    CLA22379   5.646   5.597   0.767  0.4657  0.0834  0.0535
  320CLA    CLA22380   6.411   0.855   1.874 -0.0505 -0.1888 -0.3450
  321CLA    CLA22381   4.301   1.846  16.680  0.1131  0.1495  0.1109
  322CLA    CLA22382   1.720   2.525   5.479 -0.2230  0.0994 -0.0832
  323TIP3   OH222383   4.353   2.489   5.328  0.1367  0.1744 -0.6938
  323TIP3    H122384   4.320   2.428   5.262 -3.2578  0.6190  0.5099
  323TIP3    H222385   4.405   2.435   5.387 -1.7815 -1.3487 -0.3661
  324TIP3   OH222386   1.877   4.549   4.000 -0.6119  0.2229  1.2348
  324TIP3    H122387   1.904   4.462   4.029  0.2465 -0.1307 -0.5768
  324TIP3    H222388   1.949   4.606   4.027  2.0153 -0.6884 -3.4133
  325TIP3   OH222389   2.977   3.542   1.299  0.5520 -0.3747 -0.2117
  325TIP3    H122390   3.000   3.545   1.207  1.8172 -1.8128  0.0396
  325TIP3    H222391   2.884   3.563   1.302  0.4895 -0.4186 -1.8078
  326TIP3   OH222392   6.422   1.946   0.784  0.9620 -0.3142  0.0691
  326TIP3    H122393   6.456   1.918   0.699  0.0076 -0.3451 -0.3114
  326TIP3    H222394   6.334   1.977   0.765  0.4948 -0.9539  1.1613
  327TIP3   OH222395   1.768   3.426   6.009 -0.7328  0.0430  0.0072
  327TIP3    H122396   1.690   3.481   6.002 -0.0945  0.9632 -0.0079
  327TIP3    H222397   1.798   3.439   6.099 -0.1904  0.2550 -0.2029
  328TIP3   OH222398   1.820   2.001   5.458  0.5948 -0.2236 -0.0771
  328TIP3    H122399   1.844   2.028   5.547  0.7516  1.3018 -0.5767
  328TIP3    H222400   1.755   2.064   5.430 -1.9271 -2.6200  0.1585
  329TIP3   OH222401   1.875   6.369  13.511  0.8017  0.2226  0.1683
  329TIP3    H122402   1.808   6.438  13.513  0.6838  0.2807 -2.9110
  329TIP3    H222403   1.835   6.298  13.461  1.9734 -0.9651  0.8827
  330TIP3   OH222404   3.530   1.106   0.646 -0.1986  0.6132  0.2277
  330TIP3    H122405   3.468   1.177   0.661  0.6505  1.2350  0.8807
  330TIP3    H222406   3.556   1.078   0.734 -1.5608 -1.4373 -0.0051
  331TIP3   OH222407   2.930   1.055   1.603  0.4845 -0.1499  0.2328
  331TIP3    H122408   2.936   1.146   1.573  1.6901  0.1515  1.3480
  331TIP3    H222409   2.841   1.028   1.580 -0.1237  1.5309  0.5342
  332TIP3   OH222410   0.004   3.932  11.479 -0.3421  0.3527 -0.0301
  332TIP3    H122411  -0.021   3.989  11.405 -0.3963 -0.3706 -0.5759
  332TIP3    H222412   0.100   3.927  11.473 -0.3368  0.3974  0.0220
  333TIP3   OH222413   3.165   5.262  15.536 -0.2338 -0.3484  0.0821
  333TIP3    H122414   3.137   5.256  15.445  0.0021 -0.1713 -0.0023
  333TIP3    H222415   3.257   5.235  15.536  0.2922  1.3697 -0.0177
  334TIP3   OH222416   2.788   1.768   6.571  0.1768 -0.1983  0.1020
  334TIP3    H122417   2.835   1.851   6.580 -0.6437  0.1692  1.1418
  334TIP3    H222418   2.846   1.704   6.613  2.0340 -0.6599 -3.0047
  335TIP3   OH222419   3.939   2.153   3.213 -0.0991 -0.1881 -0.3111
  335TIP3    H122420   3.874   2.216   3.243 -0.5509  0.2485 -2.1530
  335TIP3    H222421   3.890   2.072   3.198 -0.3397  0.2435 -2.0576
  336TIP3   OH222422   2.120   4.104  15.539  0.5052 -0.4463  0.5081
  336TIP3    H122423   2.197   4.074  15.490  0.0435 -0.5262 -0.1861
  336TIP3    H222424   2.132   4.199  15.546 -0.4295 -0.1268 -1.6001
  337TIP3   OH222425   5.637   5.377   1.365 -0.5533  0.0806 -0.3928
  337TIP3    H122426   5.568   5.326   1.408 -0.6243  1.2236  0.9143
  337TIP3    H222427   5.673   5.319   1.298  0.6262 -2.3480  2.2410
  338TIP3   OH222428   2.460   1.969  14.431  0.0002  0.7339 -0.3302
  338TIP3    H122429   2.377   1.957  14.386 -0.1097  0.2896 -0.0168
  338TIP3    H222430   2.500   1.882  14.431 -0.1884  0.6377  0.7780
  339TIP3   OH222431   6.750   1.023  15.620  0.1270 -0.5132  0.0912
  339TIP3    H122432   6.704   1.046  15.539  0.4780  0.5854  0.1976
  339TIP3    H222433   6.808   1.097  15.636 -0.7652 -0.2028  1.9828
  340TIP3   OH222434   2.262   4.210   3.204 -0.3425  0.1467  0.0523
  340TIP3    H122435   2.297   4.174   3.285 -0.1241  0.9660  0.3168
  340TIP3    H222436   2.196   4.272   3.231 -1.3285 -0.6785 -0.4324
  341TIP3   OH222437   5.377   2.177  11.796 -0.0979  0.4097 -0.2436
  341TIP3    H122438   5.301   2.169  11.853 -0.1917 -0.1199 -0.4398
  341TIP3    H222439   5.342   2.163  11.708  0.2897 -0.2283 -0.3006
  342TIP3   OH222440   1.403   2.123   0.932 -0.4518 -0.5265 -0.2248
  342TIP3    H122441   1.327   2.161   0.977  2.5057  2.1410  2.8092
  342TIP3    H222442   1.429   2.049   0.987  0.6782  0.1890  0.2287
  343TIP3   OH222443   1.852   6.147   3.580  0.2341 -0.3140  0.6500
  343TIP3    H122444   1.801   6.174   3.504  0.2614  1.1966  1.1362
  343TIP3    H222445   1.800   6.176   3.655  1.2767  0.2823  1.1564
  344TIP3   OH222446   2.097   4.964  12.311 -0.1741  0.0188  0.0683
  344TIP3    H122447   2.053   5.038  12.354 -0.2977  0.6999 -1.1956
  344TIP3    H222448   2.190   4.987  12.313 -0.2839  0.5568 -0.9769
  345TIP3   OH222449   6.521   2.088   5.170  0.0449  0.1992 -0.7108
  345TIP3    H122450   6.605   2.091   5.215 -0.0147  0.0835 -0.5912
  345TIP3    H222451   6.485   2.001   5.190 -0.2910  0.4016 -0.4107
  346TIP3   OH222452   3.282   3.733  13.112  0.1035 -0.1122 -0.0586
  346TIP3    H122453   3.212   3.782  13.068 -0.5196 -0.7671  0.1897
  346TIP3    H222454   3.276   3.761  13.204 -1.6222 -2.1727  0.5062
  347TIP3   OH222455   5.286   6.224   4.151  0.0585  0.5374 -0.3416
  347TIP3    H122456   5.235   6.173   4.088  0.9935  0.8522 -1.3674
  347TIP3    H222457   5.342   6.279   4.097  0.9117  0.7650  0.7701
  348TIP3   OH222458   5.127   2.057   4.921 -0.0811 -0.5633 -0.1515
  348TIP3    H122459   5.151   2.137   4.875 -1.0818 -0.4204 -0.4363
  348TIP3    H222460   5.032   2.063   4.933  0.0944 -0.8271  1.5044
  349TIP3   OH222461   6.473   5.495  15.375  0.2142  0.0327  0.4725
  349TIP3    H122462   6.561   5.517  15.346 -0.2446  0.0086 -0.9727
  349TIP3    H222463   6.486   5.432  15.446  1.3909  1.0871  1.2215
  350TIP3   OH222464   2.559   4.345   3.277  0.2730 -0.1558  0.0476
  350TIP3    H122465   2.631   4.294   3.314 -0.7415 -1.3637  0.3909
  350TIP3    H222466   2.508   4.372   3.352 -0.5368 -0.6990 -0.2959
  351TIP3   OH222467   4.666   1.444   4.722 -0.2946  0.1454 -0.1725
  351TIP3    H122468   4.697   1.353   4.729 -1.8187 -0.3031  0.9849
  351TIP3    H222469   4.734   1.496   4.765  0.7517 -0.4021 -1.1350
  352TIP3   OH222470   4.751   1.259  13.016 -0.0252  0.5553  0.0234
  352TIP3    H122471   4.839   1.223  13.030 -0.5314 -1.7821 -2.5418
  352TIP3    H222472   4.767   1.343  12.973  0.9647  0.0802 -0.5581
  353TIP3   OH222473   5.589   0.494   3.934  0.2817  0.0102  0.2131
  353TIP3    H122474   5.540   0.576   3.928 -0.7072 -0.4431  1.8844
  353TIP3    H222475   5.642   0.492   3.854 -0.3502  1.8395 -0.2756
  354TIP3   OH222476   4.536   2.789   3.108  0.3303  0.3783 -0.4447
  354TIP3    H122477   4.496   2.721   3.162  1.5118 -0.0669 -0.1130
  354TIP3    H222478   4.482   2.792   3.029 -0.2137 -0.3795 -0.1041
  355TIP3   OH222479   0.573   5.960   1.756 -0.0589 -0.4261 -0.0208
  355TIP3    H122480   0.579   6.048   1.793  1.2350 -0.6338  0.2961
  355TIP3    H222481   0.664   5.931   1.749 -0.5075 -2.0243  0.5762
  356TIP3   OH222482   4.627   1.358   1.170  0.0140  0.4236  0.1363
  356TIP3    H122483   4.612   1.391   1.082  0.6446 -0.7223 -0.4192
  356TIP3    H222484   4.548   1.309   1.191  0.3921 -0.3910 -0.3156
  357TIP3   OH222485   3.821   6.271   5.913 -0.2517  0.1753 -0.3992
  357TIP3    H122486   3.785   6.190   5.951  1.4958 -0.3334  0.1826
  357TIP3    H222487   3.845   6.245   5.823  0.0936  0.1075 -0.2872
  358TIP3   OH222488   0.705   1.076  14.107  0.0159  0.3999 -0.0210
  358TIP3    H122489   0.633   1.125  14.068  0.2329  0.4686 -0.3390
  358TIP3    H222490   0.779   1.091  14.047 -0.4311 -1.9440 -1.2148
  359TIP3   OH222491   1.251   6.057   2.213  0.4380 -0.3565 -0.0299
  359TIP3    H122492   1.320   6.035   2.151 -0.0051 -0.5450 -0.4638
  359TIP3    H222493   1.265   5.998   2.288  1.5700  0.5578  0.4847
  360TIP3   OH222494   4.765   0.507  12.851 -0.1660 -0.8772  0.6465
  360TIP3    H122495   4.782   0.578  12.789 -0.2497 -1.0378  0.4396
  360TIP3    H222496   4.852   0.480  12.881 -0.1206 -0.8801  0.5108
  361TIP3   OH222497   1.117   4.234  13.817  0.2814  0.4046 -0.2852
  361TIP3    H122498   1.111   4.264  13.908  0.9800  0.1025 -0.1367
  361TIP3    H222499   1.197   4.275  13.784  1.2417 -1.2810 -0.0885
  362TIP3   OH222500   1.037   5.964   2.445  0.2741 -0.1786 -0.1616
  362TIP3    H122501   0.990   5.910   2.382 -0.3996 -1.1600  1.1479
  362TIP3    H222502   1.025   6.054   2.413 -1.3329 -0.5295 -0.6167
  363TIP3   OH222503   5.396   5.356  13.843  0.0028  0.5145 -0.7611
  363TIP3    H122504   5.405   5.382  13.934 -0.1283  1.5820 -1.0436
  363TIP3    H222505   5.310   5.390  13.816  0.4215  1.0058 -1.5258
  364TIP3   OH222506   0.755   1.004  17.212  1.0820 -0.2076  0.1782
  364TIP3    H122507   0.755   0.947  17.135  0.8499 -1.0707  0.8097
  364TIP3    H222508   0.778   1.090  17.178  1.6032 -0.7124 -0.7622
  365TIP3   OH222509   3.329   3.213   3.931  0.2243 -0.1331 -0.1013
  365TIP3    H122510   3.290   3.130   3.957 -0.0309  0.5734  1.7949
  365TIP3    H222511   3.322   3.269   4.008 -1.9159  2.5205 -2.1352
  366TIP3   OH222512   3.550   2.875   0.485  0.0731  0.1776  0.0475
  366TIP3    H122513   3.563   2.792   0.530  0.3577  0.6160  0.7697
  366TIP3    H222514   3.507   2.850   0.403  0.5243 -0.7198  0.0743
  367TIP3   OH222515   1.413   0.868  11.481 -0.1228 -0.0161  0.3369
  367TIP3    H122516   1.454   0.826  11.557 -1.5860  0.1565  1.2567
  367TIP3    H222517   1.403   0.797  11.417  2.6445  0.1962 -0.3728
  368TIP3   OH222518   0.865   0.125  16.672 -0.2360 -0.1204 -0.6372
  368TIP3    H122519   0.876   0.036  16.638 -2.2515 -0.3938 -0.5968
  368TIP3    H222520   0.845   0.114  16.764  0.1575  0.4097 -0.4813
  369TIP3   OH222521   5.035   5.053   0.383 -0.1894 -0.0839  0.4565
  369TIP3    H122522   5.049   5.129   0.326 -0.6522  0.7835  1.4666
  369TIP3    H222523   5.112   4.998   0.369  0.3804  0.7997  0.0599
  370TIP3   OH222524   4.879   1.045  11.661  0.0288 -0.3991 -0.0442
  370TIP3    H122525   4.895   1.058  11.568 -2.2755 -1.3621 -0.6182
  370TIP3    H222526   4.784   1.053  11.670  0.1332 -1.2392  2.0682
  371TIP3   OH222527   4.559   5.583   0.977  0.6459 -0.1096 -0.0071
  371TIP3    H122528   4.500   5.559   1.049  0.7384 -1.3789 -0.3404
  371TIP3    H222529   4.502   5.625   0.912  0.2278 -0.6436  0.0043
  372TIP3   OH222530   5.414   3.397   1.789 -0.2826 -0.3236  0.0281
  372TIP3    H122531   5.382   3.413   1.878  0.8143 -0.2125  0.4050
  372TIP3    H222532   5.417   3.301   1.781 -0.1720 -0.3310  0.1761
  373TIP3   OH222533   4.179   2.597   4.644  0.4974 -0.1756 -0.6565
  373TIP3    H122534   4.205   2.523   4.589  0.2186 -0.2310 -0.7150
  373TIP3    H222535   4.206   2.572   4.732 -0.4311 -0.7517 -0.5321
  374TIP3   OH222536   3.901   2.987   3.155  0.2482  0.3353 -0.5077
  374TIP3    H122537   3.885   2.907   3.205 -1.0211 -0.0261 -1.4605
  374TIP3    H222538   3.820   3.002   3.106  0.9151  1.5104 -1.2921
  375TIP3   OH222539   6.135   2.037  13.394  0.3417  0.1075  0.0614
  375TIP3    H122540   6.070   2.106  13.385 -1.0214 -1.2943 -1.1260
  375TIP3    H222541   6.188   2.043  13.314  0.1125 -0.3337 -0.1231
  376TIP3   OH222542   6.388   1.676  11.156 -0.2032 -0.1898  0.3486
  376TIP3    H122543   6.417   1.752  11.206 -0.7106  0.4098 -0.2560
  376TIP3    H222544   6.321   1.635  11.210 -0.0326 -0.1207  0.6103
  377TIP3   OH222545   4.115   3.819  13.150 -0.6498  0.5449  0.1869
  377TIP3    H122546   4.051   3.750  13.131  0.2316 -0.2539  0.0769
  377TIP3    H222547   4.075   3.871  13.219 -2.8860  2.0543 -2.1276
  378TIP3   OH222548   6.674   3.528   2.399 -0.2934  0.0751 -0.3057
  378TIP3    H122549   6.740   3.463   2.420 -0.6443 -0.2749 -0.2920
  378TIP3    H222550   6.714   3.582   2.330  0.1089  0.0331 -0.1010
  379TIP3   OH222551   6.370   5.025   2.690  0.4403  0.3153  0.1819
  379TIP3    H122552   6.411   5.048   2.607  1.3693  1.9704  1.0768
  379TIP3    H222553   6.306   5.095   2.706 -0.4846 -0.5501  0.3560
  380TIP3   OH222554   5.067   2.256  12.798  0.3678  0.1580 -0.0329
  380TIP3    H122555   4.998   2.317  12.772 -0.0598 -0.5812 -0.6354
  380TIP3    H222556   5.133   2.311  12.839  0.2558  1.1184 -1.1108
  381TIP3   OH222557   6.728   2.638   1.494  0.2277  0.2758  0.2327
  381TIP3    H122558   6.700   2.690   1.418 -0.5455  0.5633  0.7074
  381TIP3    H222559   6.820   2.619   1.477  0.4179  1.4919 -0.1207
  382TIP3   OH222560   1.053   3.170   0.827 -0.6166 -0.0263  0.1588
  382TIP3    H122561   1.117   3.148   0.895 -1.1376  0.1701  0.7139
  382TIP3    H222562   1.092   3.244   0.780  0.2281 -0.8428 -0.4397
  383TIP3   OH222563   1.692   2.594   4.441  0.1926  0.5664 -0.5373
  383TIP3    H122564   1.718   2.616   4.352  1.9268 -0.0378 -0.2039
  383TIP3    H222565   1.773   2.603   4.492 -0.2802 -1.2183  0.5733
  384TIP3   OH222566   3.699   5.394   4.813 -0.5114 -0.0486  0.4436
  384TIP3    H122567   3.659   5.384   4.899 -0.5491  2.5597  0.7618
  384TIP3    H222568   3.745   5.477   4.817  1.2744 -0.9068 -1.3795
  385TIP3   OH222569   3.221   4.638  15.805  0.0671 -0.0305  0.0329
  385TIP3    H122570   3.211   4.727  15.840 -1.0271  0.3892 -1.3452
  385TIP3    H222571   3.212   4.581  15.882  2.0467  1.0905  1.1399
  386TIP3   OH222572   3.799   2.581   1.788  0.5896  0.5588 -0.1439
  386TIP3    H122573   3.778   2.589   1.695 -0.6573  0.3505  0.1094
  386TIP3    H222574   3.820   2.670   1.816  1.5917  0.5198 -0.7726
  387TIP3   OH222575   5.382   2.482  15.906  0.1720  0.0716  1.1760
  387TIP3    H122576   5.377   2.403  15.853  0.6900 -0.8253  2.4474
  387TIP3    H222577   5.291   2.512  15.914  0.0379 -0.0674  0.2322
  388TIP3   OH222578   1.736   4.719  11.909 -0.3057  0.5860  0.2719
  388TIP3    H122579   1.784   4.667  11.973 -1.0306  0.0071  0.3535
  388TIP3    H222580   1.797   4.728  11.835  0.0806  0.2270  0.5453
  389TIP3   OH222581   2.140   5.185  15.447 -0.4352  0.4368 -0.0233
  389TIP3    H122582   2.079   5.145  15.510  1.0858 -1.3162  0.3923
  389TIP3    H222583   2.086   5.246  15.397 -2.4708 -0.8130  0.5703
  390TIP3   OH222584   0.116   3.655  14.042  0.1579 -0.0220 -0.1480
  390TIP3    H122585   0.039   3.599  14.050  0.2520 -0.2191 -0.6190
  390TIP3    H222586   0.108   3.718  14.114 -0.1493 -0.3978  0.1424
  391TIP3   OH222587   1.115   2.054   2.522  0.2202 -0.3343  0.1080
  391TIP3    H122588   1.130   2.124   2.586  0.1903  0.4828 -0.7592
  391TIP3    H222589   1.022   2.064   2.498 -0.2492 -1.7751  1.2577
  392TIP3   OH222590   3.547   2.594   0.242 -0.1694  0.7789  0.1780
  392TIP3    H122591   3.584   2.533   0.177  1.2394  0.8931  0.8429
  392TIP3    H222592   3.623   2.643   0.274 -0.9105  1.0053  1.6249
  393TIP3   OH222593   6.366   6.229   0.894 -0.4249 -0.1144 -0.2967
  393TIP3    H122594   6.386   6.136   0.892 -1.9736 -0.4839  0.6005
  393TIP3    H222595   6.273   6.234   0.873 -1.3067  0.8830  3.4272
  394TIP3   OH222596   4.121   1.174   0.754 -0.2074 -0.4648  0.2709
  394TIP3    H122597   4.083   1.200   0.671 -0.9813 -0.1437  0.7195
  394TIP3    H222598   4.215   1.186   0.743 -0.2955 -0.6063 -0.6160
  395TIP3   OH222599   3.617   2.997  15.984  0.2399 -0.3176  0.3353
  395TIP3    H122600   3.637   2.916  15.936 -1.6193 -1.1605  0.9109
  395TIP3    H222601   3.685   3.058  15.958  1.5180 -1.9937 -0.3441
  396TIP3   OH222602   2.337   2.389  14.461 -0.3773 -0.4008  0.5778
  396TIP3    H122603   2.406   2.325  14.442 -1.2575 -1.1608 -0.1126
  396TIP3    H222604   2.261   2.335  14.486 -0.9421  0.3981  0.5963
  397TIP3   OH222605   1.170   5.419  10.778  0.2322 -0.3986  0.7030
  397TIP3    H122606   1.225   5.380  10.710  1.0030  1.2508  0.3438
  397TIP3    H222607   1.227   5.483  10.821 -1.7521  2.3916 -0.6250
  398TIP3   OH222608   2.547   3.423  13.322 -0.5193 -0.0182 -0.0019
  398TIP3    H122609   2.477   3.457  13.267 -1.2693 -2.1162 -0.4076
  398TIP3    H222610   2.620   3.407  13.262 -0.3990  0.2527  0.0715
  399TIP3   OH222611   4.909   3.336   5.741  0.0519 -0.7275 -0.4000
  399TIP3    H122612   4.909   3.387   5.660  0.2504  0.8127  0.5399
  399TIP3    H222613   4.994   3.292   5.742  0.3302 -0.2050 -0.6976
  400TIP3   OH222614   0.803   1.749   4.363 -0.2176 -0.3407 -0.3236
  400TIP3    H122615   0.796   1.677   4.300  1.4357 -1.1530  0.4050
  400TIP3    H222616   0.739   1.728   4.431 -0.9405 -0.2327 -0.9608
  401TIP3   OH222617   6.681   5.328   5.372 -0.5440  0.6012  0.2545
  401TIP3    H122618   6.721   5.244   5.353 -1.8838  0.4187 -1.8872
  401TIP3    H222619   6.755   5.386   5.394  0.6269 -0.4503 -0.8322
  402TIP3   OH222620   0.328   2.349   0.670  0.2642  0.1337 -0.2021
  402TIP3    H122621   0.315   2.362   0.763 -1.0144 -0.3267 -0.3027
  402TIP3    H222622   0.327   2.437   0.632 -1.4894  0.1992 -0.0506
  403TIP3   OH222623   2.476   6.555  13.629  0.0071 -0.0323 -0.5079
  403TIP3    H122624   2.439   6.510  13.705 -1.9510  0.7015 -0.9999
  403TIP3    H222625   2.526   6.627  13.666  0.9554 -1.0191  0.1726
  404TIP3   OH222626   6.229   2.217   5.437 -0.5203  0.2520 -0.5477
  404TIP3    H122627   6.309   2.170   5.462 -0.2095  0.3916 -1.2603
  404TIP3    H222628   6.241   2.236   5.344 -1.5241  0.0181 -0.7229
  405TIP3   OH222629   3.312   5.034  14.160  0.0025  0.3962  0.6468
  405TIP3    H122630   3.393   4.983  14.164 -0.7799 -0.7875  1.5945
  405TIP3    H222631   3.272   5.009  14.077 -0.8862 -1.3494  1.5730
  406TIP3   OH222632   6.449   5.240   4.730 -0.2599  0.5673  0.0850
  406TIP3    H122633   6.527   5.284   4.765 -0.3717 -0.1634  1.3022
  406TIP3    H222634   6.391   5.311   4.704  0.4557  1.1251 -0.0066
  407TIP3   OH222635   1.133   0.282   1.915  0.6494  0.3439 -0.4724
  407TIP3    H122636   1.096   0.348   1.857  1.0740  2.3449  1.4698
  407TIP3    H222637   1.092   0.299   2.000  0.3575 -2.2415 -0.0524
  408TIP3   OH222638   6.619   5.802  15.141  0.4498  0.2545  0.0660
  408TIP3    H122639   6.681   5.812  15.213 -1.2960  1.5705  1.4312
  408TIP3    H222640   6.673   5.814  15.062  1.7591  2.6193  1.2272
  409TIP3   OH222641   3.029   4.422   6.769  0.0228 -0.0402 -0.0950
  409TIP3    H122642   2.964   4.407   6.700  0.3949 -0.1159 -0.4344
  409TIP3    H222643   2.982   4.407   6.850 -0.9634  2.1086 -0.2575
  410TIP3   OH222644   1.731   1.552  15.158 -0.4481 -0.4490  0.2803
  410TIP3    H122645   1.685   1.635  15.143  0.5655  0.0677 -0.0278
  410TIP3    H222646   1.735   1.512  15.071 -0.9908 -0.8509  0.4414
  411TIP3   OH222647   5.262   2.567  12.692 -0.1747 -0.2715  0.1248
  411TIP3    H122648   5.291   2.511  12.764 -1.0925 -1.5377 -0.4632
  411TIP3    H222649   5.255   2.507  12.617 -1.1744  0.6317 -0.5122
  412TIP3   OH222650   4.768   4.740  13.382  0.2432 -0.5104 -0.3744
  412TIP3    H122651   4.698   4.721  13.319  2.4575 -1.3018 -2.6873
  412TIP3    H222652   4.800   4.827  13.356 -0.9897  0.6204  1.7680
  413TIP3   OH222653   5.750   4.103   4.056  0.2073  0.1007 -0.0097
  413TIP3    H122654   5.833   4.126   4.014  0.3664  1.1974  0.8675
  413TIP3    H222655   5.726   4.182   4.106 -1.5811 -0.0615 -0.5924
  414TIP3   OH222656   3.201   3.234  10.709 -0.3845 -0.4685 -0.2230
  414TIP3    H122657   3.107   3.233  10.690 -0.6176  1.1903  0.7683
  414TIP3    H222658   3.228   3.324  10.692  0.7902 -0.6514  0.6503
  415TIP3   OH222659   5.444   3.247   0.761 -0.0737  0.2746 -0.1878
  415TIP3    H122660   5.404   3.182   0.819 -1.2141 -1.0258 -2.3843
  415TIP3    H222661   5.505   3.197   0.707 -0.0439  1.2573 -1.0711
  416TIP3   OH222662   2.046   1.696  14.342 -0.0585 -0.4616  0.3756
  416TIP3    H122663   2.073   1.605  14.329  0.7258 -0.1449 -0.2578
  416TIP3    H222664   2.124   1.748  14.319 -1.0017  0.4376 -0.8858
  417TIP3   OH222665   0.271   0.295   5.153  0.1424  0.7492  0.2999
  417TIP3    H122666   0.348   0.334   5.194 -1.1050  2.1503  1.3703
  417TIP3    H222667   0.223   0.370   5.115 -1.4172  0.0854  0.9064
  418TIP3   OH222668   0.813   1.609  13.200 -0.7678  0.5822  0.1519
  418TIP3    H122669   0.840   1.697  13.174 -0.2423  0.4177  0.1405
  418TIP3    H222670   0.881   1.551  13.164 -2.9425 -0.1856 -2.9722
  419TIP3   OH222671   6.050   0.926  13.615 -0.2266 -0.2036  0.5226
  419TIP3    H122672   6.077   0.956  13.702  0.1885  3.0209 -0.6688
  419TIP3    H222673   5.955   0.935  13.615 -0.0372  1.9757 -0.1066
  420TIP3   OH222674   1.183   2.364   3.900 -0.1053  0.1054  0.5644
  420TIP3    H122675   1.237   2.392   3.826 -1.4260  1.0262 -0.0780
  420TIP3    H222676   1.106   2.420   3.895 -1.0544 -1.0958  1.5460
  421TIP3   OH222677   5.663   0.200  11.543  0.3880 -0.6036  0.2412
  421TIP3    H122678   5.707   0.278  11.577 -0.1889  0.1133 -0.6146
  421TIP3    H222679   5.730   0.155  11.492  0.6915 -0.6068  0.6385
  422TIP3   OH222680   3.180   0.862   0.144  0.4438  0.1932 -0.3292
  422TIP3    H122681   3.121   0.892   0.212  1.2557  0.3719  0.3086
  422TIP3    H222682   3.133   0.792   0.099 -1.0987  1.7563 -1.2024
  423TIP3   OH222683   1.716   1.860   0.693 -0.0822 -0.2075 -0.3978
  423TIP3    H122684   1.621   1.875   0.697 -0.2108 -0.8076 -1.0980
  423TIP3    H222685   1.754   1.948   0.690 -0.6288  0.0328 -0.3258
  424TIP3   OH222686   2.685   5.352  12.280  0.2665  0.1293 -0.1263
  424TIP3    H122687   2.750   5.297  12.323 -0.1396 -0.6379 -0.4689
  424TIP3    H222688   2.600   5.317  12.309  0.0048  2.1426  1.5835
  425TIP3   OH222689   4.661   1.067  15.939 -0.1316  0.8208 -0.3016
  425TIP3    H122690   4.703   1.062  15.853 -0.6140 -0.9861 -0.4474
  425TIP3    H222691   4.721   1.020  15.997 -0.4352  0.9321  0.1016
  426TIP3   OH222692   5.858   3.048  13.961  0.2048  0.0821  0.3385
  426TIP3    H122693   5.828   2.967  13.920 -2.1617  0.9780  0.2483
  426TIP3    H222694   5.954   3.045  13.951  0.1147 -2.3719 -0.2293
  427TIP3   OH222695   2.825   1.905  12.080  0.5452  0.0161  0.5028
  427TIP3    H122696   2.800   1.996  12.097  1.3124  0.1193  1.1332
  427TIP3    H222697   2.784   1.856  12.152 -1.8075 -0.4656 -1.1133
  428TIP3   OH222698   3.499   0.131   0.614  0.2252  0.4417  0.2033
  428TIP3    H122699   3.550   0.194   0.563 -0.3788  1.3049  0.6708
  428TIP3    H222700   3.448   0.184   0.675  1.7159 -0.6335  2.4539
  429TIP3   OH222701   2.091   0.675  14.496 -0.9487 -0.1590 -0.4749
  429TIP3    H122702   2.122   0.655  14.584 -3.3091  1.1325  0.6949
  429TIP3    H222703   2.006   0.631  14.490 -1.0816  0.2741 -1.9028
  430TIP3   OH222704   6.681   2.967   1.597 -0.0468  0.1973  0.1451
  430TIP3    H122705   6.633   2.949   1.516  0.3191 -1.2582  0.2364
  430TIP3    H222706   6.641   3.047   1.631  3.3940  4.0673 -4.2106
  431TIP3   OH222707   4.333   4.299   0.720 -0.1296 -0.6384 -0.3479
  431TIP3    H122708   4.345   4.239   0.646 -1.0782 -2.5064  0.9893
  431TIP3    H222709   4.363   4.250   0.796 -0.8600  0.6024  0.7554
  432TIP3   OH222710   3.887   5.541  15.103 -0.3344 -0.0610  1.0237
  432TIP3    H122711   3.926   5.468  15.151 -0.5647 -0.3889  0.7125
  432TIP3    H222712   3.962   5.587  15.064 -0.1265  0.3731  1.9346
  433TIP3   OH222713   5.411   1.782   1.036 -0.2553 -0.2522  0.0378
  433TIP3    H122714   5.391   1.858   1.091  0.8900  0.7113 -0.8562
  433TIP3    H222715   5.331   1.767   0.986  0.1198  1.5436 -1.1451
  434TIP3   OH222716   1.187   3.535  12.109 -0.2588  0.3244 -0.6175
  434TIP3    H122717   1.274   3.498  12.126 -0.5547 -0.3722 -0.6073
  434TIP3    H222718   1.165   3.506  12.021 -0.2727  0.9077 -0.8035
  435TIP3   OH222719   5.347   4.272   0.992 -0.1013 -0.8478  0.1091
  435TIP3    H122720   5.419   4.272   1.054  0.7343 -0.4957 -0.8432
  435TIP3    H222721   5.367   4.200   0.932 -1.1689 -1.5224  0.5378
  436TIP3   OH222722   6.266   2.200   3.677 -0.5252  0.2008 -0.3127
  436TIP3    H122723   6.310   2.215   3.593  0.2969  1.0093  0.2443
  436TIP3    H222724   6.212   2.279   3.689 -1.3808 -0.3501 -0.5343
  437TIP3   OH222725   0.789   6.618   3.866 -0.3360  0.5436 -0.6130
  437TIP3    H122726   0.832   6.581   3.789  0.5645  0.1581  0.0657
  437TIP3    H222727   0.713   6.561   3.881 -0.3281  0.4245 -1.0222
  438TIP3   OH222728   3.683   6.697   3.465 -0.6192 -0.3450  0.6159
  438TIP3    H122729   3.615   6.634   3.489 -1.8673  0.4522 -0.7357
  438TIP3    H222730   3.739   6.650   3.403 -2.2674  0.2044 -1.3689
  439TIP3   OH222731   3.919   6.209  16.696 -0.1958 -0.5910 -0.4832
  439TIP3    H122732   3.847   6.148  16.691  0.2506 -1.1656  0.1090
  439TIP3    H222733   3.879   6.293  16.719 -0.5889 -1.0714  0.6072
  440TIP3   OH222734   2.026   1.544   5.796 -0.0672 -0.1264  0.1698
  440TIP3    H122735   2.023   1.578   5.707  2.6229  1.2745  0.5539
  440TIP3    H222736   2.091   1.473   5.793 -1.3993 -1.3907  0.6184
  441TIP3   OH222737   0.419   2.860  16.285  0.1142 -0.2768  0.1155
  441TIP3    H122738   0.412   2.940  16.231  0.4973 -0.6201 -0.4506
  441TIP3    H222739   0.330   2.826  16.288 -0.0393  0.1345  0.2987
  442TIP3   OH222740   3.069   4.465   1.775  0.2324  0.1511  0.1405
  442TIP3    H122741   3.154   4.422   1.773  1.2182  2.0214  0.8468
  442TIP3    H222742   3.007   4.396   1.749  1.4501 -2.4070  3.5676
  443TIP3   OH222743   2.945   0.591  13.183  0.7121  0.0059  0.4744
  443TIP3    H122744   2.940   0.566  13.276  1.4270  0.4260  0.6289
  443TIP3    H222745   2.855   0.585  13.153  0.6771 -1.5721  0.8146
  444TIP3   OH222746   5.918   1.315  14.301  0.3901 -0.1223 -0.4902
  444TIP3    H122747   5.896   1.236  14.252  2.4774 -1.2989  0.4110
  444TIP3    H222748   5.847   1.325  14.365 -0.3708 -0.7138 -1.2378
  445TIP3   OH222749   3.463   5.600   4.892  0.2327  0.1261 -0.2403
  445TIP3    H122750   3.440   5.568   4.805  2.0620 -3.0852  0.3868
  445TIP3    H222751   3.559   5.607   4.890  0.3043 -0.0587  1.5150
  446TIP3   OH222752   2.827   5.655   2.139 -0.3547 -0.7698 -0.0631
  446TIP3    H122753   2.842   5.687   2.228 -1.2885  0.1698 -0.2337
  446TIP3    H222754   2.743   5.610   2.144 -0.5301 -0.4913 -0.5224
  447TIP3   OH222755   0.355   0.784  12.885 -0.6186  0.4773  0.0365
  447TIP3    H122756   0.324   0.720  12.821 -1.9544 -0.2426  1.3893
  447TIP3    H222757   0.438   0.747  12.917 -0.9780 -0.1788  0.2185
  448TIP3   OH222758   3.941   3.018  13.090 -0.6253  0.0432  0.9382
  448TIP3    H122759   4.034   2.997  13.094 -0.8508 -2.5565 -3.4437
  448TIP3    H222760   3.897   2.937  13.117 -1.4846 -0.8577 -2.7583
  449TIP3   OH222761   1.994   2.052  13.765  0.2575 -0.2336 -0.2107
  449TIP3    H122762   1.928   2.115  13.795 -0.1547 -1.3763  1.3164
  449TIP3    H222763   2.077   2.094  13.785 -0.0016  0.4762 -0.5904
  450TIP3   OH222764   0.771   5.629   0.602 -0.4091 -0.5043  0.1016
  450TIP3    H122765   0.860   5.665   0.590 -0.3742 -0.0032  1.7215
  450TIP3    H222766   0.744   5.662   0.688 -1.7657 -1.5084  0.0654
  451TIP3   OH222767   3.283   4.181   0.974  0.1693 -0.1308  0.0534
  451TIP3    H122768   3.376   4.206   0.970  0.3328 -0.6645  0.4508
  451TIP3    H222769   3.242   4.252   1.024  1.0269 -1.7086  3.1347
  452TIP3   OH222770   1.815   5.160   6.396 -0.0062  0.2219 -0.4483
  452TIP3    H122771   1.910   5.163   6.388  0.5468 -0.2312  4.2349
  452TIP3    H222772   1.786   5.248   6.371  2.0505  1.5031  1.4588
  453TIP3   OH222773   0.713   3.763   0.971 -0.6038  0.4168  0.5286
  453TIP3    H122774   0.733   3.812   1.050  3.6592  1.2030 -0.9245
  453TIP3    H222775   0.664   3.825   0.916  2.4171  2.2400 -0.2007
  454TIP3   OH222776   1.108   6.429  12.869 -0.1615  0.5561  0.1490
  454TIP3    H122777   1.133   6.520  12.855 -0.5181  0.4543 -1.1918
  454TIP3    H222778   1.013   6.430  12.871 -0.1591  0.2585  0.5002
  455TIP3   OH222779   5.090   2.987   0.191 -0.1560  0.1816 -0.4794
  455TIP3    H122780   5.100   2.898   0.225 -0.5366  0.9461  1.7569
  455TIP3    H222781   5.178   3.012   0.162  0.0459 -0.7591 -0.6829
  456TIP3   OH222782   2.674   5.237  12.022  0.0595  0.1945 -0.5346
  456TIP3    H122783   2.768   5.245  12.004  0.1781  1.1649  0.4359
  456TIP3    H222784   2.659   5.296  12.095 -1.2717 -0.1511 -0.5176
  457TIP3   OH222785   3.436   5.943  13.981  0.6598 -0.2313  0.3654
  457TIP3    H122786   3.409   6.034  13.969  0.7717 -0.5325 -2.4780
  457TIP3    H222787   3.366   5.904  14.034 -0.5880  0.9235 -0.3971
  458TIP3   OH222788   5.289   4.530   1.059 -0.0417 -0.0176 -0.4300
  458TIP3    H122789   5.230   4.572   0.996  0.2219 -1.6421 -1.8205
  458TIP3    H222790   5.313   4.448   1.016  1.1194 -0.5854  1.2950
  459TIP3   OH222791   3.079   3.065   3.529 -0.2781  0.2780  0.4131
  459TIP3    H122792   3.086   3.151   3.571 -0.2933  0.0574  0.8751
  459TIP3    H222793   3.052   3.084   3.439  0.3808  0.7922  0.3205
  460TIP3   OH222794   0.948   5.552  15.534  0.2689 -0.4800 -0.3458
  460TIP3    H122795   1.031   5.598  15.536 -0.0253  0.0348  0.3710
  460TIP3    H222796   0.969   5.464  15.565  0.0401  0.5340  2.8874
  461TIP3   OH222797   5.515   1.776  16.969 -0.1205  0.3351 -0.2855
  461TIP3    H122798   5.548   1.755  16.882  0.3513  0.6378 -0.1815
  461TIP3    H222799   5.435   1.827  16.952 -0.2059  0.1187 -0.5387
  462TIP3   OH222800   1.779   2.933   3.569 -0.0503 -0.1376  0.4633
  462TIP3    H122801   1.824   2.962   3.649 -2.9490  4.0011  0.7416
  462TIP3    H222802   1.723   2.861   3.598 -1.0091  1.2650  2.2145
  463TIP3   OH222803   3.945   4.276  13.551 -0.1304 -0.9127 -0.1100
  463TIP3    H122804   4.028   4.248  13.591  0.6963 -0.8822 -1.7490
  463TIP3    H222805   3.877   4.236  13.604  0.9714 -1.9780  0.5022
  464TIP3   OH222806   5.738   4.687  13.318 -0.4353  0.5822  0.2357
  464TIP3    H122807   5.721   4.665  13.227  0.7806  2.9355 -0.5888
  464TIP3    H222808   5.655   4.670  13.363  0.1190 -4.7701 -0.4051
  465TIP3   OH222809   1.452   0.266   0.823  0.0283 -0.5228 -0.4319
  465TIP3    H122810   1.536   0.260   0.779 -0.3015 -1.2675 -0.9659
  465TIP3    H222811   1.392   0.215   0.768 -0.7140 -0.1970  0.0678
  466TIP3   OH222812   1.583   4.657  10.384 -0.1188 -0.2057 -0.6491
  466TIP3    H122813   1.673   4.682  10.367 -0.6763  0.6742 -2.4868
  466TIP3    H222814   1.586   4.563  10.402  0.9394 -0.5509 -2.5854
  467TIP3   OH222815   4.823   3.067   5.784  0.1608  0.1264  0.0609
  467TIP3    H122816   4.867   2.988   5.752 -0.7588 -0.8168  1.0667
  467TIP3    H222817   4.883   3.138   5.763  1.1668 -0.8802 -0.5514
  468TIP3   OH222818   6.247   4.834  12.342  0.0784 -0.0385  0.1650
  468TIP3    H122819   6.327   4.795  12.377 -0.5870  0.4219  2.2431
  468TIP3    H222820   6.277   4.882  12.264  1.2283 -2.8055 -1.1940
  469TIP3   OH222821   3.932   2.232  17.196 -0.5645  0.0860  0.0479
  469TIP3    H122822   3.880   2.183  17.260 -1.3755  1.7769  0.7101
  469TIP3    H222823   4.015   2.250  17.241 -0.3778 -0.3775 -0.0969
  470TIP3   OH222824   3.510   0.202  12.347 -0.3416 -0.0338 -0.4136
  470TIP3    H122825   3.426   0.207  12.393 -0.7391 -2.0069 -0.8593
  470TIP3    H222826   3.487   0.199  12.254  0.2048 -0.5906 -0.5354
  471TIP3   OH222827   6.021   0.249  17.127 -0.6246  0.1834 -0.0464
  471TIP3    H122828   5.992   0.251  17.218 -3.3275 -0.4576 -0.8500
  471TIP3    H222829   6.037   0.341  17.105  1.0674  0.2490  1.3604
  472TIP3   OH222830   1.937   0.410  16.903  0.1655 -0.6173  0.7454
  472TIP3    H122831   1.879   0.352  16.854  2.6316 -1.1937 -1.5944
  472TIP3    H222832   1.984   0.352  16.963 -0.0315 -0.4869  1.0278
  473TIP3   OH222833   5.115   6.491  11.007 -0.0735  0.0404 -0.6769
  473TIP3    H122834   5.188   6.543  10.975 -0.5853  1.3454  0.2068
  473TIP3    H222835   5.113   6.414  10.951  0.9995  0.7496 -1.7035
  474TIP3   OH222836   1.801   2.941   4.383  0.4955  0.3423  0.3343
  474TIP3    H122837   1.736   3.007   4.359 -0.2866  0.5501  2.8080
  474TIP3    H222838   1.760   2.893   4.455  2.1430 -1.0855  0.3490
  475TIP3   OH222839   2.832   2.908  16.354  0.0818 -0.5040 -0.5866
  475TIP3    H122840   2.741   2.921  16.382  1.5245  0.0856  4.2143
  475TIP3    H222841   2.853   2.819  16.380  1.4550  0.0385  0.2387
  476TIP3   OH222842   0.338   3.814   4.217 -0.2313 -0.5186  0.4186
  476TIP3    H122843   0.313   3.795   4.307  2.6892  0.1062  1.4148
  476TIP3    H222844   0.313   3.906   4.205 -1.5208 -0.8897  0.2662
  477TIP3   OH222845   0.144   6.677  13.593  0.7852 -0.2884  0.2411
  477TIP3    H122846   0.049   6.668  13.589  0.7183  0.7774 -1.2639
  477TIP3    H222847   0.161   6.727  13.673 -0.0348  0.6230 -0.1395
  478TIP3   OH222848   3.338   0.539   5.762 -0.2409 -0.0228 -0.2644
  478TIP3    H122849   3.376   0.538   5.674  0.3447  0.2227 -0.0130
  478TIP3    H222850   3.389   0.604   5.810 -0.9609  0.2862  0.0814
  479TIP3   OH222851   3.019   6.555  16.977 -0.1188 -0.3103 -0.1339
  479TIP3    H122852   3.058   6.634  17.013  1.4851 -0.8298 -0.7262
  479TIP3    H222853   2.968   6.586  16.902 -0.2973  0.2774  0.2248
  480TIP3   OH222854   6.742   2.079   3.258  0.0917  0.0481  0.3442
  480TIP3    H122855   6.758   2.170   3.234  2.0216 -0.2402  0.4736
  480TIP3    H222856   6.724   2.081   3.352  2.0973  0.0874  0.7454
  481TIP3   OH222857   0.342   3.222   4.294  0.1165 -0.4964  0.2937
  481TIP3    H122858   0.359   3.252   4.384  0.1337  0.0977  0.0938
  481TIP3    H222859   0.257   3.259   4.272  0.6767  0.3836 -0.3810
  482TIP3   OH222860   2.531   0.587   5.079 -0.2143  0.0297 -0.2136
  482TIP3    H122861   2.446   0.580   5.036 -0.0889 -0.0839 -0.4394
  482TIP3    H222862   2.542   0.681   5.094 -0.2097  0.0765 -0.5181
  483TIP3   OH222863   6.477   1.400   3.758 -0.3488 -0.0514 -0.2087
  483TIP3    H122864   6.500   1.433   3.671 -0.7636  0.6509 -0.0607
  483TIP3    H222865   6.474   1.305   3.748  0.4256 -0.0206 -0.7618
  484TIP3   OH222866   2.897   3.724  13.968  0.3606 -0.9152  1.1722
  484TIP3    H122867   2.921   3.798  13.911 -1.9844 -0.7910  0.2921
  484TIP3    H222868   2.956   3.731  14.043  1.6706  0.5348  0.0422
  485TIP3   OH222869   5.504   2.045   0.876  0.5780 -0.0253 -0.1523
  485TIP3    H122870   5.430   2.080   0.926  1.7077 -0.3670  1.8188
  485TIP3    H222871   5.466   1.977   0.821 -0.5040 -0.5537  1.2137
  486TIP3   OH222872   5.623   4.759   0.690 -0.5685  0.0861  0.1129
  486TIP3    H122873   5.718   4.753   0.679 -0.6525 -0.4840 -0.3453
  486TIP3    H222874   5.608   4.736   0.781 -0.1033  2.0628  0.7061
  487TIP3   OH222875   2.454   0.607  13.940  0.2923  0.6928  0.2387
  487TIP3    H122876   2.366   0.636  13.914  0.0934 -0.9522 -1.0089
  487TIP3    H222877   2.442   0.571  14.028 -0.0174  1.7124  0.6151
  488TIP3   OH222878   1.742   2.301  16.206  0.0488 -0.6946 -0.1686
  488TIP3    H122879   1.776   2.376  16.255 -0.8254  0.3230 -1.0882
  488TIP3    H222880   1.668   2.270  16.257  0.8161 -1.3691  0.5597
  489TIP3   OH222881   2.928   0.259   4.660 -0.5945  0.0593  0.6207
  489TIP3    H122882   2.973   0.207   4.594 -0.3139 -0.2878  1.0843
  489TIP3    H222883   2.946   0.214   4.742 -0.2483  0.9476  1.0405
  490TIP3   OH222884   6.636   2.117  15.514  0.0160 -0.0968 -0.2957
  490TIP3    H122885   6.612   2.204  15.484  0.9970  0.5887  0.8351
  490TIP3    H222886   6.726   2.105  15.484  0.3144 -0.2025  0.6025
  491TIP3   OH222887   2.449   3.350  13.579 -0.0628  0.2142  0.0554
  491TIP3    H122888   2.472   3.354  13.486 -0.1626  2.6382  0.1126
  491TIP3    H222889   2.530   3.322  13.622  0.7376  1.6455 -0.4970
  492TIP3   OH222890   4.326   4.820  15.359  0.2168 -0.5182 -0.5199
  492TIP3    H122891   4.335   4.895  15.418 -1.0463 -0.8678  0.1386
  492TIP3    H222892   4.362   4.851  15.276  1.5127  0.1610  0.2787
  493TIP3   OH222893   5.143   1.987  11.227 -0.4821 -0.0108 -0.1931
  493TIP3    H122894   5.205   1.937  11.280  0.3384  0.0786 -1.0533
  493TIP3    H222895   5.145   2.075  11.264  0.2783  0.1131 -0.5253
  494TIP3   OH222896   5.099   2.909  16.884  1.1827  0.3504 -0.2677
  494TIP3    H122897   5.090   2.892  16.977  1.5013  0.8823 -0.1380
  494TIP3    H222898   5.105   3.004  16.877 -2.1553  0.5805 -1.0990
  495TIP3   OH222899   2.311   2.844  13.237  0.3866 -0.2167  0.0527
  495TIP3    H122900   2.346   2.777  13.178 -1.3571 -0.2485 -0.9612
  495TIP3    H222901   2.269   2.795  13.307 -0.5752 -0.1913 -0.5011
  496TIP3   OH222902   2.382   5.144   0.120 -0.6174 -0.1144 -0.1789
  496TIP3    H122903   2.447   5.162   0.052 -0.5207  0.7064  0.1273
  496TIP3    H222904   2.299   5.138   0.074 -0.2982 -1.5022 -0.6228
  497TIP3   OH222905   6.589   6.709   4.221 -0.7628  0.4370 -0.4621
  497TIP3    H122906   6.523   6.640   4.227 -1.3775  0.6963 -3.5332
  497TIP3    H222907   6.649   6.679   4.152  0.0386  2.1084 -0.5048
  498TIP3   OH222908   2.947   2.035  16.061 -0.8596  0.2599  0.2180
  498TIP3    H122909   3.040   2.020  16.078 -0.8075  0.4047  0.0594
  498TIP3    H222910   2.930   1.987  15.980 -0.9346  0.1969  0.2713
  499TIP3   OH222911   6.285   1.274   2.003 -0.5527  0.3455 -0.6744
  499TIP3    H122912   6.354   1.209   2.021 -0.2868  0.6913 -0.4424
  499TIP3    H222913   6.269   1.317   2.087 -1.8641 -0.5115 -0.4732
  500TIP3   OH222914   4.601   3.125  16.196  0.0898 -0.2893  0.2320
  500TIP3    H122915   4.574   3.177  16.120  0.0658  0.7359  0.9387
  500TIP3    H222916   4.545   3.156  16.267  0.8058 -0.5367  0.9022
  501TIP3   OH222917   2.056   4.468   0.862  0.1351  0.3945 -0.0668
  501TIP3    H122918   2.015   4.405   0.803 -0.6834  0.3113  0.5758
  501TIP3    H222919   2.122   4.418   0.909 -0.7254 -0.0659  0.6638
  502TIP3   OH222920   6.708   5.001  12.036  0.4054  0.1329 -0.2051
  502TIP3    H122921   6.683   5.068  11.972 -1.3888 -0.0188  0.3141
  502TIP3    H222922   6.626   4.957  12.058  1.1692 -0.4992  1.4347
  503TIP3   OH222923   4.868   6.194  10.574 -0.1741 -0.1255  0.3983
  503TIP3    H122924   4.805   6.124  10.596  0.3998 -1.2483 -1.4226
  503TIP3    H222925   4.856   6.208  10.480  0.9383  1.0288  0.4265
  504TIP3   OH222926   2.271   4.212  15.078  0.2994  0.2171  0.7694
  504TIP3    H122927   2.195   4.156  15.096  0.8769 -0.8080  0.1232
  504TIP3    H222928   2.346   4.159  15.106  0.8765  0.5767 -0.0830
  505TIP3   OH222929   1.589   1.550  13.037  0.4162 -0.0307 -0.7339
  505TIP3    H122930   1.528   1.534  13.109 -0.0922  1.6532 -0.7889
  505TIP3    H222931   1.541   1.521  12.959 -0.1629  0.9346 -0.7341
  506TIP3   OH222932   2.828   0.506   4.298 -0.2005 -0.0060  0.2245
  506TIP3    H122933   2.869   0.555   4.227 -1.6421 -1.4460 -1.6423
  506TIP3    H222934   2.819   0.570   4.369  1.0079  1.5308 -0.9650
  507TIP3   OH222935   3.459   5.682  15.777 -0.1879  0.1650 -0.5689
  507TIP3    H122936   3.537   5.688  15.721  0.4678  0.7043  0.3926
  507TIP3    H222937   3.492   5.648  15.860 -0.7908  1.4594  0.2129
  508TIP3   OH222938   0.360   0.580  15.413 -0.0931 -0.3986 -0.4369
  508TIP3    H122939   0.333   0.642  15.481  1.6934 -1.1689  1.0189
  508TIP3    H222940   0.411   0.632  15.352 -1.0951  0.1574 -0.8002
  509TIP3   OH222941   3.888   0.272  16.201  0.7016 -0.3417 -0.4022
  509TIP3    H122942   3.800   0.235  16.211 -0.5656  2.6663  0.1555
  509TIP3    H222943   3.947   0.203  16.232 -1.7984 -0.1702  5.1949
  510TIP3   OH222944   4.779   1.192   4.143  0.5111 -0.0008  0.3786
  510TIP3    H122945   4.795   1.135   4.218 -0.5512 -1.1539 -0.2691
  510TIP3    H222946   4.754   1.133   4.072  0.0131  1.2112 -0.4679
  511TIP3   OH222947   5.290   0.394  14.864 -0.6884  0.0315  0.4045
  511TIP3    H122948   5.210   0.359  14.824 -1.4483  0.4985  1.5218
  511TIP3    H222949   5.360   0.336  14.831 -1.2870  0.4517 -1.6483
  512TIP3   OH222950   1.262   5.014  16.793  0.3148 -0.4653 -0.7539
  512TIP3    H122951   1.304   5.099  16.802  1.4764 -1.1452  0.4629
  512TIP3    H222952   1.264   4.996  16.699  0.3135  0.7140 -0.9879
  513TIP3   OH222953   6.549   5.226  16.300  0.1904  0.3223  0.2499
  513TIP3    H122954   6.609   5.282  16.349  1.0081 -1.8625  1.8046
  513TIP3    H222955   6.495   5.184  16.367  0.3830 -1.6569 -0.8091
  514TIP3   OH222956   4.090   2.848   0.484 -0.3235  0.2165 -0.2571
  514TIP3    H122957   4.124   2.934   0.464 -0.6383 -0.0166 -1.8372
  514TIP3    H222958   4.166   2.789   0.477 -0.2530  0.2594  0.1262
  515TIP3   OH222959   4.042   2.715  11.868  0.0402  0.2350  0.2695
  515TIP3    H122960   4.058   2.799  11.911 -1.8655  0.7832 -0.0580
  515TIP3    H222961   3.959   2.684  11.904  0.3399 -1.1497 -0.1812
  516TIP3   OH222962   0.328   6.701   4.978 -0.4634  0.3172  0.3175
  516TIP3    H122963   0.351   6.622   4.929 -0.1049  1.2764 -1.0948
  516TIP3    H222964   0.232   6.702   4.976 -0.4396  0.6648 -0.8914
  517TIP3   OH222965   5.026   0.077  11.245 -0.1243  0.2323  0.0732
  517TIP3    H122966   5.084   0.050  11.315  1.9406 -1.6101 -2.2604
  517TIP3    H222967   5.062   0.161  11.216  1.2903 -0.7835 -1.1988
  518TIP3   OH222968   0.137   5.497  15.860  0.1417  0.2865  0.0893
  518TIP3    H122969   0.179   5.460  15.782  2.2080  2.1380  0.2790
  518TIP3    H222970   0.087   5.572  15.827  0.3218  0.5557  0.4302
  519TIP3   OH222971   2.394   3.847  14.101 -0.3093 -0.5310 -0.6562
  519TIP3    H122972   2.321   3.847  14.039  0.0113 -1.9767 -1.0420
  519TIP3    H222973   2.461   3.793  14.059  0.6093 -0.0136  0.1347
  520TIP3   OH222974   0.370   0.841   2.469 -1.0590 -0.0687  0.1588
  520TIP3    H122975   0.411   0.926   2.484 -2.4487  0.1861  2.7772
  520TIP3    H222976   0.432   0.793   2.413  1.3583  1.3881  1.5567
  521TIP3   OH222977   0.674   4.047   2.064 -0.1322 -0.2601  0.0148
  521TIP3    H122978   0.691   3.965   2.018 -0.2426 -1.0079  1.2764
  521TIP3    H222979   0.579   4.056   2.064 -0.1242 -0.1770 -0.0511
  522TIP3   OH222980   2.760   2.847   0.774  0.9489  0.2090 -0.1816
  522TIP3    H122981   2.694   2.827   0.707  1.8313 -2.8755 -0.2058
  522TIP3    H222982   2.735   2.933   0.807 -2.0179 -0.0828 -1.4720
  523TIP3   OH222983   4.775   2.434  14.935 -0.3218 -0.6317  0.7286
  523TIP3    H122984   4.773   2.423  14.840  1.9165 -0.2179  0.6184
  523TIP3    H222985   4.713   2.505  14.952  0.4155  0.3537 -0.5894
  524TIP3   OH222986   1.353   1.503   6.092 -0.0749 -0.4380 -0.0400
  524TIP3    H122987   1.396   1.473   6.012 -0.2586 -0.2746 -0.2004
  524TIP3    H222988   1.369   1.434   6.156 -0.2067 -0.7126 -0.3087
  525TIP3   OH222989   0.829   6.627   5.283 -0.2026  0.3841 -0.1245
  525TIP3    H122990   0.844   6.592   5.371 -0.9620  2.5518  0.9146
  525TIP3    H222991   0.774   6.705   5.298 -0.6228  0.5721 -2.5502
  526TIP3   OH222992   3.486   0.455   4.470  0.0141 -0.4706  0.4003
  526TIP3    H122993   3.579   0.476   4.463  0.2563 -1.4964  0.4845
  526TIP3    H222994   3.468   0.452   4.564 -1.0983  3.9554  0.4381
  527TIP3   OH222995   5.258   5.693   5.739 -0.1132  0.3590  0.2026
  527TIP3    H122996   5.197   5.686   5.813  0.8694  0.4870  1.0306
  527TIP3    H222997   5.250   5.609   5.693  0.1680 -0.1858  1.1493
  528TIP3   OH222998   4.540   3.847  13.505 -0.5740 -0.8232  0.1851
  528TIP3    H122999   4.478   3.915  13.479  0.2442 -0.1636 -0.0653
  528TIP3    H223000   4.598   3.838  13.430  0.6098 -0.2941  1.0155
  529TIP3   OH223001   3.206   6.439  12.907 -0.2096  0.3290  0.2621
  529TIP3    H123002   3.151   6.467  12.981 -0.4481  0.7011 -0.0511
  529TIP3    H223003   3.274   6.506  12.902  0.1683 -0.0365  0.5368
  530TIP3   OH223004   5.649   1.821   0.676  0.2389  0.1294  0.1053
  530TIP3    H123005   5.661   1.726   0.676 -1.3085 -0.1175 -2.2298
  530TIP3    H223006   5.556   1.833   0.697  0.9956  1.2599  2.9475
  531TIP3   OH223007   4.937   0.735   5.738 -0.4549  0.1331  0.1345
  531TIP3    H123008   4.845   0.744   5.713 -0.2050 -0.3062 -0.9794
  531TIP3    H223009   4.962   0.821   5.769 -0.8521  0.6382 -0.9189
  532TIP3   OH223010   3.379   3.112   4.298  0.7098 -0.1764 -0.3969
  532TIP3    H123011   3.328   3.060   4.236 -0.9422 -0.5815  1.2606
  532TIP3    H223012   3.395   3.195   4.252 -3.6250  0.9718 -0.0717
  533TIP3   OH223013   6.300   3.412  12.760 -0.2590 -0.5698  0.1064
  533TIP3    H123014   6.271   3.322  12.772 -0.2947 -0.5135  0.4610
  533TIP3    H223015   6.333   3.415  12.670  1.6433 -1.4737  0.7363
  534TIP3   OH223016   5.254   0.729   4.605 -0.4169  0.2815  0.2863
  534TIP3    H123017   5.306   0.717   4.685 -0.4992  2.8799  0.7543
  534TIP3    H223018   5.319   0.726   4.534 -0.2699 -1.4266  0.4686
  535TIP3   OH223019   3.497   0.147  11.853 -0.3495  0.2359 -0.1499
  535TIP3    H123020   3.524   0.191  11.773 -2.1499  2.4966  0.4201
  535TIP3    H223021   3.467   0.061  11.824  0.3725  0.4845 -1.6956
  536TIP3   OH223022   0.626   0.760  12.981  0.0119  0.2546 -0.1832
  536TIP3    H123023   0.653   0.710  12.904 -1.2703  0.6244 -0.8869
  536TIP3    H223024   0.632   0.698  13.053  0.6718 -0.2555 -0.6730
  537TIP3   OH223025   4.248   3.860   2.953 -0.0287  0.1385  0.0447
  537TIP3    H123026   4.320   3.798   2.949  0.5105  0.8473 -1.8059
  537TIP3    H223027   4.178   3.819   2.901  0.4703  1.2485 -1.5117
  538TIP3   OH223028   1.405   4.565  10.837  0.1202  0.4748 -0.0843
  538TIP3    H123029   1.371   4.652  10.858 -1.1476 -0.2491  0.9702
  538TIP3    H223030   1.362   4.542  10.754 -0.3562  0.4396  0.1665
  539TIP3   OH223031   6.145   4.076   4.704 -0.0618 -0.0067 -0.0108
  539TIP3    H123032   6.196   4.156   4.721  2.0768 -0.8841 -2.0482
  539TIP3    H223033   6.060   4.108   4.673  1.1375  1.5181 -1.8496
  540TIP3   OH223034   3.364   6.486   4.558  0.3440 -0.0037 -0.1270
  540TIP3    H123035   3.451   6.516   4.584 -0.1622 -0.0508  1.6992
  540TIP3    H223036   3.362   6.395   4.586 -0.4734  0.1553  0.3414
  541TIP3   OH223037   2.020   5.730  16.825 -0.2417  0.2578 -0.2348
  541TIP3    H123038   2.040   5.744  16.732  0.2140  1.3523  0.0169
  541TIP3    H223039   1.980   5.813  16.853 -0.8723 -0.2618  0.4184
  542TIP3   OH223040   1.586   0.608   2.139 -0.5498  0.1614 -0.0620
  542TIP3    H123041   1.613   0.613   2.231 -0.3901  0.7337 -0.1399
  542TIP3    H223042   1.655   0.556   2.097 -1.4056 -1.4084  0.4338
  543TIP3   OH223043   2.124   1.364  14.448  0.3257  0.5047 -0.3340
  543TIP3    H123044   2.030   1.354  14.439  0.2188  0.7602  0.5002
  543TIP3    H223045   2.141   1.357  14.542  0.8949  2.4143 -0.2587
  544TIP3   OH223046   1.955   1.113  12.483 -0.3028 -0.0420 -0.2140
  544TIP3    H123047   1.903   1.079  12.410 -1.6695  0.6564  0.4138
  544TIP3    H223048   1.912   1.195  12.507  1.9244  1.3024 -0.5887
  545TIP3   OH223049   6.312   6.572   2.986 -0.2850  0.5484  0.1527
  545TIP3    H123050   6.354   6.658   2.989 -0.2355  0.5270  0.0796
  545TIP3    H223051   6.333   6.532   3.070 -1.3863  1.1086  0.6966
  546TIP3   OH223052   1.168   5.505   5.528  0.0617  0.3046  0.1494
  546TIP3    H123053   1.246   5.504   5.473 -1.5320  0.8449 -2.2295
  546TIP3    H223054   1.131   5.417   5.518 -0.1983  0.3822  0.4241
  547TIP3   OH223055   5.278   5.824  12.768  0.1835  0.1112 -0.1782
  547TIP3    H123056   5.285   5.842  12.862  0.7613 -1.1295  0.0396
  547TIP3    H223057   5.237   5.902  12.731 -1.5782 -0.0322  1.3517
  548TIP3   OH223058   6.593   0.885   0.760 -0.8109  0.0020 -0.1138
  548TIP3    H123059   6.498   0.886   0.748 -0.8312 -0.6054 -0.0285
  548TIP3    H223060   6.618   0.793   0.751 -0.1337  0.2466 -0.8377
  549TIP3   OH223061   2.762   5.639   3.251  0.0369 -0.3341  0.5785
  549TIP3    H123062   2.727   5.627   3.163  1.2358  0.0239  0.0421
  549TIP3    H223063   2.845   5.685   3.238  0.5410 -0.8592  1.8456
  550TIP3   OH223064   0.916   1.623  11.805 -0.6163  0.6885  0.3884
  550TIP3    H123065   0.845   1.613  11.868  0.9236 -1.2436  1.8711
  550TIP3    H223066   0.995   1.624  11.858  0.5141  2.6176 -1.2598
  551TIP3   OH223067   4.322   3.103  11.241 -0.6002 -0.4372  0.3553
  551TIP3    H123068   4.247   3.151  11.275 -0.7598 -0.4276 -0.0095
  551TIP3    H223069   4.350   3.153  11.164 -1.5908 -1.6364 -0.8140
  552TIP3   OH223070   2.607   5.344   5.051 -0.1394 -0.6572 -0.3391
  552TIP3    H123071   2.616   5.439   5.047 -0.1246 -0.6195  0.5268
  552TIP3    H223072   2.579   5.326   5.141 -2.1909 -1.3014 -1.0810
  553TIP3   OH223073   1.052   0.796  17.126 -0.9013  0.3088  0.4455
  553TIP3    H123074   1.102   0.868  17.164  0.7276 -0.4518 -0.2101
  553TIP3    H223075   1.042   0.819  17.034  1.9940 -1.5235 -0.4010
  554TIP3   OH223076   4.798   2.915   3.507 -0.3527  0.3087 -0.0532
  554TIP3    H123077   4.849   2.834   3.513 -0.5778  0.0725 -1.1330
  554TIP3    H223078   4.741   2.902   3.431 -2.0850  0.5461  1.1732
  555TIP3   OH223079   5.798   1.674  14.773 -0.5732 -0.2025 -0.3839
  555TIP3    H123080   5.769   1.739  14.709 -1.9073  0.9206  1.2943
  555TIP3    H223081   5.785   1.590  14.730 -1.7402  0.5087 -1.4629
  556TIP3   OH223082   5.244   3.430  16.202 -0.1078 -0.0711  0.0711
  556TIP3    H123083   5.205   3.454  16.286  0.5114 -1.1370  0.6695
  556TIP3    H223084   5.298   3.506  16.179  1.1025 -0.4835  1.4965
  557TIP3   OH223085   2.029   3.888   3.738  0.0298 -0.3893  0.7325
  557TIP3    H123086   2.073   3.816   3.693 -1.2017  0.5617 -2.1229
  557TIP3    H223087   2.094   3.958   3.740 -0.6165  0.3468 -1.7320
  558TIP3   OH223088   3.994   5.484   5.710 -0.2499  0.2392 -0.2534
  558TIP3    H123089   3.923   5.433   5.748 -1.9154  1.2754 -1.8586
  558TIP3    H223090   4.047   5.511   5.784 -1.0844 -1.2253  0.8965
  559TIP3   OH223091   1.993   1.089  13.822 -0.0283  0.9083  0.1324
  559TIP3    H123092   2.029   1.042  13.747  0.1842  3.3950 -1.3790
  559TIP3    H223093   2.070   1.115  13.873 -0.0292  1.1221  0.0274
  560TIP3   OH223094   5.320   2.655  16.953 -0.0214 -0.0660 -0.0290
  560TIP3    H123095   5.386   2.723  16.964 -0.3479  0.2098  0.2715
  560TIP3    H223096   5.346   2.608  16.875  1.0034 -0.5113  0.5797
  561TIP3   OH223097   4.735   5.057   2.005  0.0796 -0.1592  0.1679
  561TIP3    H123098   4.817   5.085   1.965  0.4622 -0.6886  0.5621
  561TIP3    H223099   4.743   4.961   2.012 -0.3595 -0.1646  0.6601
  562TIP3   OH223100   0.249   1.232  14.421 -0.7443  0.1086  1.0645
  562TIP3    H123101   0.336   1.260  14.392 -2.1459  0.6344 -3.0712
  562TIP3    H223102   0.253   1.137  14.420 -0.6451  0.1124 -0.7042
  563TIP3   OH223103   0.530   1.796   1.046 -0.1493  0.1122  0.0494
  563TIP3    H123104   0.492   1.752   1.122  2.1792 -2.0255  0.0254
  563TIP3    H223105   0.617   1.759   1.037  1.0130  3.0349 -1.4561
  564TIP3   OH223106   4.236   4.577   3.341  0.1445 -0.2325 -0.4105
  564TIP3    H123107   4.145   4.606   3.352  0.3939  0.4714 -0.1523
  564TIP3    H223108   4.264   4.617   3.258  0.1325 -0.6820 -0.6355
  565TIP3   OH223109   4.503   3.471  12.548  0.0077  0.8354 -0.1058
  565TIP3    H123110   4.440   3.535  12.582 -0.3667  0.4500 -0.0765
  565TIP3    H223111   4.454   3.389  12.544  0.2879  0.7059 -0.8197
  566TIP3   OH223112   6.073   5.799   6.689 -0.5659  0.3375 -0.1443
  566TIP3    H123113   6.012   5.752   6.745  0.2405 -1.8668 -1.0152
  566TIP3    H223114   6.034   5.793   6.602  0.3932 -0.2665 -0.5451
  567TIP3   OH223115   6.025   3.786  15.418  0.1663  0.2740  0.5548
  567TIP3    H123116   6.024   3.849  15.490  1.1089 -0.3194  1.0992
  567TIP3    H223117   6.114   3.792  15.383  0.1193 -0.4338  0.3216
  568TIP3   OH223118   5.940   5.317  11.545 -0.1047 -0.0608  0.1390
  568TIP3    H123119   5.936   5.325  11.450  1.7211  1.9809  0.1884
  568TIP3    H223120   5.957   5.406  11.576 -1.5852 -0.5384  2.4480
  569TIP3   OH223121   6.373   3.181   2.853 -0.7075 -0.6043 -0.4012
  569TIP3    H123122   6.365   3.172   2.758  0.5745 -0.0165 -0.5807
  569TIP3    H223123   6.415   3.099   2.881 -1.9743 -1.1924 -0.2140
  570TIP3   OH223124   3.939   5.655   3.526  0.0602  0.2410 -0.3413
  570TIP3    H123125   3.979   5.611   3.451 -2.4215  1.0169 -2.1606
  570TIP3    H223126   3.987   5.737   3.533  2.6935 -1.3285  1.2130
  571TIP3   OH223127   4.852   2.096   3.984  0.0641  0.3711  0.5003
  571TIP3    H123128   4.942   2.097   4.017  0.6982 -0.4728 -1.1676
  571TIP3    H223129   4.799   2.070   4.060  1.1392  1.4880  1.6553
  572TIP3   OH223130   2.220   3.539  16.543  0.0007 -0.2084  0.2247
  572TIP3    H123131   2.227   3.580  16.457  1.4698 -0.3169  0.2809
  572TIP3    H223132   2.177   3.455  16.527 -2.6153  1.1093  0.0449
  573TIP3   OH223133   5.377   3.012  12.777  0.2562 -0.1788  0.1366
  573TIP3    H123134   5.410   2.951  12.843  0.0972  0.0999  0.4782
  573TIP3    H223135   5.404   2.974  12.693 -0.8048 -1.3163  0.2859
  574TIP3   OH223136   1.320   2.853  15.115 -0.6592 -0.3712  0.4447
  574TIP3    H123137   1.409   2.823  15.134 -0.8634 -0.3091  1.4935
  574TIP3    H223138   1.332   2.935  15.067 -0.1129 -1.5060 -1.4236
  575TIP3   OH223139   2.483   4.862  11.625 -0.3377 -0.0392  0.3977
  575TIP3    H123140   2.428   4.938  11.646  0.1782  0.9949 -1.8286
  575TIP3    H223141   2.465   4.799  11.695 -1.4010  1.8094  1.8329
  576TIP3   OH223142   1.359   5.211   2.554  0.5189  0.3485  0.0210
  576TIP3    H123143   1.318   5.297   2.565 -1.4811 -0.6627  0.8100
  576TIP3    H223144   1.319   5.157   2.623  1.9389 -1.1360 -0.3021
  577TIP3   OH223145   1.398   5.256   0.838  0.2397 -0.3380  0.3255
  577TIP3    H123146   1.484   5.215   0.845  0.0965 -0.6773  0.1250
  577TIP3    H223147   1.414   5.348   0.856  0.7157 -0.3301 -0.1054
  578TIP3   OH223148   3.526   6.273  11.976 -0.5756 -0.5858  0.0327
  578TIP3    H123149   3.522   6.264  12.071  2.0353 -2.1807  0.0286
  578TIP3    H223150   3.487   6.193  11.942 -0.8013 -0.3595 -0.2537
  579TIP3   OH223151   4.225   6.433  15.246 -0.4973 -0.3723 -0.3749
  579TIP3    H123152   4.290   6.417  15.178 -0.5180 -0.7028 -0.3152
  579TIP3    H223153   4.252   6.516  15.287 -0.1821 -0.4524 -0.4254
  580TIP3   OH223154   1.564   0.248  12.451 -0.2530 -0.1294  0.0748
  580TIP3    H123155   1.640   0.290  12.491 -0.0812 -1.0041  0.6763
  580TIP3    H223156   1.489   0.284  12.499  0.0721 -2.6724  2.5799
  581TIP3   OH223157   6.013   6.687  16.407  0.4054  0.4856 -0.5179
  581TIP3    H123158   5.931   6.647  16.435  0.7600  0.4462  0.4648
  581TIP3    H223159   6.002   6.780  16.426  0.5735  0.4864 -0.4245
  582TIP3   OH223160   1.122   2.389  11.096 -0.5458  0.0375 -0.5726
  582TIP3    H123161   1.212   2.384  11.063 -0.8852  0.2245 -1.5229
  582TIP3    H223162   1.102   2.300  11.123  0.9050  0.5042  2.2778
  583TIP3   OH223163   2.000   0.197   0.227  0.2300 -0.0846 -0.1773
  583TIP3    H123164   1.968   0.110   0.203  3.2667 -1.0065 -1.0231
  583TIP3    H223165   2.007   0.194   0.323  1.4091 -1.1651 -0.2922
  584TIP3   OH223166   1.315   1.611  12.622  0.1915 -0.1212 -0.0142
  584TIP3    H123167   1.329   1.565  12.539 -0.3876  0.5572 -0.4946
  584TIP3    H223168   1.232   1.575  12.655 -0.4988  0.8724 -0.6123
  585TIP3   OH223169   4.934   4.894   4.433  0.1121  0.7202 -0.2589
  585TIP3    H123170   4.923   4.959   4.502 -1.2731 -0.9072  1.1236
  585TIP3    H223171   4.956   4.813   4.481  0.6535 -0.0890 -1.8393
  586TIP3   OH223172   5.120   5.610  13.348  0.0607 -0.1243  0.6719
  586TIP3    H123173   5.132   5.653  13.433  0.4447  1.5235 -0.1946
  586TIP3    H223174   5.027   5.587  13.347 -0.3153  1.3328  0.8688
  587TIP3   OH223175   1.046   1.679  12.092 -0.2505 -0.2794  0.1460
  587TIP3    H123176   0.981   1.706  12.157 -1.3943  1.3397 -1.6136
  587TIP3    H223177   1.023   1.589  12.071 -3.5151  1.0055 -2.2174
  588TIP3   OH223178   6.019   1.375  13.064  0.0224  0.0718  0.2756
  588TIP3    H123179   6.065   1.350  12.984  2.3504 -0.1948  1.6560
  588TIP3    H223180   6.026   1.299  13.121 -1.5311  0.2999  0.7868
  589TIP3   OH223181   0.181   3.009  12.978 -0.3460 -0.7990  0.1584
  589TIP3    H123182   0.232   2.941  13.022  1.1515  1.2236  1.6592
  589TIP3    H223183   0.232   3.029  12.899  1.3741  1.3047  1.7166
  590TIP3   OH223184   2.549   3.560  14.949 -0.0334 -0.1998 -0.4995
  590TIP3    H123185   2.600   3.590  14.873  0.8757  0.8618  0.5124
  590TIP3    H223186   2.610   3.508  15.000 -0.5949 -0.7564 -0.3867
  591TIP3   OH223187   3.455   4.555   4.886  0.9696 -0.0434  0.2009
  591TIP3    H123188   3.470   4.635   4.935  0.9065  0.2244 -0.2090
  591TIP3    H223189   3.471   4.484   4.948  1.1869  0.2856  0.5170
  592TIP3   OH223190   4.340   5.864   1.288 -0.0954  0.6753 -0.4693
  592TIP3    H123191   4.301   5.891   1.371 -0.6576 -1.6886  0.0513
  592TIP3    H223192   4.265   5.848   1.230  0.2813  1.7954 -1.2916
  593TIP3   OH223193   4.757   2.832  16.270  0.4117  0.3792 -0.0424
  593TIP3    H123194   4.686   2.835  16.206  1.0588 -2.0657 -0.9234
  593TIP3    H223195   4.741   2.753  16.321  2.1149  0.1674  0.2076
  594TIP3   OH223196   0.361   4.969   0.739  0.1678 -0.6455  0.0981
  594TIP3    H123197   0.341   4.882   0.774  1.5437 -0.1436  2.2092
  594TIP3    H223198   0.358   5.027   0.816  0.2085  1.0190 -1.1233
  595TIP3   OH223199   0.672   2.966  15.279  0.5906 -0.1035  0.5465
  595TIP3    H123200   0.675   3.020  15.200  0.2682 -1.0448 -0.1262
  595TIP3    H223201   0.754   2.986  15.325  1.9428 -1.3354 -1.2468
  596TIP3   OH223202   2.154   4.901  16.467  0.1182  0.0373 -0.0535
  596TIP3    H123203   2.230   4.919  16.412 -1.4968  0.0406 -2.3459
  596TIP3    H223204   2.150   4.805  16.472 -0.1971  0.0200 -0.6154
  597TIP3   OH223205   4.214   4.425   5.253 -0.2316  0.5695 -0.4704
  597TIP3    H123206   4.303   4.459   5.264 -0.5898  1.0959  0.8952
  597TIP3    H223207   4.188   4.454   5.166  0.9293  0.4284 -0.8757
  598TIP3   OH223208   6.560   2.417   2.193  0.8575 -0.2628  0.4607
  598TIP3    H123209   6.586   2.482   2.128 -1.4615 -0.1338 -0.3671
  598TIP3    H223210   6.547   2.468   2.273 -1.2632  0.4059 -0.2597
  599TIP3   OH223211   4.681   4.941   2.792 -0.3776  0.0578  0.3445
  599TIP3    H123212   4.710   4.853   2.768  0.6841  0.3634  0.5225
  599TIP3    H223213   4.729   4.962   2.871 -0.7859  0.7265  0.4199
  600TIP3   OH223214   2.301   5.034   5.104  0.5766 -0.1548  0.5723
  600TIP3    H123215   2.273   5.125   5.093  0.2614 -0.6398 -3.1657
  600TIP3    H223216   2.396   5.040   5.116  0.3084  0.7593  2.4494
  601TIP3   OH223217   4.481   0.891   2.781 -0.5354 -0.9044 -0.5560
  601TIP3    H123218   4.539   0.919   2.710  0.1613  0.2460  0.4468
  601TIP3    H223219   4.399   0.937   2.764 -0.2027 -0.2239 -0.3317
  602TIP3   OH223220   5.825   3.852  15.222 -0.0980  0.3041  0.2819
  602TIP3    H123221   5.862   3.877  15.137 -0.0974  0.5086  0.3434
  602TIP3    H223222   5.901   3.828  15.275  0.0874  2.2989  0.9371
  603TIP3   OH223223   5.031   0.545   4.622  0.2489 -0.0389 -0.0173
  603TIP3    H123224   5.115   0.591   4.618  0.6478 -0.7241  0.4751
  603TIP3    H223225   5.053   0.454   4.639 -0.5376 -0.4556 -1.1246
  604TIP3   OH223226   3.376   0.261   3.364  0.1718  0.3181  0.7814
  604TIP3    H123227   3.413   0.314   3.294 -0.9785  0.3162  0.1644
  604TIP3    H223228   3.453   0.223   3.408  0.9124  0.5577 -0.2731
  605TIP3   OH223229   4.806   1.993   3.124 -0.3686 -0.2439 -0.3280
  605TIP3    H123230   4.715   1.962   3.129 -0.2882 -0.6178 -1.0932
  605TIP3    H223231   4.811   2.064   3.188 -1.1975 -0.2287 -0.2746
  606TIP3   OH223232   0.187   2.355  16.348 -0.1679  0.3140  0.4467
  606TIP3    H123233   0.205   2.365  16.254 -0.1329  0.6822  0.4952
  606TIP3    H223234   0.123   2.283  16.352  0.8864 -0.6557  0.2362
  607TIP3   OH223235   3.314   1.707   2.813  0.3048 -0.0205  0.0980
  607TIP3    H123236   3.263   1.630   2.837  0.9862 -0.4267  0.2429
  607TIP3    H223237   3.275   1.737   2.731 -0.4895 -0.0302  0.4622
  608TIP3   OH223238   2.583   6.081   1.344 -0.0805  0.1092  0.2376
  608TIP3    H123239   2.524   6.072   1.418 -0.5353 -0.8426 -0.2225
  608TIP3    H223240   2.534   6.043   1.270  1.9229 -2.6914  0.2923
  609TIP3   OH223241   4.995   4.009  14.716  0.2580 -0.0684 -0.2496
  609TIP3    H123242   4.974   4.101  14.732 -0.3568 -0.1726 -0.4159
  609TIP3    H223243   5.027   4.006  14.626 -0.0667 -0.0694 -0.3654
  610TIP3   OH223244   1.456   5.361  15.267  0.1540  0.7559  0.3780
  610TIP3    H123245   1.398   5.425  15.227  0.2731 -0.2437 -1.4739
  610TIP3    H223246   1.401   5.283  15.278  0.1984  0.9343  1.9369
  611TIP3   OH223247   6.469   0.189   1.452 -0.2381  0.1628  0.3168
  611TIP3    H123248   6.557   0.184   1.488 -0.1516  1.3484  0.2771
  611TIP3    H223249   6.416   0.133   1.509  0.2807  0.4903  1.1261
  612TIP3   OH223250   2.264   6.453   0.264  0.3746 -0.4075 -0.1555
  612TIP3    H123251   2.215   6.491   0.190  0.9958 -2.0778 -1.4351
  612TIP3    H223252   2.320   6.525   0.294 -0.0971  0.3834 -1.1181
  613TIP3   OH223253   4.291   1.539  17.105 -0.0055 -0.1045  0.7276
  613TIP3    H123254   4.318   1.511  17.018  0.4515  0.9990  0.5103
  613TIP3    H223255   4.303   1.462  17.160  1.6653 -0.2174  0.2344
  614TIP3   OH223256   5.059   2.834   4.575  0.1150  0.1960  0.4442
  614TIP3    H123257   5.040   2.833   4.669  0.2579  0.1462  0.4728
  614TIP3    H223258   5.070   2.741   4.552 -0.9529  0.1301  0.1716
  615TIP3   OH223259   0.163   5.105   0.507 -0.2617  0.1590 -0.5149
  615TIP3    H123260   0.175   5.039   0.575 -2.4192 -0.5023 -0.7521
  615TIP3    H223261   0.141   5.185   0.555 -0.4332  0.0184 -0.3551
  616TIP3   OH223262   2.072   5.704  16.565 -0.1013 -0.3211  0.3744
  616TIP3    H123263   2.004   5.646  16.533 -1.4179  1.3669  0.0664
  616TIP3    H223264   2.153   5.671  16.524 -1.1919 -0.4391 -1.7434
  617TIP3   OH223265   4.643   6.383  13.858  0.2867  0.6403  0.1727
  617TIP3    H123266   4.685   6.369  13.943 -0.8536 -0.0651  0.6346
  617TIP3    H223267   4.551   6.400  13.879 -0.2645 -0.7920 -0.9787
  618TIP3   OH223268   1.573   0.245  15.422  0.2361 -0.1234  0.0014
  618TIP3    H123269   1.522   0.176  15.463 -1.5115  1.0649 -0.0916
  618TIP3    H223270   1.662   0.212  15.420 -0.3218 -1.7514  1.2948
  619TIP3   OH223271   4.978   1.789   3.799 -0.2404 -0.0596  0.6021
  619TIP3    H123272   5.044   1.843   3.755  0.5261 -0.5435  1.1310
  619TIP3    H223273   5.025   1.750   3.873 -0.6404 -1.8127 -0.0453
  620TIP3   OH223274   3.461   4.993  11.205 -0.0709  0.1320  0.1764
  620TIP3    H123275   3.376   5.018  11.241 -0.2533  1.2755 -1.0236
  620TIP3    H223276   3.443   4.974  11.113  0.5197 -2.0835  0.4927
  621TIP3   OH223277   4.305   5.486   5.801 -0.3679  0.7561 -0.4021
  621TIP3    H123278   4.289   5.396   5.828  0.0604  0.2787 -1.7225
  621TIP3    H223279   4.241   5.538   5.850 -0.8476 -0.2998  0.0897
  622TIP3   OH223280   3.841   1.704   0.933 -0.5884  0.1479  0.4629
  622TIP3    H123281   3.925   1.746   0.950 -0.3366 -0.2268  0.1619
  622TIP3    H223282   3.864   1.619   0.895 -1.0935 -0.2699  1.0829
  623TIP3   OH223283   0.772   0.366  11.460 -0.6316 -0.2104  0.3324
  623TIP3    H123284   0.770   0.373  11.364  0.1585  0.9095  0.3939
  623TIP3    H223285   0.694   0.315  11.481 -0.6644 -0.7150 -0.9325
  624TIP3   OH223286   1.566   2.725   3.245 -0.1398  0.1600  0.2608
  624TIP3    H123287   1.591   2.637   3.276 -0.6917  0.6508  2.1752
  624TIP3    H223288   1.474   2.716   3.220  0.1136 -0.0762 -0.5754
  625TIP3   OH223289   6.273   2.065  15.476  0.3491 -0.2437  0.1489
  625TIP3    H123290   6.345   2.060  15.539 -0.5494  1.6694  1.3698
  625TIP3    H223291   6.284   2.151  15.434  1.7898 -2.0689 -3.3993
  626TIP3   OH223292   0.556   2.443   3.394  0.9338  0.0132 -0.6431
  626TIP3    H123293   0.645   2.438   3.430  0.2460 -0.0915  1.0813
  626TIP3    H223294   0.499   2.424   3.468 -0.5583  0.6023 -1.6183
  627TIP3   OH223295   3.489   5.930  14.630  0.3354  0.1125 -0.4023
  627TIP3    H123296   3.525   5.964  14.548  1.7255 -2.3749 -0.8890
  627TIP3    H223297   3.397   5.957  14.629  1.1389  2.9953 -1.1382
  628TIP3   OH223298   4.605   6.277  13.102 -0.3393  0.1063 -0.1133
  628TIP3    H123299   4.551   6.217  13.153  0.4539 -0.7522 -0.2824
  628TIP3    H223300   4.543   6.325  13.048 -1.0255 -0.1795  0.4101
  629TIP3   OH223301   3.377   5.199   6.270  0.3559 -0.3064  0.1898
  629TIP3    H123302   3.317   5.126   6.252 -1.3661  1.1423 -0.0268
  629TIP3    H223303   3.463   5.166   6.242 -0.6707 -1.6394 -1.4786
  630TIP3   OH223304   4.189   1.983  14.177 -0.4388 -0.2923  0.0943
  630TIP3    H123305   4.098   1.966  14.200  0.1429  1.4723  4.0488
  630TIP3    H223306   4.205   2.073  14.206  1.4350  0.9773 -4.3698
  631TIP3   OH223307   6.075   2.779   3.598 -0.4887  0.1123 -0.0104
  631TIP3    H123308   6.142   2.803   3.534  0.0785 -2.1188 -0.3012
  631TIP3    H223309   6.123   2.766   3.679 -0.6370 -0.8088 -0.0565
  632TIP3   OH223310   5.793   2.144   2.413  0.3211 -0.8042 -0.3808
  632TIP3    H123311   5.717   2.103   2.454  0.6392 -0.7040  0.3137
  632TIP3    H223312   5.853   2.162   2.485  1.4351 -1.7797 -1.0587
  633TIP3   OH223313   5.025   1.846   1.193  0.0826 -0.0607  0.1178
  633TIP3    H123314   4.938   1.856   1.231  0.7902  1.7123  1.3783
  633TIP3    H223315   5.041   1.752   1.194 -0.8585 -0.2256  2.1222
  634TIP3   OH223316   1.468   2.693   5.142  0.1877 -0.1142 -0.6304
  634TIP3    H123317   1.559   2.692   5.169 -0.3756  1.3352  1.4222
  634TIP3    H223318   1.425   2.627   5.196 -0.1438 -0.2467 -1.0432
  635TIP3   OH223319   0.075   4.260  11.103 -0.0446  0.0975 -0.4757
  635TIP3    H123320   0.107   4.256  11.013  1.2332  2.2241 -0.1493
  635TIP3    H223321   0.006   4.326  11.100  0.3184  0.5089  0.1873
  636TIP3   OH223322   2.975   5.804  12.718  0.6495 -0.1361 -0.1765
  636TIP3    H123323   2.890   5.761  12.730  0.8023 -0.2668  0.4368
  636TIP3    H223324   2.955   5.897  12.725  0.2081 -0.0486 -2.1584
  637TIP3   OH223325   4.152   2.940  14.241  0.1561  0.1483  0.0771
  637TIP3    H123326   4.115   3.022  14.273  1.7034  0.7505  0.4022
  637TIP3    H223327   4.077   2.886  14.220 -0.8845  1.6452 -0.1138
  638TIP3   OH223328   5.215   5.157  11.046 -0.1282 -0.5959 -0.5350
  638TIP3    H123329   5.241   5.185  10.958  1.1334 -0.5799 -0.1664
  638TIP3    H223330   5.200   5.063  11.038  0.0620 -0.6088 -0.7543
  639TIP3   OH223331   4.986   5.940  12.591  0.1093 -0.4720  0.2512
  639TIP3    H123332   5.023   5.920  12.505 -0.7118  1.6504 -0.6119
  639TIP3    H223333   5.059   5.978  12.640 -0.1689  1.0043 -0.4744
  640TIP3   OH223334   5.789   6.128   2.034 -0.0716 -0.4851 -0.1187
  640TIP3    H123335   5.852   6.150   2.102  0.9929 -1.5936 -0.7228
  640TIP3    H223336   5.729   6.202   2.031  1.0985  0.4956  0.5997
  641TIP3   OH223337   1.420   4.851   5.330 -0.3651 -0.6486 -0.2285
  641TIP3    H123338   1.341   4.835   5.279 -0.5152  0.1506 -0.2522
  641TIP3    H223339   1.492   4.838   5.268 -0.5802  1.2445 -0.9108
  642TIP3   OH223340   6.278   0.393   4.496 -0.4462 -0.1201 -0.3382
  642TIP3    H123341   6.232   0.374   4.578 -0.5328 -0.3376 -0.4373
  642TIP3    H223342   6.349   0.329   4.493 -0.3081  0.0337 -0.3223
  643TIP3   OH223343   1.620   4.715   4.187  0.2794  0.0898 -0.8113
  643TIP3    H123344   1.680   4.648   4.218  0.3505  0.1012 -0.9238
  643TIP3    H223345   1.535   4.672   4.184  0.1045  0.3421  0.2729
  644TIP3   OH223346   5.959   4.150   3.184  0.0250  0.7280 -0.2389
  644TIP3    H123347   5.913   4.071   3.156 -0.3405  0.6905  0.4764
  644TIP3    H223348   5.956   4.207   3.107 -0.1998  0.2728 -0.5724
  645TIP3   OH223349   6.676   6.645   3.214  0.1767  0.6558  0.7731
  645TIP3    H123350   6.734   6.663   3.140 -0.8646 -1.9524 -0.7456
  645TIP3    H223351   6.606   6.591   3.177 -0.6476 -0.2623  3.5657
  646TIP3   OH223352   1.017   2.819  16.789 -0.2355  0.1003 -0.0925
  646TIP3    H123353   1.095   2.774  16.755 -0.9460 -0.9600 -0.3349
  646TIP3    H223354   0.954   2.814  16.717 -1.0859 -0.4729  0.6891
  647TIP3   OH223355   5.223   4.802  14.324 -0.2015 -1.0724 -0.4133
  647TIP3    H123356   5.240   4.820  14.232  1.0653  0.8215  0.1514
  647TIP3    H223357   5.155   4.864  14.349  2.2429  1.1906  0.8739
  648TIP3   OH223358   6.482   0.812   5.144 -0.5490 -0.0711 -0.2186
  648TIP3    H123359   6.462   0.879   5.079 -0.8421 -0.4185 -0.4914
  648TIP3    H223360   6.494   0.861   5.226 -1.1656  0.2788 -0.3288
  649TIP3   OH223361   2.039   5.437   0.043 -0.1869  0.5114 -0.4906
  649TIP3    H123362   2.081   5.453  -0.041 -0.1342 -0.7964 -0.7231
  649TIP3    H223363   2.070   5.350   0.070  0.7223  1.4040  1.4303
  650TIP3   OH223364   6.475   0.147   4.733 -0.0126  0.8216  0.5816
  650TIP3    H123365   6.494   0.122   4.824 -1.1148 -0.2850  0.5279
  650TIP3    H223366   6.407   0.214   4.740 -0.8790 -0.0400  0.5505
  651TIP3   OH223367   3.041   0.233  11.915 -0.1909 -0.0850 -0.0371
  651TIP3    H123368   3.121   0.285  11.905  0.1399 -0.8079 -1.2484
  651TIP3    H223369   3.017   0.243  12.007  0.1871  1.7556 -0.1167
  652TIP3   OH223370   5.624   4.059   1.369  0.4129  0.8782  0.0401
  652TIP3    H123371   5.582   4.143   1.387  0.0672  0.5653  0.7573
  652TIP3    H223372   5.676   4.041   1.448 -1.5594 -0.7867  1.0078
  653TIP3   OH223373   6.449   0.267   0.239 -0.0538  0.1320  0.2379
  653TIP3    H123374   6.473   0.191   0.186  0.0658 -0.2278  0.8023
  653TIP3    H223375   6.475   0.343   0.186  2.9880 -0.2406  1.1054
  654TIP3   OH223376   1.156   4.429   0.006  0.3016 -0.5077 -0.5976
  654TIP3    H123377   1.107   4.402  -0.072 -3.9450 -1.1690  2.1178
  654TIP3    H223378   1.093   4.421   0.077  2.9221  3.5888  2.3894
  655TIP3   OH223379   0.049   0.003   1.004  0.3799  0.4779  0.5033
  655TIP3    H123380  -0.011  -0.023   0.933  1.7774  0.8153 -0.8132
  655TIP3    H223381  -0.008   0.047   1.068 -0.8530  0.4268 -0.5247
  656TIP3   OH223382   5.379   3.892   3.934 -0.1268 -0.0387  0.1337
  656TIP3    H123383   5.412   3.962   3.878  0.2514 -0.2070  0.1412
  656TIP3    H223384   5.286   3.909   3.942  0.3836  1.8979  2.1997
  657TIP3   OH223385   3.555   6.695   3.160  0.4936  0.3950  0.5340
  657TIP3    H123386   3.511   6.767   3.115 -1.2304 -0.7986  0.2477
  657TIP3    H223387   3.565   6.725   3.250 -2.9500 -0.1332  1.1666
  658TIP3   OH223388   5.179   0.495  13.249 -0.1944  0.2929  0.0453
  658TIP3    H123389   5.195   0.420  13.306  0.5263  0.0117 -0.5080
  658TIP3    H223390   5.261   0.545  13.251 -0.0659  0.1448 -0.9189
  659TIP3   OH223391   3.709   6.433   2.790  0.3877  0.3685  0.0332
  659TIP3    H123392   3.691   6.517   2.748 -0.4609 -0.6614 -1.7371
  659TIP3    H223393   3.786   6.399   2.744  1.9736  1.0597  2.1022
  660TIP3   OH223394   1.236   2.614  15.993 -0.1566 -0.0991  0.1507
  660TIP3    H123395   1.280   2.542  16.039 -1.7740 -0.2707  1.4888
  660TIP3    H223396   1.236   2.588  15.901  0.6123 -1.0910  0.4221
  661TIP3   OH223397   3.239   6.634   2.906  0.7309  0.3525 -0.0662
  661TIP3    H123398   3.268   6.543   2.903 -0.6729 -0.1792  1.5552
  661TIP3    H223399   3.166   6.638   2.845 -0.7753 -0.2242  1.6627
  662TIP3   OH223400   2.758   2.473   5.624  0.1691 -0.2494 -0.6689
  662TIP3    H123401   2.851   2.479   5.601  0.9097 -0.9322  1.9660
  662TIP3    H223402   2.740   2.552   5.674 -0.2010 -0.9366  0.3038
  663TIP3   OH223403   5.614   0.408  15.007  0.0053 -0.2032  0.4010
  663TIP3    H123404   5.696   0.382  15.047 -0.0044 -0.2415  0.3957
  663TIP3    H223405   5.548   0.354  15.050 -0.0080 -0.2265  0.3520
  664TIP3   OH223406   2.170   5.066  17.200  0.0094  0.2068  0.5413
  664TIP3    H123407   2.204   4.982  17.168 -0.6981  0.3749 -0.6843
  664TIP3    H223408   2.146   5.114  17.121 -3.0706  0.0858  1.3300
  665TIP3   OH223409   3.834   5.206   0.688  0.2737 -0.3524  0.3075
  665TIP3    H123410   3.875   5.256   0.759  1.2600 -1.8238  0.7797
  665TIP3    H223411   3.907   5.174   0.636 -0.3277 -1.8668  0.3811
  666TIP3   OH223412   1.019   4.683  14.612  0.2289 -0.2477 -0.0401
  666TIP3    H123413   1.024   4.777  14.593 -1.0327 -0.4104 -1.2610
  666TIP3    H223414   1.085   4.644  14.554  1.6174 -0.0179  1.3469
  667TIP3   OH223415   6.549   5.955   5.670 -0.5506  0.5981  0.2996
  667TIP3    H123416   6.517   5.932   5.583  0.8703  0.6496 -0.2532
  667TIP3    H223417   6.626   5.899   5.682  1.1873  2.8881  0.1527
  668TIP3   OH223418   5.472   4.925   4.586  0.2403 -0.1103  0.0633
  668TIP3    H123419   5.458   5.019   4.571  0.5084 -0.3950 -2.1477
  668TIP3    H223420   5.388   4.893   4.618  0.1282  0.8649  0.7804
  669TIP3   OH223421   1.601   5.715  14.931  0.1994 -0.6509  0.0475
  669TIP3    H123422   1.633   5.786  14.987 -0.1580 -0.4354 -0.0241
  669TIP3    H223423   1.680   5.667  14.907  0.3343 -0.8864  0.9293
  670TIP3   OH223424   5.927   1.318  17.163  0.2842  0.0424  0.0927
  670TIP3    H123425   6.008   1.296  17.117 -0.8199 -0.8772 -1.4180
  670TIP3    H223426   5.910   1.242  17.220  0.0410 -0.1215 -0.2000
  671TIP3   OH223427   2.855   4.302   4.143  0.3952 -0.6059 -0.4286
  671TIP3    H123428   2.915   4.372   4.118 -0.1034 -0.1775 -0.4263
  671TIP3    H223429   2.899   4.258   4.216  0.7036 -0.2843 -0.4206
  672TIP3   OH223430   1.666   6.746   2.860 -0.6278  0.3713  0.9716
  672TIP3    H123431   1.628   6.767   2.945  1.4818  0.7772  1.8365
  672TIP3    H223432   1.720   6.822   2.838  1.4839 -1.1291  0.8348
  673TIP3   OH223433   3.313   0.600  12.689  0.5103  0.6012  0.3003
  673TIP3    H123434   3.217   0.600  12.688  0.4973  1.4997 -3.0012
  673TIP3    H223435   3.338   0.652  12.613  3.6595 -2.7189 -1.0646
  674TIP3   OH223436   5.117   2.223   2.297 -0.1292 -0.6014  0.8990
  674TIP3    H123437   5.122   2.265   2.211  2.4819 -1.2443  0.7137
  674TIP3    H223438   5.028   2.242   2.327 -0.5252  1.0795 -1.1936
  675TIP3   OH223439   2.514   1.998  16.425  0.0839 -0.0305  0.2014
  675TIP3    H123440   2.446   2.054  16.463  1.1254  1.6214 -0.3250
  675TIP3    H223441   2.568   2.057  16.373  1.2446 -1.5253 -0.3415
  676TIP3   OH223442   6.618   3.056   0.540  0.1495 -0.7201  0.7241
  676TIP3    H123443   6.601   3.150   0.541 -1.2307 -0.8909 -2.0871
  676TIP3    H223444   6.667   3.041   0.459 -1.4673 -2.6883  0.0584
  677TIP3   OH223445   3.463   5.059  13.551  0.4634 -0.1623 -0.5238
  677TIP3    H123446   3.372   5.088  13.544  0.9301  1.6234  0.5894
  677TIP3    H223447   3.476   5.001  13.476 -1.5272 -0.2498 -0.8144
  678TIP3   OH223448   2.698   1.752   6.329 -0.0371 -0.7031 -0.6040
  678TIP3    H123449   2.773   1.726   6.276  0.9370 -1.0557  0.8982
  678TIP3    H223450   2.731   1.748   6.419 -0.5613  3.3663 -0.1458
  679TIP3   OH223451   5.492   6.343   1.077  0.4281  0.2519  0.9540
  679TIP3    H123452   5.427   6.408   1.051  0.5184  0.7745  2.0139
  679TIP3    H223453   5.524   6.307   0.995  0.9884  2.1576  0.3094
  680TIP3   OH223454   1.751   1.921  12.921  0.1530 -0.3680  0.2224
  680TIP3    H123455   1.785   1.832  12.932  0.3395 -0.2278  0.8168
  680TIP3    H223456   1.829   1.976  12.919  0.1042 -0.3216 -1.3149
  681TIP3   OH223457   5.765   1.879   1.454  0.2257 -0.0780  0.1311
  681TIP3    H123458   5.735   1.821   1.385 -2.9996 -0.3504  1.6980
  681TIP3    H223459   5.855   1.850   1.473  1.0422 -0.2118 -3.6131
  682TIP3   OH223460   6.195   0.622   2.911  0.5944 -0.2049 -0.1195
  682TIP3    H123461   6.110   0.605   2.871  0.1496 -1.6194  1.3442
  682TIP3    H223462   6.221   0.707   2.876 -1.8818  0.7238  0.1491
  683TIP3   OH223463   5.262   6.430  10.690  0.1139  0.3187  0.2791
  683TIP3    H123464   5.273   6.485  10.768  0.5428 -2.0893  1.9916
  683TIP3    H223465   5.346   6.434  10.646  0.0907  1.1571  0.2999
  684TIP3   OH223466   0.349   5.503   3.321  0.2765  0.1540  0.1039
  684TIP3    H123467   0.298   5.431   3.284  2.0247 -1.2972  0.4443
  684TIP3    H223468   0.283   5.564   3.355 -1.2664 -0.5555 -1.4823
  685TIP3   OH223469   0.072   3.944  15.941 -0.0578  0.2791 -0.5326
  685TIP3    H123470   0.023   4.000  15.880 -2.7374 -1.5483 -0.1228
  685TIP3    H223471   0.137   3.901  15.887 -0.8505  0.4975 -1.6860
  686TIP3   OH223472   6.366   3.026   3.170  0.4567  0.3628  0.0163
  686TIP3    H123473   6.341   2.964   3.102 -0.1292  1.1763 -0.5211
  686TIP3    H223474   6.284   3.067   3.197  0.8993  1.3155 -0.0456
  687TIP3   OH223475   0.414   6.409  14.296  0.4871 -0.2182  0.2548
  687TIP3    H123476   0.362   6.471  14.347 -0.7966  0.1202 -1.4167
  687TIP3    H223477   0.505   6.432  14.315  0.0244  1.7116  0.2384
  688TIP3   OH223478   2.418   1.529   1.197  0.0416  0.0355 -0.0558
  688TIP3    H123479   2.348   1.488   1.147 -0.2553 -1.5322  1.5885
  688TIP3    H223480   2.460   1.589   1.135 -1.3520 -0.6202 -1.6799
  689TIP3   OH223481   1.014   6.131   0.872 -0.1634 -0.2458 -0.0448
  689TIP3    H123482   1.081   6.067   0.895 -1.3456 -1.2577  0.6809
  689TIP3    H223483   0.940   6.110   0.930 -1.2402  0.6004 -1.0808
  690TIP3   OH223484   2.147   3.782  16.916  0.3029  0.5234  0.2469
  690TIP3    H123485   2.135   3.721  16.989 -1.9252  1.7253  0.9630
  690TIP3    H223486   2.160   3.867  16.959 -3.6087  1.6847 -0.6900
  691TIP3   OH223487   0.772   1.571   4.132  0.3432 -0.8662  0.1657
  691TIP3    H123488   0.862   1.603   4.123  0.2892 -0.2373  1.6498
  691TIP3    H223489   0.751   1.531   4.047  1.2451  0.9444 -0.9323
  692TIP3   OH223490   1.980   4.249  12.154  0.5671  0.0587 -0.3336
  692TIP3    H123491   1.999   4.343  12.155  1.2979 -0.0889  1.1903
  692TIP3    H223492   1.896   4.242  12.108  0.1036  1.5278  0.2600
  693TIP3   OH223493   6.470   2.837   1.446  0.1336  0.0951  0.6224
  693TIP3    H123494   6.388   2.798   1.413 -1.2897  0.5796  3.4520
  693TIP3    H223495   6.538   2.797   1.391 -1.7825 -2.0298 -0.3423
  694TIP3   OH223496   6.445   4.365  14.810 -0.5604 -0.1754  0.1733
  694TIP3    H123497   6.532   4.392  14.839  0.3375 -1.9056 -0.7452
  694TIP3    H223498   6.461   4.322  14.726 -2.5184  0.8618 -0.7669
  695TIP3   OH223499   1.729   4.264   3.770  0.2963  0.3068  0.0938
  695TIP3    H123500   1.780   4.227   3.842  2.5010  0.3167 -1.4086
  695TIP3    H223501   1.788   4.259   3.695 -1.9897  0.2318 -1.7277
  696TIP3   OH223502   1.508   3.369  15.304 -0.0325 -0.1935 -0.0922
  696TIP3    H123503   1.530   3.367  15.397 -0.1496  0.1334 -0.0558
  696TIP3    H223504   1.540   3.285  15.270 -1.1869 -0.8805  0.5026
  697TIP3   OH223505   4.287   5.058  13.484 -0.4138 -0.1240  0.1147
  697TIP3    H123506   4.262   5.102  13.402 -2.3431  0.2813  0.8916
  697TIP3    H223507   4.216   4.995  13.500 -0.8514  0.8578  2.2374
  698TIP3   OH223508   0.920   0.279  16.185  0.2692 -0.2705 -0.4203
  698TIP3    H123509   0.925   0.232  16.101 -0.6427 -0.1884 -0.5190
  698TIP3    H223510   0.961   0.364  16.168 -1.1795  0.2900 -1.1624
  699TIP3   OH223511   5.480   6.365   4.025  0.2923  0.3510 -0.0020
  699TIP3    H123512   5.515   6.448   4.058  1.6995 -1.1757  2.5822
  699TIP3    H223513   5.539   6.341   3.953  1.4904  0.3399  0.9582
  700TIP3   OH223514   4.389   2.762  11.858 -0.5304  0.2786 -0.2507
  700TIP3    H123515   4.366   2.728  11.772 -1.2098  0.9172 -0.3273
  700TIP3    H223516   4.362   2.854  11.855  2.8545  1.3310 -0.6626
  701TIP3   OH223517   2.891   4.932   2.124 -0.3372 -0.0410 -0.4349
  701TIP3    H123518   2.914   5.025   2.114  2.4416 -0.8215 -2.0628
  701TIP3    H223519   2.950   4.901   2.192 -0.1074 -0.9528 -1.0444
  702TIP3   OH223520   2.431   1.353  14.028  0.0941  0.0742 -0.4554
  702TIP3    H123521   2.514   1.391  14.056  0.2107 -0.9234  0.5740
  702TIP3    H223522   2.383   1.337  14.110  0.4407 -2.8960 -0.7729
  703TIP3   OH223523   0.552   4.163  13.421  0.0426  0.2602  0.1327
  703TIP3    H123524   0.640   4.195  13.401  0.8450 -2.7355 -1.5162
  703TIP3    H223525   0.505   4.170  13.338 -0.0772 -1.6865  0.0122
  704TIP3   OH223526   5.892   3.048   4.568  0.3288 -0.2018  0.0843
  704TIP3    H123527   5.809   3.002   4.583 -0.3815  1.2171  0.5695
  704TIP3    H223528   5.918   3.080   4.654  0.4001  1.0153 -0.3866
  705TIP3   OH223529   6.013   2.730   5.191  0.8901  0.6405 -0.0800
  705TIP3    H123530   6.015   2.809   5.138 -0.0247  0.5807 -0.2035
  705TIP3    H223531   6.015   2.658   5.128  0.7285  0.5683 -0.0041
  706TIP3   OH223532   6.337   4.241   4.434  0.1277  0.4336 -0.2685
  706TIP3    H123533   6.382   4.180   4.492  0.9685  1.0610 -0.2489
  706TIP3    H223534   6.316   4.316   4.491  0.3436  0.7577 -0.6143
  707TIP3   OH223535   5.254   2.414   0.558 -0.5841  0.3193 -0.2404
  707TIP3    H123536   5.306   2.335   0.546  0.0642  0.8512 -0.9520
  707TIP3    H223537   5.165   2.388   0.536 -0.6213 -0.5865  0.9388
  708TIP3   OH223538   3.795   1.445  13.774 -0.8473  0.2884 -0.1157
  708TIP3    H123539   3.785   1.439  13.679 -1.3574  1.9852 -0.1879
  708TIP3    H223540   3.886   1.420  13.790 -1.2231 -1.6560 -0.8680
  709TIP3   OH223541   6.500   5.783  16.809  0.2605 -0.5412 -0.0448
  709TIP3    H123542   6.464   5.841  16.876 -1.8988 -1.9049  0.0450
  709TIP3    H223543   6.515   5.700  16.856 -0.7240 -1.3276 -1.0706
  710TIP3   OH223544   2.612   3.926  12.651 -0.3844 -0.7185  0.8307
  710TIP3    H123545   2.678   3.862  12.628 -0.5361 -0.9779  1.1184
  710TIP3    H223546   2.558   3.935  12.572  0.3444 -0.0713  0.4048
  711TIP3   OH223547   1.940   2.607   2.920  0.0760 -0.6380  0.2154
  711TIP3    H123548   1.988   2.679   2.881 -1.0127 -0.0625 -0.0788
  711TIP3    H223549   1.939   2.626   3.014 -1.1490  0.3161  0.0218
  712TIP3   OH223550   2.775   0.955   0.455 -0.2180  0.2668  0.2051
  712TIP3    H123551   2.847   1.015   0.472 -0.5594  0.1384  2.2565
  712TIP3    H223552   2.696   1.009   0.459 -0.3915  0.0263  0.0922
  713TIP3   OH223553   5.325   3.334  15.688  0.2845  0.2705  0.4979
  713TIP3    H123554   5.407   3.336  15.638 -1.3530 -1.5510 -2.4398
  713TIP3    H223555   5.272   3.404  15.651 -0.8422 -0.9083 -0.1602
  714TIP3   OH223556   2.213   2.332   4.674 -0.1334  0.4590 -0.5437
  714TIP3    H123557   2.207   2.315   4.768 -0.5831  0.8829 -0.4966
  714TIP3    H223558   2.283   2.397   4.667  1.9006 -1.6643 -0.7627
  715TIP3   OH223559   2.154   1.029   2.866  0.3632  0.0762  0.4384
  715TIP3    H123560   2.070   1.050   2.908  0.8126  1.6370  0.6060
  715TIP3    H223561   2.131   0.974   2.791 -0.8424  0.7720  0.2882
  716TIP3   OH223562   1.754   5.590   4.382 -0.0562 -0.2965  0.5484
  716TIP3    H123563   1.686   5.651   4.352 -1.6961 -1.0270  2.6181
  716TIP3    H223564   1.836   5.627   4.349 -1.3842  0.9927 -1.3987
  717TIP3   OH223565   1.284   4.182  14.169  0.0710  0.4590 -0.4845
  717TIP3    H123566   1.307   4.114  14.105  0.5393 -0.6217  0.8067
  717TIP3    H223567   1.334   4.259  14.142  0.1126  0.0719 -1.5307
  718TIP3   OH223568   1.693   6.338  13.250 -0.3295 -0.2328 -0.0103
  718TIP3    H123569   1.605   6.322  13.282 -1.8298 -0.5096 -3.9911
  718TIP3    H223570   1.698   6.433  13.239  0.0125 -0.1864  0.4869
  719TIP3   OH223571   4.319   1.644  14.835  0.0244  0.2391 -0.1242
  719TIP3    H123572   4.400   1.611  14.797 -0.3652 -1.9212  0.8087
  719TIP3    H223573   4.347   1.704  14.904  0.8887 -1.7910  1.3230
  720TIP3   OH223574   3.806   0.888   4.137 -0.6332  0.6443  0.1343
  720TIP3    H123575   3.818   0.898   4.042 -0.4728  0.1626  0.1042
  720TIP3    H223576   3.740   0.819   4.146 -0.2617  0.3166  0.3815
  721TIP3   OH223577   1.351   5.005  14.142 -0.4356  0.2755  0.1872
  721TIP3    H123578   1.398   4.970  14.066 -1.6086 -4.0819  1.2924
  721TIP3    H223579   1.262   4.969  14.134 -1.1225  1.3430  2.5571
  722TIP3   OH223580   0.805   5.647   5.646  0.5314 -0.4618 -0.5788
  722TIP3    H123581   0.725   5.655   5.593  0.0820 -0.6068  0.0740
  722TIP3    H223582   0.778   5.672   5.734  1.4900  0.6480 -0.5890
  723TIP3   OH223583   3.805   3.869  12.012  0.1921 -0.2368  0.0460
  723TIP3    H123584   3.748   3.946  12.017 -0.8753 -0.9399 -1.0216
  723TIP3    H223585   3.860   3.875  12.090 -1.0692  0.6680  0.8901
  724TIP3   OH223586   5.051   4.350   4.308  0.0706 -0.4325 -0.3768
  724TIP3    H123587   5.082   4.434   4.340  0.8272 -0.6733 -0.4647
  724TIP3    H223588   4.990   4.320   4.375 -0.8298  0.5649 -0.7487
  725TIP3   OH223589   2.862   5.009  13.176 -0.1819  0.0886  0.4923
  725TIP3    H123590   2.774   5.045  13.168 -0.3474 -0.0735  1.4968
  725TIP3    H223591   2.920   5.081  13.154 -0.4826  1.2192  3.1612
  726TIP3   OH223592   1.416   3.389  14.394 -0.3526 -0.2175  0.5607
  726TIP3    H123593   1.359   3.316  14.369  0.9629 -1.0367 -0.1332
  726TIP3    H223594   1.501   3.348  14.411  0.5715  1.2238 -0.4569
  727TIP3   OH223595   4.666   5.468  14.340  0.0083 -0.0251 -0.2065
  727TIP3    H123596   4.600   5.481  14.272 -0.3361  0.6832  0.2578
  727TIP3    H223597   4.621   5.415  14.406 -0.2768  0.9009  0.3554
  728TIP3   OH223598   0.117   0.636  14.925 -0.0496  0.6096  1.1319
  728TIP3    H123599   0.090   0.661  14.836 -0.4876 -1.6889  0.5883
  728TIP3    H223600   0.061   0.687  14.983 -0.9494  0.8356  0.0667
  729TIP3   OH223601   3.584   6.369  15.683  0.3421  0.1223  0.1699
  729TIP3    H123602   3.659   6.329  15.639 -0.0212 -1.6431  1.1395
  729TIP3    H223603   3.615   6.456  15.708  1.3482  0.2298 -1.3855
  730TIP3   OH223604   4.942   6.345  12.027 -0.3486  0.3493  0.2125
  730TIP3    H123605   4.953   6.284  12.100 -0.9218  1.7382  1.4848
  730TIP3    H223606   5.003   6.314  11.961 -0.1854 -1.2438  1.0657
  731TIP3   OH223607   1.455   5.625   5.086  0.0859 -0.3283  0.2535
  731TIP3    H123608   1.476   5.574   5.007 -1.6490  1.6172 -1.5156
  731TIP3    H223609   1.360   5.630   5.086  0.0885 -0.1148  2.3860
  732TIP3   OH223610   3.185   4.141   6.019  0.1713 -0.0823 -0.4323
  732TIP3    H123611   3.184   4.111   6.110  0.0087  0.2019 -0.3394
  732TIP3    H223612   3.094   4.162   6.000  0.4024  1.1968 -0.2128
  733TIP3   OH223613   4.729   6.177  15.800  0.5801 -0.1301 -0.0913
  733TIP3    H123614   4.683   6.106  15.843  1.1418 -0.6799 -0.3901
  733TIP3    H223615   4.674   6.254  15.815 -0.8620 -0.9324 -1.1846
  734TIP3   OH223616   5.965   1.212  13.567  0.1310  0.2821 -0.4165
  734TIP3    H123617   6.026   1.138  13.558 -0.8767 -0.9705  2.2618
  734TIP3    H223618   6.017   1.281  13.609  0.0712 -0.3487  0.7319
  735TIP3   OH223619   0.845   4.086  15.635 -0.0880  0.2850 -0.3643
  735TIP3    H123620   0.794   4.008  15.617 -1.2013  0.9177  0.0103
  735TIP3    H223621   0.898   4.099  15.556 -1.0846  0.0659 -1.0796
  736TIP3   OH223622   4.584   5.862  16.596 -0.2939 -0.1652 -0.1397
  736TIP3    H123623   4.558   5.855  16.504 -1.2336  0.6710  0.0525
  736TIP3    H223624   4.511   5.907  16.638 -0.8244 -2.4376  1.4400
  737TIP3   OH223625   0.435   2.162   4.117  0.2821 -0.7167  0.2614
  737TIP3    H123626   0.407   2.173   4.208  3.2433  0.2904  1.1214
  737TIP3    H223627   0.521   2.121   4.123  0.0946 -1.5401 -2.1386
  738TIP3   OH223628   4.201   6.718   4.418 -0.3600  0.1107  0.4147
  738TIP3    H123629   4.210   6.758   4.331  4.1624 -0.3379  0.5543
  738TIP3    H223630   4.207   6.791   4.479  0.6773  0.0014  0.4518
  739TIP3   OH223631   1.783   1.073   0.964 -0.5612  0.5235  0.2853
  739TIP3    H123632   1.756   1.102   0.877 -0.9135 -0.9810 -0.1304
  739TIP3    H223633   1.702   1.067   1.014 -0.2133  2.8260  1.2019
  740TIP3   OH223634   3.895   3.977   3.199 -0.0764  0.0694  0.1516
  740TIP3    H123635   3.974   3.925   3.215 -0.3135 -0.6336 -0.9034
  740TIP3    H223636   3.921   4.067   3.217  0.7186 -0.2646  0.6794
  741TIP3   OH223637   4.315   3.198   0.885  0.5147  0.2770 -0.1145
  741TIP3    H123638   4.352   3.262   0.825 -0.4553 -0.4486 -1.5095
  741TIP3    H223639   4.224   3.224   0.896  0.3650 -0.2997  0.0716
  742TIP3   OH223640   1.721   1.078  10.462 -0.2814 -0.3484 -0.1426
  742TIP3    H123641   1.771   1.040  10.390  0.4025  0.7189 -0.2440
  742TIP3    H223642   1.787   1.117  10.519 -0.9196  0.0472  0.3320
  743TIP3   OH223643   0.685   4.082  11.718 -0.3273  0.1331  0.8082
  743TIP3    H123644   0.605   4.080  11.666 -0.3805 -0.4649  0.9039
  743TIP3    H223645   0.717   4.172  11.711 -0.1267 -0.0408 -0.5711
  744TIP3   OH223646   3.063   4.839  13.300  0.1048 -0.0850 -0.0880
  744TIP3    H123647   3.140   4.808  13.251 -0.1711 -0.5299 -0.2370
  744TIP3    H223648   3.019   4.899  13.240  1.6015  2.0184  0.8296
  745TIP3   OH223649   1.192   3.710   4.657  0.4583 -0.2476 -0.3604
  745TIP3    H123650   1.255   3.782   4.657  1.5844 -1.2034  1.4015
  745TIP3    H223651   1.136   3.727   4.581  1.3813  1.8803 -0.5860
  746TIP3   OH223652   1.169   2.950  12.496 -0.0083  0.5333 -0.5974
  746TIP3    H123653   1.222   2.880  12.457 -0.3896 -0.4717  0.6525
  746TIP3    H223654   1.118   2.985  12.423  0.6826 -0.0455 -1.3665
  747TIP3   OH223655   2.166   2.725   1.409  0.0846  0.2850  0.2663
  747TIP3    H123656   2.175   2.730   1.504  0.5594  0.2297  0.2246
  747TIP3    H223657   2.207   2.805   1.376  2.6560 -1.1177 -0.0650
  748TIP3   OH223658   6.532   3.029  14.855 -0.0906 -1.0183  0.2985
  748TIP3    H123659   6.506   3.063  14.940  0.2453  1.8910 -0.7000
  748TIP3    H223660   6.627   3.040  14.852 -0.1460 -0.7366 -0.6039
  749TIP3   OH223661   3.401   2.431   4.520  0.0573  0.4276 -0.3611
  749TIP3    H123662   3.393   2.424   4.615  0.1384 -1.5193 -0.4842
  749TIP3    H223663   3.483   2.388   4.499 -1.0698 -1.2109 -1.5432
  750TIP3   OH223664   0.247   5.864  10.400  0.0103 -0.0315  0.2723
  750TIP3    H123665   0.311   5.928  10.431 -0.1997 -0.4741  1.6241
  750TIP3    H223666   0.265   5.856  10.306  0.6658  1.2857  0.2791
  751TIP3   OH223667   1.102   1.389   2.248 -0.7656 -0.3665  0.1373
  751TIP3    H123668   1.037   1.329   2.284 -1.0498  0.5133  1.1341
  751TIP3    H223669   1.180   1.336   2.234 -0.0990 -0.4441  3.6130
  752TIP3   OH223670   1.816   3.041   6.622 -0.0558  0.4714 -0.4745
  752TIP3    H123671   1.827   2.947   6.638 -0.6234  0.3109 -0.9768
  752TIP3    H223672   1.788   3.046   6.530 -0.1811  1.1183 -0.4020
  753TIP3   OH223673   0.656   4.508  12.174  0.3183 -0.0805 -0.1161
  753TIP3    H123674   0.616   4.422  12.193  1.8878 -0.6682  0.6527
  753TIP3    H223675   0.635   4.561  12.250  0.9787 -0.3980  0.2997
  754TIP3   OH223676   4.138   3.996   5.821  0.0815 -0.4246 -0.0101
  754TIP3    H123677   4.177   4.068   5.871  0.5117  0.1824 -1.1952
  754TIP3    H223678   4.212   3.956   5.775 -0.4417 -0.3336 -0.9401
  755TIP3   OH223679   0.105   2.991   3.300  0.2211  0.4020 -0.2557
  755TIP3    H123680   0.164   3.066   3.293  0.6913  0.1858  1.1812
  755TIP3    H223681   0.126   2.951   3.385 -0.9410 -0.5753 -0.4019
  756TIP3   OH223682   0.721   2.031   2.753  0.2986 -0.9113 -0.6962
  756TIP3    H123683   0.633   2.021   2.716 -0.1612  1.2384 -0.2847
  756TIP3    H223684   0.768   1.952   2.726 -1.8107 -2.1854 -0.7684
  757TIP3   OH223685   2.459   3.752   3.906  0.0983  0.3919  0.1364
  757TIP3    H123686   2.365   3.767   3.893  0.2984  2.1281  0.5397
  757TIP3    H223687   2.472   3.769   3.999  0.8557  0.4083  0.0246
  758TIP3   OH223688   2.732   5.410  11.732 -0.6784 -0.2147 -0.1944
  758TIP3    H123689   2.808   5.419  11.790  0.4564  0.2448 -1.6970
  758TIP3    H223690   2.677   5.485  11.752 -0.1048  0.1458  0.0290
  759TIP3   OH223691   1.720   5.939  14.729  0.2817  0.2067 -0.1034
  759TIP3    H123692   1.759   5.860  14.765 -0.1095  0.1682  0.2457
  759TIP3    H223693   1.795   5.995  14.706  0.5605 -0.3341 -0.5217
  760TIP3   OH223694   0.204   2.675  12.368  0.5312 -0.9127  0.0972
  760TIP3    H123695   0.168   2.610  12.308  1.9596 -1.9622  0.3470
  760TIP3    H223696   0.270   2.627  12.418  1.9504  0.8444 -0.0364
  761TIP3   OH223697   4.157   3.141   3.924  0.8630 -0.3697  0.5328
  761TIP3    H123698   4.218   3.168   3.993  0.6544  2.8417 -0.4351
  761TIP3    H223699   4.211   3.134   3.846  0.6372 -1.3025  0.4604
  762TIP3   OH223700   0.640   6.590  16.581 -0.3919  0.1702  0.2714
  762TIP3    H123701   0.619   6.682  16.564 -1.6966 -0.2268 -0.3618
  762TIP3    H223702   0.690   6.591  16.663  0.0784  1.4898 -0.0309
  763TIP3   OH223703   0.466   2.204   2.591 -0.2963 -0.5287 -0.2109
  763TIP3    H123704   0.377   2.172   2.609 -1.0028  0.0135 -2.6046
  763TIP3    H223705   0.507   2.135   2.540  1.0560 -1.2310  1.7486
  764TIP3   OH223706   1.178   3.944  13.309 -0.4943  0.1512 -0.2454
  764TIP3    H123707   1.126   3.872  13.272  0.0390  0.4134 -1.5222
  764TIP3    H223708   1.203   3.996  13.234  0.2933  0.9158  0.5401
  765TIP3   OH223709   3.479   0.490   0.454 -0.2606 -0.3364  0.8042
  765TIP3    H123710   3.402   0.530   0.412 -0.4609 -0.1685  1.3213
  765TIP3    H223711   3.518   0.562   0.505  1.8416  0.3209 -1.6455
  766TIP3   OH223712   2.134   4.581   4.997  0.7355  0.3900  0.0272
  766TIP3    H123713   2.137   4.671   4.965  0.7593  0.6940  0.8680
  766TIP3    H223714   2.072   4.537   4.938  0.8588  0.9076 -0.4970
  767TIP3   OH223715   6.231   3.631  16.606 -0.2294  0.2128 -0.1289
  767TIP3    H123716   6.233   3.679  16.523 -2.3467  2.5428  1.0949
  767TIP3    H223717   6.179   3.553  16.586  0.7653 -0.1458 -1.4214
  768TIP3   OH223718   5.167   0.638   2.821  0.2163 -0.2687  0.1937
  768TIP3    H123719   5.152   0.555   2.774 -1.1225  0.8067 -1.3637
  768TIP3    H223720   5.192   0.612   2.909 -0.2621 -2.3485 -0.2603
  769TIP3   OH223721   3.579   5.980   6.201 -0.2965 -0.9121  0.2139
  769TIP3    H123722   3.497   6.009   6.242 -0.5399 -2.4463  0.8397
  769TIP3    H223723   3.642   5.980   6.273  0.1942 -0.0456 -0.2033
  770TIP3   OH223724   6.112   6.735  12.018 -0.0946  0.1484 -0.0963
  770TIP3    H123725   6.033   6.774  11.978  0.5124  1.3648 -0.1432
  770TIP3    H223726   6.097   6.641  12.012 -1.8105  0.3621  0.4174
  771TIP3   OH223727   5.910   5.981   0.821 -0.1518 -0.2376 -0.1965
  771TIP3    H123728   5.958   5.898   0.828 -1.4825 -0.8943  1.5824
  771TIP3    H223729   5.839   5.962   0.760 -1.1679 -0.7894  1.1279
  772TIP3   OH223730   2.303   1.777   6.383  0.5547  0.5059  0.5043
  772TIP3    H123731   2.231   1.839   6.395  0.5890  1.0440 -1.8369
  772TIP3    H223732   2.359   1.790   6.460 -1.0555  1.1446  1.5939
  773TIP3   OH223733   5.719   4.314   0.907 -0.0711 -0.1678 -0.1726
  773TIP3    H123734   5.656   4.279   0.971 -2.2097  0.2012 -2.0139
  773TIP3    H223735   5.704   4.262   0.829 -0.3364  2.0448 -1.6318
  774TIP3   OH223736   2.526   0.088   3.060 -0.1489  0.1975 -0.2697
  774TIP3    H123737   2.604   0.090   3.005 -1.1427  2.5139 -1.6832
  774TIP3    H223738   2.516   0.178   3.092 -1.1998 -0.4800  1.4224
  775TIP3   OH223739   4.175   0.688   2.530  0.2287  0.0746 -0.0848
  775TIP3    H123740   4.267   0.691   2.504  0.5514  1.7741  1.2036
  775TIP3    H223741   4.178   0.672   2.624 -0.7556  1.6177  0.2190
  776TIP3   OH223742   5.375   1.947  13.130  0.1623 -0.8208 -0.2884
  776TIP3    H123743   5.468   1.940  13.109 -0.0292  0.0881 -1.4941
  776TIP3    H223744   5.371   2.018  13.194  0.5028 -2.1403  1.2204
  777TIP3   OH223745   2.855   4.297  16.364 -0.1942 -0.4985 -0.1366
  777TIP3    H123746   2.802   4.219  16.373 -2.2798  0.9780  0.7266
  777TIP3    H223747   2.846   4.342  16.448  0.9999  0.6568 -0.6072
  778TIP3   OH223748   0.879   4.430  15.231 -0.3154 -0.2188 -0.0411
  778TIP3    H123749   0.944   4.428  15.302 -0.2642 -0.4990 -0.0992
  778TIP3    H223750   0.907   4.362  15.170 -0.7816 -0.4790  0.0347
  779TIP3   OH223751   6.623   2.763  13.484  0.4412  0.3614 -0.1972
  779TIP3    H123752   6.694   2.819  13.516  1.2252 -1.2314  0.9164
  779TIP3    H223753   6.655   2.729  13.401  0.0785  1.3232 -0.7398
  780TIP3   OH223754   4.060   1.652   3.840 -0.2317 -0.3807 -0.2445
  780TIP3    H123755   3.984   1.708   3.857 -1.0397 -1.2827 -0.8015
  780TIP3    H223756   4.122   1.709   3.793 -1.6762 -0.3466 -2.1806
  781TIP3   OH223757   5.038   6.776  14.486 -1.1259  0.0752  0.3585
  781TIP3    H123758   5.062   6.787  14.394 -0.7957 -3.5042 -0.0492
  781TIP3    H223759   4.992   6.692  14.489 -2.6342  0.9179  3.2088
  782TIP3   OH223760   4.208   4.315  16.321  0.7774 -0.2495 -0.3173
  782TIP3    H123761   4.170   4.372  16.388 -0.0081 -0.8235 -0.2678
  782TIP3    H223762   4.298   4.300  16.351  0.3821 -0.6345  0.6925
  783TIP3   OH223763   3.689   6.504   5.933 -0.1705  0.5224  0.1374
  783TIP3    H123764   3.721   6.414   5.925 -1.0357  0.2437 -0.2068
  783TIP3    H223765   3.669   6.514   6.026  1.0854  0.7641  0.3957
  784TIP3   OH223766   2.181   1.932  14.601  0.4283  0.0620 -0.7978
  784TIP3    H123767   2.193   1.837  14.594  0.9063 -0.0431  1.0642
  784TIP3    H223768   2.124   1.943  14.677 -0.3421  1.2394 -1.5325
  785TIP3   OH223769   5.842   3.548  16.184 -0.1691 -0.7174  0.0827
  785TIP3    H123770   5.928   3.567  16.146 -0.8635  0.2526 -1.0281
  785TIP3    H223771   5.827   3.456  16.164  1.5904 -1.5382  2.2654
  786TIP3   OH223772   1.557   3.349  16.824  0.5945  0.3157  0.1931
  786TIP3    H123773   1.630   3.306  16.868  1.5388  0.8908 -0.7932
  786TIP3    H223774   1.566   3.324  16.732 -2.3682 -2.2753  0.5445
  787TIP3   OH223775   1.250   6.305   2.946  0.6168 -0.1114  0.5898
  787TIP3    H123776   1.262   6.242   3.017 -1.3446 -0.4611  0.6295
  787TIP3    H223777   1.215   6.255   2.873 -0.9398  0.9074  0.6138
  788TIP3   OH223778   4.320   3.090  16.166 -0.0368 -0.4275 -0.0792
  788TIP3    H123779   4.324   3.176  16.207  1.8586 -0.7535  0.4723
  788TIP3    H223780   4.270   3.103  16.086  0.4128  1.2225 -0.1020
  789TIP3   OH223781   4.486   1.290   2.749  0.7954  0.6685  0.3211
  789TIP3    H123782   4.537   1.302   2.669  1.2034  3.6689  0.9464
  789TIP3    H223783   4.402   1.254   2.719  0.8976  1.8790 -1.5058
  790TIP3   OH223784   5.396   5.976   3.154  0.0746  0.2920 -0.6770
  790TIP3    H123785   5.362   5.891   3.181  1.4489 -0.6539 -1.8545
  790TIP3    H223786   5.491   5.970   3.168  0.2509  1.4226 -1.2829
  791TIP3   OH223787   0.916   1.291  12.615  0.3377  0.6097 -1.0668
  791TIP3    H123788   1.002   1.320  12.585  0.8471 -0.0143 -0.2249
  791TIP3    H223789   0.893   1.351  12.686  0.2147  0.5750 -1.0766
  792TIP3   OH223790   4.101   3.643  12.084 -0.0526 -0.2791 -0.0490
  792TIP3    H123791   4.173   3.619  12.142  1.5506  0.9241 -1.5165
  792TIP3    H223792   4.122   3.602  12.001 -1.3547 -0.3683 -0.3504
  793TIP3   OH223793   0.320   6.065  11.900  0.1067 -0.5803 -0.0191
  793TIP3    H123794   0.389   6.129  11.922 -0.1636  0.5400 -2.2458
  793TIP3    H223795   0.356   6.017  11.825 -1.1128 -0.6472 -0.5716
  794TIP3   OH223796   2.026   0.729  16.600 -0.5435  0.3898  0.1070
  794TIP3    H123797   1.972   0.652  16.582 -0.8851  1.0923 -2.1319
  794TIP3    H223798   2.112   0.694  16.623 -0.4743 -0.6849 -1.6944
  795TIP3   OH223799   3.968   2.828   2.177  0.2366  0.4103 -0.3039
  795TIP3    H123800   4.051   2.800   2.217  0.4879  1.5590  0.0075
  795TIP3    H223801   3.965   2.922   2.194 -1.5225  0.2398  0.3727
  796TIP3   OH223802   0.255   1.953  11.150  0.3784 -0.1684 -0.0446
  796TIP3    H123803   0.220   2.015  11.087 -0.8891  0.3594  1.1546
  796TIP3    H223804   0.192   1.881  11.149  1.2049 -0.8987 -0.5400
  797TIP3   OH223805   1.006   3.807  14.565  0.2277  0.1973 -0.6460
  797TIP3    H123806   0.983   3.868  14.635  0.2951  0.7163 -1.0723
  797TIP3    H223807   0.943   3.735  14.574  1.1281 -0.4396  0.8409
  798TIP3   OH223808   2.104   3.420   1.569 -0.5283 -0.3969  0.2093
  798TIP3    H123809   2.118   3.362   1.644 -0.4245 -1.4106 -0.5780
  798TIP3    H223810   2.156   3.381   1.498  1.0869  1.7233  0.1725
  799TIP3   OH223811   5.133   0.109   1.370 -0.2941 -0.0227 -0.4961
  799TIP3    H123812   5.131   0.154   1.455 -1.4552 -0.6207 -0.2067
  799TIP3    H223813   5.043   0.111   1.339 -0.0377 -0.6085 -1.2983
  800TIP3   OH223814   6.059   5.036  13.531 -0.1292 -0.1156 -0.0836
  800TIP3    H123815   6.057   4.968  13.463 -0.1111 -0.1255 -0.0730
  800TIP3    H223816   6.152   5.051  13.548 -0.1210  0.2829 -0.4577
  801TIP3   OH223817   5.933   3.467   1.430  0.0570  0.4214 -0.1770
  801TIP3    H123818   6.024   3.495   1.439  0.3025 -0.8412  1.5084
  801TIP3    H223819   5.924   3.395   1.493 -1.8885  0.0135 -0.8990
  802TIP3   OH223820   0.816   5.872  11.792 -0.3613 -1.0163 -0.0977
  802TIP3    H123821   0.825   5.966  11.803 -0.5932 -1.1695  1.5618
  802TIP3    H223822   0.770   5.862  11.709 -0.6369  0.3504 -0.1244
  803TIP3   OH223823   5.330   1.262   3.703  0.3816 -0.1997  0.0115
  803TIP3    H123824   5.256   1.220   3.659  0.1838 -0.1284  0.2724
  803TIP3    H223825   5.314   1.246   3.796 -0.3336  1.4897  0.1992
  804TIP3   OH223826   0.775   0.961   2.029  0.3968 -0.0581 -0.1311
  804TIP3    H123827   0.806   1.044   1.992 -1.2156  0.5495 -0.1451
  804TIP3    H223828   0.699   0.938   1.977 -0.8182 -0.1167  1.6004
  805TIP3   OH223829   1.215   2.528  14.603 -0.9485 -0.2949  0.9620
  805TIP3    H123830   1.180   2.555  14.518  0.7471 -3.4018 -0.8143
  805TIP3    H223831   1.261   2.605  14.637  0.7143  0.1778 -2.2331
  806TIP3   OH223832   4.561   2.136  12.348 -0.5060  0.2289  0.1066
  806TIP3    H123833   4.494   2.092  12.294  2.2704 -1.4343 -2.0929
  806TIP3    H223834   4.551   2.097  12.434 -0.6762 -1.9462 -0.8519
  807TIP3   OH223835   5.411   5.954  13.290 -0.5979  0.3695 -0.1998
  807TIP3    H123836   5.471   5.915  13.226  0.5351 -2.3412  2.4152
  807TIP3    H223837   5.467   6.010  13.344 -0.3530 -2.0429  2.1449
  808TIP3   OH223838   2.440   3.581  11.707  0.3351 -0.0797 -0.1299
  808TIP3    H123839   2.498   3.587  11.632 -0.1054  0.5923 -0.4213
  808TIP3    H223840   2.356   3.614  11.675 -0.1298 -0.7640  0.3690
  809TIP3   OH223841   6.686   0.816   2.898 -0.0720 -0.6124  0.2934
  809TIP3    H123842   6.729   0.895   2.931 -0.1929 -0.6858  0.6307
  809TIP3    H223843   6.605   0.810   2.948 -1.3857  0.5428 -1.6519
  810TIP3   OH223844   2.950   3.135  14.254 -0.2671  0.0678  0.8323
  810TIP3    H123845   2.981   3.225  14.248  1.9533 -0.7524 -0.3374
  810TIP3    H223846   2.874   3.132  14.194  1.1726  0.5589 -1.0645
  811TIP3   OH223847   6.496   4.790   2.474 -0.2286 -0.3818 -0.5726
  811TIP3    H123848   6.572   4.769   2.529  0.6532 -0.5858 -1.8354
  811TIP3    H223849   6.445   4.710   2.470 -0.6627 -0.1701  0.4978
  812TIP3   OH223850   6.484   6.465  14.062 -0.3873  0.1910 -0.2411
  812TIP3    H123851   6.574   6.449  14.033 -0.5673  0.5769 -1.0186
  812TIP3    H223852   6.485   6.445  14.156  0.4977  0.1481 -0.2591
  813TIP3   OH223853   5.709   4.157  15.204 -0.2767  0.6899  0.1292
  813TIP3    H123854   5.777   4.214  15.166  0.8345 -0.5454  0.2248
  813TIP3    H223855   5.651   4.138  15.131  2.3739 -2.4455 -1.3081
  814TIP3   OH223856   4.092   0.512   1.855 -0.2961 -0.4371 -0.2335
  814TIP3    H123857   4.082   0.585   1.794  0.0688  0.4886  0.7804
  814TIP3    H223858   4.187   0.497   1.859 -0.4619 -1.8351 -1.4282
  815TIP3   OH223859   5.629   1.541  15.061  0.2389  0.1230 -0.3217
  815TIP3    H123860   5.630   1.512  14.970  0.9550 -1.5758  0.2159
  815TIP3    H223861   5.714   1.514  15.096 -0.0675  0.6711  0.8802
  816TIP3   OH223862   0.141   1.243   1.555  0.2495 -0.6411  0.4652
  816TIP3    H123863   0.118   1.336   1.545 -0.0467 -0.5411  2.0290
  816TIP3    H223864   0.096   1.200   1.482 -0.9576  0.2337  0.6668
  817TIP3   OH223865   5.266   0.929  14.795  0.0826  0.0243 -0.3032
  817TIP3    H123866   5.291   0.903  14.883  1.4174  2.1969 -0.0187
  817TIP3    H223867   5.213   1.008  14.807 -3.0381 -1.8217 -1.2262
  818TIP3   OH223868   1.465   2.881   3.760  0.3638  0.1907 -0.1099
  818TIP3    H123869   1.462   2.962   3.812 -0.5311  1.6069 -2.2819
  818TIP3    H223870   1.397   2.893   3.693  1.0077 -1.8670 -1.1669
  819TIP3   OH223871   1.438   6.002  10.635  0.0023 -0.6844 -0.1312
  819TIP3    H123872   1.381   6.075  10.612 -1.0102 -0.8325  1.7841
  819TIP3    H223873   1.522   6.043  10.655 -0.5888  0.0019  1.0449
  820TIP3   OH223874   1.438   2.164  14.007 -0.0338  0.0085  0.0751
  820TIP3    H123875   1.512   2.209  14.047  0.2418  1.1535 -1.6820
  820TIP3    H223876   1.477   2.107  13.941 -0.6363 -0.2063 -0.0990
  821TIP3   OH223877   4.223   0.004  16.462 -0.2898  0.4000 -0.3454
  821TIP3    H123878   4.285  -0.064  16.435  1.1334  0.8065  1.7293
  821TIP3    H223879   4.171  -0.038  16.531 -1.7078  0.3649 -1.4229
  822TIP3   OH223880   3.379   3.673   1.371  0.5655  0.2368  0.0123
  822TIP3    H123881   3.415   3.668   1.459 -1.5442  1.7270  0.9970
  822TIP3    H223882   3.435   3.736   1.325 -0.2047  1.8849  1.2725
  823TIP3   OH223883   1.864   4.258  13.164 -0.5914  0.0139 -0.1722
  823TIP3    H123884   1.872   4.288  13.074 -1.1475  0.8488  0.0496
  823TIP3    H223885   1.810   4.179  13.158 -0.1848 -0.2343 -0.6200
  824TIP3   OH223886   4.820   2.850   5.224 -0.3933 -0.3023  0.4586
  824TIP3    H123887   4.906   2.888   5.241 -0.6510  0.6081 -0.2931
  824TIP3    H223888   4.773   2.860   5.307 -0.5494  1.2735  0.1968
  825TIP3   OH223889   1.170   3.017   5.374 -0.6921  0.5469 -0.2679
  825TIP3    H123890   1.190   3.082   5.442  0.4642  0.3099 -0.3691
  825TIP3    H223891   1.233   2.947   5.388 -0.6560  0.3437 -1.3883
  826TIP3   OH223892   5.330   6.547   1.019 -0.1975 -0.4629 -0.1115
  826TIP3    H123893   5.381   6.626   1.002  0.0714 -0.5631  0.2018
  826TIP3    H223894   5.283   6.566   1.100 -1.7863  0.1674 -1.1653
  827TIP3   OH223895   2.422   5.236   4.375 -0.3727 -0.3571  0.6298
  827TIP3    H123896   2.496   5.252   4.434 -0.8703  1.5129  0.7829
  827TIP3    H223897   2.418   5.141   4.366  1.5187 -0.5178  1.3012
  828TIP3   OH223898   6.579   0.895  14.764 -0.0927  0.1081 -0.2975
  828TIP3    H123899   6.627   0.977  14.775  0.2160 -0.2115  0.7470
  828TIP3    H223900   6.533   0.883  14.847 -0.1566 -0.7603 -0.4545
  829TIP3   OH223901   5.669   1.447   3.333  0.3333 -0.0174  0.4707
  829TIP3    H123902   5.605   1.463   3.402  0.6628  0.2897  0.7128
  829TIP3    H223903   5.732   1.520   3.342 -0.4372  0.8630 -1.1116
  830TIP3   OH223904   6.061   4.536  15.288 -0.0704 -0.3885 -0.3999
  830TIP3    H123905   6.044   4.468  15.353  0.1676  0.4998  0.6052
  830TIP3    H223906   5.976   4.553  15.247 -0.4418 -0.1468  0.4696
  831TIP3   OH223907   1.674   5.470  15.429  0.1905  0.2966  0.2085
  831TIP3    H123908   1.602   5.437  15.376  1.1990  2.0273 -2.3233
  831TIP3    H223909   1.634   5.537  15.485 -0.6085 -0.5531  0.6707
  832TIP3   OH223910   3.327   4.549  13.717 -0.0296  0.0120 -0.2402
  832TIP3    H123911   3.255   4.597  13.676  0.6350 -0.7582 -2.3829
  832TIP3    H223912   3.406   4.585  13.676  0.7479  0.0138  1.2252
  833TIP3   OH223913   5.147   0.879   3.364  0.4903 -0.1010 -0.1814
  833TIP3    H123914   5.083   0.890   3.293 -0.9636  0.2982  1.1637
  833TIP3    H223915   5.145   0.785   3.383 -0.2072  0.0103  0.3134
  834TIP3   OH223916   0.008   4.456   3.573  0.4255 -0.1872  0.6920
  834TIP3    H123917  -0.063   4.472   3.634 -0.3477 -0.0106 -0.2450
  834TIP3    H223918   0.055   4.539   3.567 -1.0242  0.5585 -0.8850
  835TIP3   OH223919   0.205   6.220  16.283 -0.1912  0.0501 -0.1075
  835TIP3    H123920   0.177   6.132  16.309  0.8013  0.1947  1.5066
  835TIP3    H223921   0.125   6.273  16.286 -0.9651 -0.9575 -1.9194
  836TIP3   OH223922   0.798   5.634  13.611 -0.8258 -0.5277 -0.2559
  836TIP3    H123923   0.832   5.637  13.700  0.2150  0.0402 -0.6764
  836TIP3    H223924   0.837   5.555  13.573  1.5163  1.0978 -1.3303
  837TIP3   OH223925   0.231   0.937  13.153 -0.0302 -0.2655 -0.8636
  837TIP3    H123926   0.253   1.024  13.120  2.9537 -0.4294  0.4914
  837TIP3    H223927   0.222   0.883  13.074  2.0878  0.4198 -1.5996
  838TIP3   OH223928   5.105   2.740   1.561  0.7995  0.1810 -0.6004
  838TIP3    H123929   5.088   2.759   1.653  1.0213  0.6821 -0.6592
  838TIP3    H223930   5.133   2.648   1.560 -1.8006 -0.6544 -0.4949
  839TIP3   OH223931   2.795   3.261   6.298 -0.5622  0.7467 -0.0678
  839TIP3    H123932   2.844   3.179   6.285 -0.1998  1.0388 -0.5615
  839TIP3    H223933   2.751   3.249   6.382 -1.9851 -0.6963 -0.9843
  840TIP3   OH223934   0.274   1.317  12.789 -0.3053  0.1259 -0.1514
  840TIP3    H123935   0.284   1.308  12.694 -1.2750 -2.4761 -0.0477
  840TIP3    H223936   0.356   1.356  12.819  0.1494  0.6257 -2.0204
  841TIP3   OH223937   3.301   1.110   4.080  0.0282  0.0615 -0.2588
  841TIP3    H123938   3.272   1.024   4.110  1.0873  0.1956  1.1950
  841TIP3    H223939   3.257   1.172   4.139 -0.2144  0.4890 -0.8818
  842TIP3   OH223940   3.341   0.513  16.488  0.0443 -0.4434 -0.2389
  842TIP3    H123941   3.255   0.544  16.517  0.3326  0.0653  0.0917
  842TIP3    H223942   3.352   0.429  16.532 -1.5570 -1.9600 -2.6271
  843TIP3   OH223943   0.850   0.768  10.795 -0.0747 -0.0557  0.0899
  843TIP3    H123944   0.793   0.700  10.832  1.2013 -0.7232  0.8553
  843TIP3    H223945   0.934   0.725  10.783 -0.2789  0.3286 -3.0740
  844TIP3   OH223946   3.313   3.974  13.752  0.1456  0.2422  0.3817
  844TIP3    H123947   3.372   3.914  13.797 -0.6841 -1.9300 -1.3532
  844TIP3    H223948   3.270   4.023  13.822  0.5977 -1.3943  1.8332
  845TIP3   OH223949   4.070   2.387  12.282 -0.3358 -0.2914  0.7029
  845TIP3    H123950   4.157   2.354  12.262 -0.5056 -0.4425  0.2028
  845TIP3    H223951   4.032   2.322  12.340 -0.8486 -1.2220 -0.6587
  846TIP3   OH223952   6.047   6.016  16.975  0.0895 -0.1732  0.2644
  846TIP3    H123953   6.091   5.964  16.907 -0.9061  0.2342 -0.6970
  846TIP3    H223954   5.961   5.975  16.985 -0.1230  0.3476  0.6028
  847TIP3   OH223955   3.780   4.055   2.608  0.5081 -0.5542 -0.5886
  847TIP3    H123956   3.868   4.030   2.636  0.0074 -0.7690  0.8075
  847TIP3    H223957   3.769   4.011   2.524  1.6939 -0.6118 -0.7256
  848TIP3   OH223958   3.613   0.404   0.235 -0.7384  0.6055  0.9342
  848TIP3    H123959   3.562   0.426   0.158  1.0127  1.8623  0.0851
  848TIP3    H223960   3.559   0.431   0.309 -1.1934  2.1240  0.0580
  849TIP3   OH223961   0.570   6.145   3.267  0.2528 -0.6604  0.2541
  849TIP3    H123962   0.621   6.138   3.186  0.7413  1.0352  0.4091
  849TIP3    H223963   0.636   6.149   3.336 -0.0976  0.9314  0.5016
  850TIP3   OH223964   2.711   3.797   4.658 -0.2358 -0.3065  0.3931
  850TIP3    H123965   2.772   3.729   4.684  0.9012  1.2168  1.8043
  850TIP3    H223966   2.628   3.773   4.701 -0.0576 -1.2162  0.2278
  851TIP3   OH223967   6.099   2.962   2.042  0.2316  0.3258 -0.2895
  851TIP3    H123968   6.064   2.904   1.975  0.7907 -1.6378  1.0574
  851TIP3    H223969   6.094   2.911   2.123  2.1660  1.5801  0.6754
  852TIP3   OH223970   2.896   5.039  16.153  0.0112 -0.2307  0.5808
  852TIP3    H123971   2.921   4.946  16.156 -1.6271 -0.6439  4.2446
  852TIP3    H223972   2.972   5.085  16.187  0.8725 -0.1807 -1.3534
  853TIP3   OH223973   2.825   5.172  12.733  0.0190  0.2847  0.1264
  853TIP3    H123974   2.842   5.090  12.779  0.6603  0.8322  0.8788
  853TIP3    H223975   2.911   5.205  12.709 -0.2790  0.2583 -1.0547
  854TIP3   OH223976   2.913   1.824  14.331  0.0760  0.0487 -0.2824
  854TIP3    H123977   2.989   1.771  14.356 -0.1766 -0.0727  0.2509
  854TIP3    H223978   2.840   1.762  14.332  0.0669  0.0298 -1.3997
  855TIP3   OH223979   1.095   6.235   2.340 -0.3583  0.5819  1.1079
  855TIP3    H123980   1.069   6.304   2.279 -1.1100  0.2120  1.0136
  855TIP3    H223981   1.158   6.182   2.290 -1.3488 -0.0169  0.4682
  856TIP3   OH223982   2.015   1.971   4.815 -0.2660  0.1204 -0.3441
  856TIP3    H123983   1.950   1.994   4.881 -0.5511  0.1459 -0.6341
  856TIP3    H223984   2.044   1.883   4.840 -2.4420 -1.0409 -1.8118
  857TIP3   OH223985   5.547   6.007  17.216 -0.0658 -0.0212  0.1784
  857TIP3    H123986   5.528   5.941  17.282 -1.7198 -1.8168 -2.0548
  857TIP3    H223987   5.479   5.996  17.150  2.2214  0.9371 -2.4234
  858TIP3   OH223988   4.987   6.186  12.236  0.1711  0.0935  0.7437
  858TIP3    H123989   4.912   6.149  12.283 -0.3103 -1.2183 -1.0177
  858TIP3    H223990   5.051   6.115  12.231  1.0730  0.8529  1.2031
  859TIP3   OH223991   2.026   1.588   3.249 -0.2647  0.0739  0.5706
  859TIP3    H123992   2.083   1.530   3.300 -0.9646  0.0584  1.3385
  859TIP3    H223993   2.064   1.675   3.260  0.9504 -0.2679 -0.8104
  860TIP3   OH223994   4.364   4.021  16.690  0.1286 -0.6240 -0.2093
  860TIP3    H123995   4.412   4.076  16.628 -0.9547  0.1156 -0.3968
  860TIP3    H223996   4.272   4.044  16.677 -0.2564 -1.7777  0.3987
  861TIP3   OH223997   3.300   0.538  14.098 -0.4044  0.6517  0.4485
  861TIP3    H123998   3.313   0.525  14.192  1.4549 -3.6229 -0.2905
  861TIP3    H223999   3.380   0.580  14.068 -0.5284  0.9916  0.5941
  862TIP3   OH224000   0.942   1.766  10.731  0.7256  0.3396 -0.1329
  862TIP3    H124001   0.933   1.852  10.774 -0.1594 -0.4029  1.1999
  862TIP3    H224002   0.958   1.705  10.803 -2.7018 -1.2371 -0.6387
  863TIP3   OH224003   4.224   3.885  13.768  0.1086 -0.2714 -0.6057
  863TIP3    H124004   4.186   3.912  13.684 -0.8755 -0.3815 -0.1912
  863TIP3    H224005   4.173   3.809  13.794  1.3454 -1.1162 -0.5980
  864TIP3   OH224006   6.151   4.156  14.239  0.1732 -0.1375  0.0910
  864TIP3    H124007   6.068   4.147  14.285  1.2640 -0.7489  1.9956
  864TIP3    H224008   6.208   4.202  14.301  0.6225  2.2289 -2.0149
  865TIP3   OH224009   4.165   4.223  15.745 -0.5299 -0.2834 -0.0236
  865TIP3    H124010   4.125   4.207  15.660 -0.5295  1.1461 -0.3111
  865TIP3    H224011   4.121   4.302  15.777  0.4569 -0.0143  0.6718
  866TIP3   OH224012   5.454   0.872  16.751 -0.3300  0.2554 -0.4579
  866TIP3    H124013   5.369   0.832  16.770 -1.3315  2.1714 -0.7763
  866TIP3    H224014   5.496   0.883  16.837 -0.3990 -0.6644 -0.2991
  867TIP3   OH224015   1.073   3.006  15.285  0.1697 -0.1732 -0.6688
  867TIP3    H124016   1.140   3.048  15.231 -2.0099  0.1277 -3.2341
  867TIP3    H224017   1.036   2.938  15.229  0.7677 -2.7877  1.9866
  868TIP3   OH224018   0.336   2.261   4.351 -0.1686  0.5693 -0.3310
  868TIP3    H124019   0.270   2.200   4.385  0.4156  0.5912  0.8801
  868TIP3    H224020   0.290   2.345   4.343 -0.6203  0.2854 -0.7139
  869TIP3   OH224021   0.540   6.221  13.522 -0.2599 -0.2098  0.7453
  869TIP3    H124022   0.522   6.251  13.433 -0.8943  0.2593  1.0202
  869TIP3    H224023   0.615   6.163  13.514  1.4669  2.0137  0.2635
  870TIP3   OH224024   3.224   4.854   5.234 -0.2298 -0.3429 -0.2711
  870TIP3    H124025   3.173   4.774   5.247 -0.5320 -0.6096 -2.9534
  870TIP3    H224026   3.314   4.824   5.224 -0.2392 -0.2873 -0.5282
  871TIP3   OH224027   2.755   0.233  15.274  0.5321 -0.1761 -0.1370
  871TIP3    H124028   2.798   0.150  15.254  1.2189  0.2280 -0.3431
  871TIP3    H224029   2.746   0.234  15.369 -0.6291 -1.0552 -0.2270
  872TIP3   OH224030   4.580   0.924  16.425 -0.6910 -0.2862  0.8000
  872TIP3    H124031   4.504   0.951  16.373 -0.8900  1.7313  2.0794
  872TIP3    H224032   4.574   0.829  16.429 -2.6877 -0.2003  0.1870
  873TIP3   OH224033   6.074   0.024   5.104  0.0725 -0.5251  0.0152
  873TIP3    H124034   5.997   0.017   5.160 -0.1410 -0.8334 -0.3112
  873TIP3    H224035   6.148   0.027   5.164 -0.2169  0.0898  0.3393
  874TIP3   OH224036   6.455   5.064  16.505 -0.1462  0.0984  0.0929
  874TIP3    H124037   6.547   5.038  16.514 -0.6247 -1.7393 -0.2427
  874TIP3    H224038   6.424   5.071  16.595 -0.0836 -0.7622  0.1836
  875TIP3   OH224039   5.213   5.454   2.043 -0.9355 -0.1376  0.5306
  875TIP3    H124040   5.189   5.492   2.127 -0.4986 -0.2183  0.6897
  875TIP3    H224041   5.302   5.484   2.026 -1.1907  0.2660 -0.1303
  876TIP3   OH224042   3.029   1.210   5.891 -0.2833 -0.1100 -0.1895
  876TIP3    H124043   3.079   1.274   5.942 -0.6946 -0.0259  0.1042
  876TIP3    H224044   3.065   1.125   5.918 -2.3775 -0.2606  2.3142
  877TIP3   OH224045   2.423   6.733  14.341 -0.3339 -0.1168 -0.0207
  877TIP3    H124046   2.417   6.828  14.339  0.6066 -0.0795 -1.2039
  877TIP3    H224047   2.438   6.712  14.433 -0.8797  0.8529  0.2963
  878TIP3   OH224048   0.263   4.877  11.239 -0.2477 -0.0716  0.0556
  878TIP3    H124049   0.272   4.791  11.198  1.1058  0.0893 -0.0235
  878TIP3    H224050   0.171   4.882  11.265 -0.3439 -1.5322  0.0418
  879TIP3   OH224051   4.557   6.024  13.219  0.3011 -0.7575 -0.4484
  879TIP3    H124052   4.483   5.995  13.273 -0.1420  1.3975  0.1680
  879TIP3    H224053   4.621   6.056  13.283  0.1617  0.9321 -1.1209
  880TIP3   OH224054   3.965   4.295   2.906 -0.4544 -0.3419 -0.1593
  880TIP3    H124055   3.892   4.254   2.951  0.2736 -1.5815 -0.0812
  880TIP3    H224056   4.014   4.222   2.868  0.0813  0.5538 -1.2149
  881TIP3   OH224057   5.245   1.148   0.965 -0.1050 -0.1112  0.0809
  881TIP3    H124058   5.264   1.178   1.054  0.5685 -1.0776  0.2740
  881TIP3    H224059   5.150   1.135   0.963 -0.6610  3.5563 -0.4995
  882TIP3   OH224060   4.673   3.752  12.463  0.2976  0.9386 -0.1414
  882TIP3    H124061   4.683   3.845  12.485 -1.0363  0.3262  3.2358
  882TIP3    H224062   4.606   3.752  12.393 -0.8211  2.4167  0.8831
  883TIP3   OH224063   4.273   4.305  15.418  0.3222 -0.0110 -0.3643
  883TIP3    H124064   4.262   4.396  15.445 -0.1345  0.1814 -1.1818
  883TIP3    H224065   4.345   4.272  15.472 -0.2987  0.4748  0.7845
  884TIP3   OH224066   5.717   4.312  13.888 -0.1448 -0.2801  0.7424
  884TIP3    H124067   5.771   4.351  13.957  0.5767 -0.1189  0.1077
  884TIP3    H224068   5.770   4.239  13.855 -1.0005 -1.1003  1.1569
  885TIP3   OH224069   6.462   1.748  15.028 -0.4061  0.2329 -1.0453
  885TIP3    H124070   6.445   1.763  14.935 -1.3276 -0.7924 -1.0504
  885TIP3    H224071   6.376   1.747  15.069 -0.0222  0.4390 -0.2093
  886TIP3   OH224072   1.397   6.756  15.033  0.0387 -0.5686 -0.1164
  886TIP3    H124073   1.394   6.829  14.970  0.1225 -1.2450 -0.9121
  886TIP3    H224074   1.373   6.796  15.117  0.1751  0.3960 -0.5288
  887TIP3   OH224075   2.133   5.998   1.317 -0.3737  0.8572 -0.0216
  887TIP3    H124076   2.193   5.996   1.242 -2.3927  2.2677 -1.7347
  887TIP3    H224077   2.146   6.085   1.355  0.4071  0.2646  1.0926
  888TIP3   OH224078   4.939   5.100   1.629 -0.6637 -0.0828 -0.3797
  888TIP3    H124079   4.948   5.184   1.584 -1.0996  0.1920  0.0403
  888TIP3    H224080   4.935   5.122   1.722 -1.4042 -0.5093 -0.3006
  889TIP3   OH224081   6.400   5.619  16.298  0.0326 -0.1325 -0.4115
  889TIP3    H124082   6.489   5.612  16.332  0.5559  1.6317 -1.3843
  889TIP3    H224083   6.410   5.636  16.205 -1.3747 -2.1571 -0.9831
  890TIP3   OH224084   3.910   5.133  12.838  0.4558  0.1686  0.6050
  890TIP3    H124085   3.903   5.105  12.929  0.9246  0.7311  0.8179
  890TIP3    H224086   3.861   5.067  12.789 -0.7650  0.4636  1.3753
  891TIP3   OH224087   4.594   1.712   2.339  0.1704  0.5183  0.0433
  891TIP3    H124088   4.655   1.694   2.268  0.6498  1.6261  0.1576
  891TIP3    H224089   4.515   1.746   2.296 -0.1633 -0.3855 -0.0666
  892TIP3   OH224090   4.917   5.405   2.986 -0.4056  0.0541 -0.0512
  892TIP3    H124091   4.850   5.352   3.029 -0.1615 -0.0702  0.1819
  892TIP3    H224092   4.901   5.494   3.018 -1.0745  0.1916 -0.7659
  893TIP3   OH224093   2.408   3.555   0.836 -0.3678  0.4739 -0.1600
  893TIP3    H124094   2.380   3.646   0.838 -0.9700  0.3469 -1.8453
  893TIP3    H224095   2.332   3.507   0.802 -0.4962 -0.8303  1.8609
  894TIP3   OH224096   1.537   0.658  12.968  0.4790  0.4708  0.6332
  894TIP3    H124097   1.596   0.588  12.994  1.5036  0.9741 -0.2544
  894TIP3    H224098   1.557   0.730  13.029  2.2361  1.3339 -0.8925
  895TIP3   OH224099   6.772   3.551  13.125 -0.2267 -0.0250  0.3364
  895TIP3    H124100   6.811   3.607  13.058 -0.3177 -1.1639 -0.6998
  895TIP3    H224101   6.683   3.583  13.136  0.3109  1.2322  1.1541
  896TIP3   OH224102   6.225   1.731   4.219 -0.3063  0.3221  0.6195
  896TIP3    H124103   6.182   1.801   4.269 -0.3674  0.7304 -0.0022
  896TIP3    H224104   6.280   1.777   4.156 -0.6920 -0.1852 -0.0897
  897TIP3   OH224105   1.439   1.074   2.805  0.6031  0.3431 -0.0892
  897TIP3    H124106   1.514   1.126   2.778  1.3063 -0.3952  0.4321
  897TIP3    H224107   1.392   1.130   2.867  1.4065  0.3287  0.5364
  898TIP3   OH224108   5.781   5.712   5.304 -0.0773 -0.7873  0.8593
  898TIP3    H124109   5.706   5.653   5.312 -0.8738  0.1861  0.5710
  898TIP3    H224110   5.851   5.657   5.268 -1.6831 -0.8884 -2.3180
  899TIP3   OH224111   4.710   1.167   4.679  0.4646 -0.4194  0.3634
  899TIP3    H124112   4.683   1.172   4.587 -0.4100 -0.5183  0.6092
  899TIP3    H224113   4.801   1.137   4.675  0.2460 -1.0260 -0.4559
  900TIP3   OH224114   1.537   3.626   4.709 -0.3614 -0.1736 -0.0736
  900TIP3    H124115   1.455   3.585   4.682  0.2531 -1.8547  0.5612
  900TIP3    H224116   1.598   3.605   4.638 -0.1657  0.0767  0.0205
  901TIP3   OH224117   0.139   4.464  15.643 -0.2210 -0.3116  0.4588
  901TIP3    H124118   0.139   4.536  15.580 -0.3799 -0.4144  0.3403
  901TIP3    H224119   0.221   4.474  15.691  0.5630 -1.0541 -0.7053
  902TIP3   OH224120   6.010   2.352   4.479 -0.3807  0.2182 -0.0859
  902TIP3    H124121   6.071   2.376   4.549 -0.8262  0.4015  0.2421
  902TIP3    H224122   6.060   2.295   4.422 -0.4612 -1.1809  1.2064
  903TIP3   OH224123   3.230   5.631  11.653 -0.7994 -0.0794  0.3408
  903TIP3    H124124   3.304   5.572  11.667  0.8841  2.0257  0.4703
  903TIP3    H224125   3.196   5.607  11.567  0.3465 -0.7191  0.0640
  904TIP3   OH224126   4.360   4.934  14.361  0.4217 -0.0554 -0.0050
  904TIP3    H124127   4.446   4.911  14.397 -0.1792 -0.5101  1.1370
  904TIP3    H224128   4.375   4.940  14.266  1.5909 -0.6811  0.1336
  905TIP3   OH224129   5.558   4.859  14.135  0.1571 -0.1192 -0.0080
  905TIP3    H124130   5.532   4.935  14.081  0.1554 -0.0172  0.1354
  905TIP3    H224131   5.650   4.875  14.156  0.2336 -0.2947 -0.2068
  906TIP3   OH224132   5.366   5.734   4.151 -0.4068  0.1609 -0.5761
  906TIP3    H124133   5.320   5.724   4.234 -2.2557  2.1296 -1.3167
  906TIP3    H224134   5.305   5.700   4.086  0.8786 -1.0165 -1.1920
  907TIP3   OH224135   3.396   5.758   2.206 -0.4136  0.5360  0.4252
  907TIP3    H124136   3.338   5.693   2.244  1.5221 -0.7506  1.2347
  907TIP3    H224137   3.378   5.755   2.112 -0.8203 -0.6947  0.5370
  908TIP3   OH224138   0.802   4.577   6.361 -0.1853  0.2794  0.3804
  908TIP3    H124139   0.860   4.634   6.311  1.3099 -0.0744  1.6867
  908TIP3    H224140   0.825   4.593   6.452 -0.9132 -1.1851  0.8440
  909TIP3   OH224141   2.710   1.003  11.694  0.0544  0.0990  0.5990
  909TIP3    H124142   2.658   0.982  11.772  0.5443 -0.0480  0.8844
  909TIP3    H224143   2.686   0.934  11.631 -1.2864  0.9330  0.1724
  910TIP3   OH224144   6.291   5.685  12.316 -0.1024 -0.5185  0.2121
  910TIP3    H124145   6.254   5.735  12.243  0.0326  0.1424  0.5896
  910TIP3    H224146   6.245   5.718  12.393  0.2685 -0.6978  0.5131
  911TIP3   OH224147   1.451   4.564  11.812  0.3902 -0.5272  0.0053
  911TIP3    H124148   1.530   4.596  11.854 -0.1337  1.3908 -0.4254
  911TIP3    H224149   1.451   4.605  11.726 -0.8023 -0.9266 -0.1958
  912TIP3   OH224150   6.665   0.743  16.067  0.4235 -0.4926  0.4487
  912TIP3    H124151   6.589   0.791  16.033  0.6703  0.5143  1.2742
  912TIP3    H224152   6.735   0.762  16.005  0.5352  0.2753  0.8063
  913TIP3   OH224153   4.575   3.374   1.407 -0.7194 -0.2382  0.5449
  913TIP3    H124154   4.656   3.324   1.421  0.6884  1.9474  0.4534
  913TIP3    H224155   4.519   3.315   1.356  1.4153 -1.2340 -0.7291
  914TIP3   OH224156   5.712   0.549   2.745 -0.0007  0.0560 -0.3299
  914TIP3    H124157   5.679   0.620   2.690 -0.4239 -0.9217 -1.3603
  914TIP3    H224158   5.683   0.469   2.701 -1.6446 -0.7455  2.0993
  915TIP3   OH224159   2.429   4.589  15.980  0.1831 -0.1166 -0.3511
  915TIP3    H124160   2.347   4.541  15.976  0.0994 -0.0657  0.4862
  915TIP3    H224161   2.495   4.522  16.002  0.2695 -0.0625 -0.4459
  916TIP3   OH224162   4.906   6.698   2.842 -0.6107 -0.4264  0.6703
  916TIP3    H124163   4.852   6.775   2.829  0.3215 -0.1170 -1.7944
  916TIP3    H224164   4.942   6.707   2.930  0.7694  2.8157 -0.1790
  917TIP3   OH224165   2.416   4.620  16.607 -0.8555  1.0999 -0.7988
  917TIP3    H124166   2.330   4.618  16.567 -1.0149  3.6146 -0.6928
  917TIP3    H224167   2.410   4.689  16.674  1.1350  1.1166 -0.5839
  918TIP3   OH224168   2.002   1.402  13.491 -0.4030  0.0034 -0.3195
  918TIP3    H124169   2.019   1.463  13.419  1.9275 -0.4081 -0.1525
  918TIP3    H224170   2.019   1.315  13.453  0.2905 -0.2481  0.5448
  919TIP3   OH224171   0.483   0.678   3.507  0.0538 -0.0387  0.0960
  919TIP3    H124172   0.389   0.689   3.489  0.3809 -0.1764 -1.8604
  919TIP3    H224173   0.520   0.766   3.496  0.2021 -0.0544  0.4850
  920TIP3   OH224174   5.553   1.118   1.519  0.4434 -1.1891 -0.0291
  920TIP3    H124175   5.585   1.205   1.494 -2.9086 -0.2689 -1.4150
  920TIP3    H224176   5.565   1.065   1.441  0.9102 -1.5244  0.2682
  921TIP3   OH224177   5.020   6.180  11.308 -0.7459 -0.0192  0.3574
  921TIP3    H124178   5.049   6.092  11.334 -1.5761 -0.9441 -1.7273
  921TIP3    H224179   4.970   6.166  11.227  2.4359  2.7747 -2.2691
  922TIP3   OH224180   4.839   4.629   2.432  0.2326 -0.3545 -0.3521
  922TIP3    H124181   4.758   4.600   2.389 -0.4099  1.8417 -0.6638
  922TIP3    H224182   4.878   4.691   2.370  2.2305 -1.4707 -0.2568
  923TIP3   OH224183   2.892   5.979   1.283  0.5815  0.4715  0.6676
  923TIP3    H124184   2.804   5.943   1.290  0.5596  0.7829  2.1305
  923TIP3    H224185   2.880   6.073   1.288  0.8423  0.6018 -0.9642
  924TIP3   OH224186   1.943   2.967   3.012 -0.5307  0.3953 -0.3921
  924TIP3    H124187   1.924   3.061   3.013 -2.2970  0.0619 -0.0417
  924TIP3    H224188   1.926   2.939   3.102 -2.2835 -0.6484 -1.0164
  925TIP3   OH224189   4.184   2.121   3.859 -0.3023 -0.2696 -0.1409
  925TIP3    H124190   4.151   2.192   3.914 -0.4700  0.8606 -1.6820
  925TIP3    H224191   4.124   2.118   3.785 -0.7803 -2.5741  0.2970
  926TIP3   OH224192   2.674   1.424   2.841  0.3647 -0.4358  0.1409
  926TIP3    H124193   2.677   1.348   2.783  0.6139 -1.1243  1.0404
  926TIP3    H224194   2.641   1.389   2.924  1.4252  0.2586  0.8599
  927TIP3   OH224195   0.310   0.053   0.862  0.2580  0.7260  0.1174
  927TIP3    H124196   0.312   0.052   0.766  3.1402 -2.6166  0.0760
  927TIP3    H224197   0.228   0.009   0.885  1.3937 -2.1143 -0.9593
  928TIP3   OH224198   3.847   4.596  13.860 -0.4451  0.4144  0.4766
  928TIP3    H124199   3.855   4.619  13.767 -2.4314  1.1238  0.4490
  928TIP3    H224200   3.806   4.509  13.859  2.6177 -1.1026  0.6706
  929TIP3   OH224201   2.782   3.503   1.048  0.4427 -0.1688  0.1872
  929TIP3    H124202   2.690   3.509   1.023  0.3599  0.1518  0.5730
  929TIP3    H224203   2.805   3.591   1.078  0.6895 -0.4141  0.7273
  930TIP3   OH224204   0.108   1.360  13.901  0.0323  0.0186 -0.3950
  930TIP3    H124205   0.101   1.455  13.908 -2.5121 -0.0509 -1.6336
  930TIP3    H224206   0.106   1.329  13.992 -0.5417  1.0573 -0.0475
  931TIP3   OH224207   5.918   3.957  12.874  0.0346  0.0456 -0.1305
  931TIP3    H124208   5.970   3.905  12.814 -1.0634 -0.8238 -0.3351
  931TIP3    H224209   5.923   3.910  12.957 -0.6396 -0.1753 -0.2175
  932TIP3   OH224210   5.056   3.532  14.315 -0.0229 -0.2359 -0.2529
  932TIP3    H124211   4.967   3.517  14.283 -0.2103 -0.0163  0.1661
  932TIP3    H224212   5.104   3.562  14.238 -0.5414  0.5599 -0.2657
  933TIP3   OH224213   4.910   2.459   1.404 -0.1651  0.0771  0.3760
  933TIP3    H124214   4.977   2.450   1.472  0.0073 -0.4370  0.1387
  933TIP3    H224215   4.951   2.516   1.339 -0.8245  1.6860  1.3249
  934TIP3   OH224216   3.739   4.251  15.338 -0.2136 -0.1523  0.3487
  934TIP3    H124217   3.677   4.291  15.278 -0.2683  0.5868  0.8901
  934TIP3    H224218   3.820   4.301  15.327 -0.7637  1.1922  2.2171
  935TIP3   OH224219   3.820   3.536   1.973  0.6601  0.3663 -0.0042
  935TIP3    H124220   3.781   3.603   1.917 -2.2331  0.0640  1.5442
  935TIP3    H224221   3.873   3.483   1.914 -2.4578 -0.0665 -2.5532
  936TIP3   OH224222   1.443   1.236   0.055  0.5039 -0.0490  0.0890
  936TIP3    H124223   1.535   1.254   0.075  0.3040 -0.0049  0.9808
  936TIP3    H224224   1.426   1.151   0.095  0.1703 -0.0810 -0.1172
  937TIP3   OH224225   3.413   2.972  15.206 -0.7971 -0.1107  0.0841
  937TIP3    H124226   3.350   3.030  15.250 -0.9509 -0.4984  0.3783
  937TIP3    H224227   3.388   2.976  15.114 -0.1946  1.0614 -0.0377
  938TIP3   OH224228   3.014   1.411  12.583  0.2477  0.3926  1.2236
  938TIP3    H124229   3.092   1.407  12.638  1.3516  0.0817 -0.3366
  938TIP3    H224230   3.047   1.437  12.497 -1.4489  0.8509  0.7073
  939TIP3   OH224231   1.055   0.491   5.367  0.7177  0.6064  0.0899
  939TIP3    H124232   0.981   0.523   5.315  0.7026  1.3458  0.5602
  939TIP3    H224233   1.132   0.514   5.314  0.6067 -0.2982 -0.4711
  940TIP3   OH224234   0.828   0.615   3.903 -0.3583  0.1852  0.5386
  940TIP3    H124235   0.754   0.611   3.964 -0.9788 -0.1888 -0.2242
  940TIP3    H224236   0.832   0.527   3.864 -1.3975  1.0275 -1.5943
  941TIP3   OH224237   2.119   6.100  12.173  0.3330 -0.0485  0.2922
  941TIP3    H124238   2.037   6.075  12.217 -0.0233  1.7893  0.7474
  941TIP3    H224239   2.123   6.195  12.184  0.7626  0.3407 -2.7614
  942TIP3   OH224240   1.118   4.630   3.310 -0.6394 -0.5744 -0.5839
  942TIP3    H124241   1.056   4.599   3.243 -2.4756  0.1208  0.7663
  942TIP3    H224242   1.136   4.553   3.364 -0.3767 -0.7516 -0.9192
  943TIP3   OH224243   4.316   0.009   5.508 -0.2645 -0.2958  0.5213
  943TIP3    H124244   4.394   0.018   5.453  0.3964 -1.2075  1.2802
  943TIP3    H224245   4.289   0.099   5.527 -0.2785  0.0295 -0.9674
  944TIP3   OH224246   4.655   6.258  16.103  0.4531 -0.2922 -0.2140
  944TIP3    H124247   4.690   6.342  16.073 -1.9898  0.4985 -1.0811
  944TIP3    H224248   4.563   6.278  16.124  0.2716 -2.4166  1.0525
  945TIP3   OH224249   1.583   3.599   1.441  0.2240 -0.4054 -0.3055
  945TIP3    H124250   1.601   3.689   1.414  0.8211  0.2356  2.1167
  945TIP3    H224251   1.489   3.588   1.429  0.2781  0.2475 -1.4104
  946TIP3   OH224252   6.267   3.968   3.315 -0.6920 -0.0164  0.6372
  946TIP3    H124253   6.348   3.955   3.363 -0.8999 -0.0169  0.9870
  946TIP3    H224254   6.282   3.924   3.231 -0.2573  0.1598  0.6208
  947TIP3   OH224255   2.005   0.816   0.407 -0.0730  0.8789  0.0412
  947TIP3    H124256   2.048   0.880   0.464  2.8662 -1.1901  0.2888
  947TIP3    H224257   1.984   0.866   0.328  0.8039  2.5059  0.7928
  948TIP3   OH224258   6.075   6.553  13.375 -0.6796  0.2366 -0.6241
  948TIP3    H124259   6.022   6.473  13.376 -0.0429 -0.1827 -0.2917
  948TIP3    H224260   6.076   6.583  13.465  1.4918 -0.9988 -0.1822
  949TIP3   OH224261   3.221   2.616   4.440  0.1882  0.7295  0.0784
  949TIP3    H124262   3.268   2.541   4.476  1.2528  1.0953 -0.5166
  949TIP3    H224263   3.243   2.616   4.347  0.3291  1.8557  0.0968
  950TIP3   OH224264   0.054   0.286   4.785  0.0531  0.8810 -0.6596
  950TIP3    H124265  -0.019   0.268   4.844  0.4439  1.0593 -0.1222
  950TIP3    H224266   0.012   0.308   4.702 -0.4711 -0.7670 -0.8526
  951TIP3   OH224267   1.911   3.567  10.863 -0.6991 -0.4925  0.4926
  951TIP3    H124268   1.990   3.533  10.906  0.1071  0.2463 -0.3770
  951TIP3    H224269   1.865   3.489  10.831  0.2323 -0.8751  0.0674
  952TIP3   OH224270   4.264   5.418   1.526  0.3945 -0.1958 -0.4048
  952TIP3    H124271   4.229   5.501   1.493 -0.6132 -0.3559  0.2518
  952TIP3    H224272   4.193   5.355   1.514 -0.3948 -0.0435  3.0150
  953TIP3   OH224273   3.030   2.607  11.552  0.4015  0.1770  0.9697
  953TIP3    H124274   3.019   2.661  11.473 -0.6730 -1.2758  0.1046
  953TIP3    H224275   2.944   2.605  11.592  0.4490 -0.8663  1.0208
  954TIP3   OH224276   2.160   1.445   0.685 -0.0390  0.5900 -0.1436
  954TIP3    H124277   2.218   1.521   0.691 -0.0041  0.6243 -0.8981
  954TIP3    H224278   2.216   1.375   0.652 -0.1956  0.3749  0.0506
  955TIP3   OH224279   6.218   6.635  15.001  0.1304 -0.0750 -0.4013
  955TIP3    H124280   6.150   6.647  14.935  0.0362  1.4073 -0.0445
  955TIP3    H224281   6.184   6.679  15.079  1.0797 -0.1530  0.0675
  956TIP3   OH224282   3.754   3.559   2.939  0.0528 -0.0738 -0.1946
  956TIP3    H124283   3.716   3.565   2.851  2.0163 -0.2272 -1.0742
  956TIP3    H224284   3.747   3.647   2.974  0.9066  0.4083 -1.2152
  957TIP3   OH224285   2.218   1.382   5.244  0.1837  0.1151  0.5564
  957TIP3    H124286   2.309   1.384   5.272  0.9650 -3.0727 -1.4303
  957TIP3    H224287   2.209   1.456   5.184  1.7899 -0.2114 -0.0981
  958TIP3   OH224288   0.151   4.943   0.127  0.3094  0.3717  0.7012
  958TIP3    H124289   0.166   4.853   0.099 -0.4171  0.1965  0.8571
  958TIP3    H224290   0.227   4.991   0.096 -0.7145  0.2945 -2.0705
  959TIP3   OH224291   5.729   1.432   1.489 -0.0081 -0.9281 -0.2397
  959TIP3    H124292   5.779   1.491   1.434 -0.0182  0.5616  1.3164
  959TIP3    H224293   5.763   1.446   1.578 -2.6080 -0.4567  0.7254
  960TIP3   OH224294   0.701   1.883   0.159 -0.0715 -0.6205  0.3492
  960TIP3    H124295   0.723   1.863   0.249  1.3822  0.4022  0.2486
  960TIP3    H224296   0.764   1.833   0.107 -1.4207 -1.8421 -0.1383
  961TIP3   OH224297   2.887   4.441  11.655 -0.2609  0.0534  0.4488
  961TIP3    H124298   2.928   4.525  11.634 -2.4080  0.8751 -0.6315
  961TIP3    H224299   2.813   4.435  11.594  0.5826 -3.2034 -0.3507
  962TIP3   OH224300   1.509   1.422   5.039 -0.2155 -0.2407  0.3568
  962TIP3    H124301   1.465   1.379   5.113  0.5603 -0.6335  0.6016
  962TIP3    H224302   1.454   1.402   4.963 -0.5230 -0.6258  0.6792
  963TIP3   OH224303   6.260   1.325  14.895 -0.5070  0.0043 -0.3211
  963TIP3    H124304   6.245   1.283  14.810  0.6135  1.2893 -1.1733
  963TIP3    H224305   6.219   1.411  14.887 -2.1842 -0.6311  1.1704
  964TIP3   OH224306   1.912   1.781   2.691 -0.0219 -0.1641 -0.0665
  964TIP3    H124307   1.906   1.874   2.668  2.0301 -0.1454 -0.6346
  964TIP3    H224308   1.936   1.738   2.609  2.6383 -0.7217  0.9723
  965TIP3   OH224309   3.899   4.918  11.435  0.0390 -0.0540 -0.8642
  965TIP3    H124310   3.840   4.911  11.360 -0.1625 -2.5213 -0.5184
  965TIP3    H224311   3.984   4.890  11.402  0.0232 -0.8250 -0.2651
  966TIP3   OH224312   2.295   5.337  13.808  0.0520  0.0644 -0.0067
  966TIP3    H124313   2.352   5.406  13.775  0.3121  0.0365  0.3876
  966TIP3    H224314   2.353   5.263  13.826  0.0178  0.3150  1.1737
  967TIP3   OH224315   4.345   0.127   1.849 -0.4008 -0.8357 -0.1492
  967TIP3    H124316   4.268   0.180   1.829 -0.4267 -1.4614 -1.7201
  967TIP3    H224317   4.312   0.061   1.911 -0.4706  0.6321  1.4419
  968TIP3   OH224318   5.202   3.592  16.900  0.2981 -0.0622 -0.4201
  968TIP3    H124319   5.207   3.671  16.953  0.7329 -0.2166 -0.2350
  968TIP3    H224320   5.172   3.524  16.960  2.2286 -0.5711 -0.0214
  969TIP3   OH224321   5.436   5.763   3.570 -0.2780  0.0756 -0.6068
  969TIP3    H124322   5.518   5.798   3.536 -0.2170  0.1969 -0.3411
  969TIP3    H224323   5.462   5.687   3.622 -0.4549 -0.6320 -1.5532
  970TIP3   OH224324   1.870   2.966   2.441 -0.2489 -0.5312 -0.1102
  970TIP3    H124325   1.776   2.954   2.425 -0.5877  1.7406  0.0479
  970TIP3    H224326   1.875   2.992   2.533  0.4306  0.4630 -0.4184
  971TIP3   OH224327   0.347   4.097   0.630  0.2777 -0.2085  0.6600
  971TIP3    H124328   0.336   4.141   0.714 -0.0866  0.2633  0.3652
  971TIP3    H224329   0.345   4.004   0.652  0.1823 -0.0867  1.1759
  972TIP3   OH224330   2.310   4.607   5.575  0.0046  0.0293  0.2670
  972TIP3    H124331   2.288   4.516   5.597  0.4151 -0.0282  0.4455
  972TIP3    H224332   2.296   4.655   5.656 -1.8121  0.4118 -0.2681
  973TIP3   OH224333   2.187   4.547  13.991  0.0615  0.3677  0.3986
  973TIP3    H124334   2.118   4.500  13.944  1.4702 -0.9723 -0.3622
  973TIP3    H224335   2.144   4.626  14.024 -1.9130 -0.6202  0.2273
  974TIP3   OH224336   1.834   4.213  14.080  0.3391 -0.5847  0.0657
  974TIP3    H124337   1.767   4.193  14.146  0.8098 -1.2175  0.3549
  974TIP3    H224338   1.784   4.242  14.004 -0.0878  4.8960  2.2393
  975TIP3   OH224339   2.344   3.781   4.821 -0.7703 -0.4064 -0.1763
  975TIP3    H124340   2.340   3.737   4.905 -0.5902 -1.8290 -0.8900
  975TIP3    H224341   2.379   3.715   4.761 -1.5789  0.3439 -1.5156
  976TIP3   OH224342   2.193   5.020  14.622 -0.3121 -0.1603 -0.2164
  976TIP3    H124343   2.279   5.024  14.580 -0.4944  0.8148 -0.5102
  976TIP3    H224344   2.205   5.069  14.704 -0.1535 -1.4266  0.5391
  977TIP3   OH224345   2.006   2.509  16.028 -0.2718 -0.2724 -0.2560
  977TIP3    H124346   2.098   2.498  16.051 -0.7063 -0.0793  1.6984
  977TIP3    H224347   1.983   2.595  16.063 -0.9181  0.1576 -1.6934
  978TIP3   OH224348   5.317   6.784   2.445  0.1912 -0.2654 -0.0605
  978TIP3    H124349   5.381   6.796   2.515  0.3137  0.4940 -0.2955
  978TIP3    H224350   5.344   6.846   2.377 -2.1287  1.7753  0.7907
  979TIP3   OH224351   1.266   2.800   3.174  0.2894  0.1819 -0.4047
  979TIP3    H124352   1.196   2.854   3.136  0.0419 -0.6521 -1.1393
  979TIP3    H224353   1.237   2.710   3.160  0.2653 -0.1593  1.6143
  980TIP3   OH224354   0.742   5.730   2.010  0.0723 -0.0634  0.4313
  980TIP3    H124355   0.656   5.770   2.026  1.2202  1.8260  2.1703
  980TIP3    H224356   0.753   5.668   2.081 -0.4459 -1.3431 -0.5976
  981TIP3   OH224357   4.357   2.339   4.699  0.4479  0.1413  0.4804
  981TIP3    H124358   4.430   2.386   4.659 -0.2246  0.9591  0.2242
  981TIP3    H224359   4.366   2.356   4.793  0.8822 -0.1917  0.5051
  982TIP3   OH224360   1.217   5.455  14.817 -0.4530 -0.1215  0.3818
  982TIP3    H124361   1.139   5.401  14.832  0.5696 -1.8603 -0.4362
  982TIP3    H224362   1.199   5.501  14.735 -1.7145  1.5396  1.5468
  983TIP3   OH224363   6.559   3.500   0.942  0.1401  0.2844 -0.0810
  983TIP3    H124364   6.487   3.556   0.971 -1.5526 -1.9442  0.1701
  983TIP3    H224365   6.617   3.494   1.018 -0.7930 -0.0463  0.6165
  984TIP3   OH224366   5.294   6.699  15.210 -0.1424  0.2190 -0.0465
  984TIP3    H124367   5.380   6.710  15.249 -0.0554  0.9398 -0.4347
  984TIP3    H224368   5.247   6.640  15.269  1.1548 -1.4479 -0.6586
  985TIP3   OH224369   5.908   2.791  15.084  0.3357  0.0963  0.6468
  985TIP3    H124370   5.901   2.760  15.174  0.4919  1.1368  1.0246
  985TIP3    H224371   5.817   2.806  15.057  0.3354  0.8058  1.0077
  986TIP3   OH224372   0.859   5.852   5.071 -0.2332 -0.1531  0.2298
  986TIP3    H124373   0.884   5.824   4.983  0.6992  0.2203  0.3759
  986TIP3    H224374   0.922   5.810   5.129 -1.3834 -1.1174  0.8074
  987TIP3   OH224375   3.072   5.088   1.013 -0.1943  0.3099 -0.1274
  987TIP3    H124376   3.007   5.022   0.988  0.5175 -0.7614  0.8305
  987TIP3    H224377   3.063   5.095   1.108  1.0599  0.1813  0.0047
  988TIP3   OH224378   3.201   5.830   5.203 -0.0582 -0.1928  0.3103
  988TIP3    H124379   3.144   5.849   5.128 -0.7903  0.8785  1.1257
  988TIP3    H224380   3.166   5.883   5.274 -0.0558 -2.0208  1.7315
  989TIP3   OH224381   0.687   5.408  11.371  0.5099  0.3740 -0.3996
  989TIP3    H124382   0.773   5.383  11.405  0.0222  0.3560  0.8378
  989TIP3    H224383   0.695   5.502  11.352 -0.1814  1.1748  2.9024
  990TIP3   OH224384   2.796   3.189   3.061 -0.0407  0.0936 -0.1598
  990TIP3    H124385   2.860   3.239   3.012 -0.5133  0.1012 -0.7694
  990TIP3    H224386   2.740   3.149   2.995  0.7541 -1.8217  0.2775
  991TIP3   OH224387   2.744   3.658  11.739  0.3062 -0.6337 -0.1373
  991TIP3    H124388   2.771   3.650  11.648 -1.7797 -0.4796 -0.8090
  991TIP3    H224389   2.731   3.568  11.769  0.2168 -0.6599 -0.2523
  992TIP3   OH224390   5.923   6.220  14.879  0.6818 -0.0270 -0.3921
  992TIP3    H124391   5.917   6.131  14.844  1.6069 -0.3470  0.2387
  992TIP3    H224392   5.899   6.277  14.806 -0.9454 -0.8269 -0.5142
  993TIP3   OH224393   2.568   1.708  13.540 -0.1217  0.1757 -0.0835
  993TIP3    H124394   2.612   1.705  13.455 -0.7005  0.3844 -0.3991
  993TIP3    H224395   2.610   1.640  13.592  0.4259  0.2365 -0.4489
  994TIP3   OH224396   3.871   3.209  14.615  0.5741  0.0313  0.1031
  994TIP3    H124397   3.797   3.209  14.676  0.6198 -0.1320  0.1616
  994TIP3    H224398   3.837   3.169  14.535  0.5242  0.2101  0.0350
  995TIP3   OH224399   6.706   0.281   5.007  0.1114 -0.0159 -0.3080
  995TIP3    H124400   6.656   0.201   5.025 -0.9086  0.4551 -0.9646
  995TIP3    H224401   6.657   0.350   5.052  0.3699  0.3935 -0.6491
  996TIP3   OH224402   1.714   2.404   3.962  0.2956 -0.1739  0.4328
  996TIP3    H124403   1.691   2.466   3.893 -1.1157 -1.6510 -0.4742
  996TIP3    H224404   1.809   2.395   3.957  0.0848 -1.3668 -2.3324
  997TIP3   OH224405   0.239   1.167  15.418 -0.3426 -0.4189  0.4124
  997TIP3    H124406   0.254   1.211  15.334  1.7545 -1.1455  0.3780
  997TIP3    H224407   0.208   1.237  15.476 -1.9921  0.0486 -1.0051
  998TIP3   OH224408   0.670   1.665  10.992 -0.8010 -0.2553  0.0018
  998TIP3    H124409   0.599   1.697  11.047 -2.6039  0.4687 -2.6982
  998TIP3    H224410   0.748   1.709  11.027 -2.3969  2.8293 -0.1153
  999TIP3   OH224411   0.901   5.586   0.292  0.5505  0.1260  0.5207
  999TIP3    H124412   0.991   5.594   0.258  0.1994 -1.3930 -0.7871
  999TIP3    H224413   0.909   5.529   0.368  0.6678 -0.1541  0.2985
 1000TIP3   OH224414   4.709   0.465  16.156 -0.2618 -0.2675 -0.3680
 1000TIP3    H124415   4.776   0.402  16.130 -0.8756 -1.3715  0.6524
 1000TIP3    H224416   4.732   0.489  16.246 -2.0022 -1.7564  0.5264
 1001TIP3   OH224417   6.731   3.273   1.449  0.3256  0.1085 -0.5351
 1001TIP3    H124418   6.743   3.269   1.544  1.2008 -1.6334 -0.7051
 1001TIP3    H224419   6.638   3.252   1.436  0.5192 -1.0349 -0.1444
 1002TIP3   OH224420   1.952   2.786   2.228 -0.5544 -0.0623 -0.8215
 1002TIP3    H124421   2.038   2.745   2.229  0.0662  1.1952 -1.4178
 1002TIP3    H224422   1.953   2.847   2.302 -1.3096 -0.8019 -0.2006
 1003TIP3   OH224423   3.706   4.970   2.612  0.5354  0.1109  0.1785
 1003TIP3    H124424   3.778   4.909   2.594  0.1208  0.1144 -1.5472
 1003TIP3    H224425   3.749   5.054   2.625  0.9057 -0.0292 -0.1167
 1004TIP3   OH224426   0.165   3.066  14.544  0.2361  0.1206 -0.2291
 1004TIP3    H124427   0.183   3.136  14.480  0.7738  0.6264  0.4670
 1004TIP3    H224428   0.091   3.019  14.507  1.5804 -0.6241 -2.0526
 1005TIP3   OH224429   6.385   5.810  13.296 -0.4569 -0.4360  0.2561
 1005TIP3    H124430   6.328   5.739  13.266 -0.8246 -0.4018  0.8712
 1005TIP3    H224431   6.342   5.844  13.375 -0.4108  0.6200 -0.1616
 1006TIP3   OH224432   0.517   4.893   0.986  0.3813  0.0472 -0.3344
 1006TIP3    H124433   0.471   4.930   1.060 -0.4282 -0.6375 -0.4843
 1006TIP3    H224434   0.525   4.800   1.007 -0.0916 -0.2004 -1.2109
 1007TIP3   OH224435   0.411   1.976  16.248  0.7452 -0.3006 -0.1445
 1007TIP3    H124436   0.422   1.903  16.308  0.2982  2.0037  2.8488
 1007TIP3    H224437   0.317   1.976  16.227  0.6942 -0.3868  0.0886
 1008TIP3   OH224438   1.612   4.967   3.500 -0.4054  0.6101 -0.4925
 1008TIP3    H124439   1.647   4.944   3.414  1.5374  1.5992 -0.0127
 1008TIP3    H224440   1.582   5.057   3.490  0.7744  1.0900  0.1007
 1009TIP3   OH224441   5.430   3.246   3.545  0.6075  0.1018 -0.3653
 1009TIP3    H124442   5.386   3.199   3.616  3.0574  0.5476  1.4940
 1009TIP3    H224443   5.462   3.178   3.487 -0.0598 -0.3183 -0.2478
 1010TIP3   OH224444   5.865   5.825   3.885 -0.8022  0.2089 -0.8892
 1010TIP3    H124445   5.777   5.851   3.855 -1.4114  0.5426  1.1365
 1010TIP3    H224446   5.861   5.830   3.980  1.5403  0.5728 -0.7728
 1011TIP3   OH224447   3.244   5.596  13.012 -0.3554 -0.7977  0.6260
 1011TIP3    H124448   3.248   5.610  12.918  1.8286  1.1546  0.9587
 1011TIP3    H224449   3.196   5.671  13.046  0.7590 -0.3405  1.2414
 1012TIP3   OH224450   2.252   4.346  15.584 -0.1282 -0.2670 -0.1852
 1012TIP3    H124451   2.184   4.389  15.636 -0.5576 -0.4179 -0.6221
 1012TIP3    H224452   2.284   4.414  15.525 -1.1261 -0.6470 -1.1957
 1013TIP3   OH224453   5.423   5.076  10.525 -0.1207 -0.0741  0.1654
 1013TIP3    H124454   5.366   5.123  10.464  0.8934 -0.1866 -0.8792
 1013TIP3    H224455   5.499   5.050  10.473  0.4230 -0.8238  1.2959
 1014TIP3   OH224456   4.505   6.025   3.930  0.7565  0.0553 -0.3041
 1014TIP3    H124457   4.511   6.093   3.998  2.3020  0.1323 -0.4881
 1014TIP3    H224458   4.569   6.052   3.864  0.8579 -1.1939 -0.7288
 1015TIP3   OH224459   4.771   4.904   5.830 -0.2075 -0.0740  0.4303
 1015TIP3    H124460   4.745   4.892   5.922  0.8926  1.6240  0.9736
 1015TIP3    H224461   4.688   4.919   5.784 -1.0453 -3.3117  0.6928
 1016TIP3   OH224462   1.924   2.530  16.891 -0.1994 -0.7698 -0.1373
 1016TIP3    H124463   1.862   2.562  16.826  0.3004 -0.3903 -0.4368
 1016TIP3    H224464   1.958   2.608  16.934  0.0144 -0.9754  0.0738
 1017TIP3   OH224465   3.547   1.865  14.751 -0.4102  0.0045  0.3702
 1017TIP3    H124466   3.593   1.794  14.796  0.2624 -1.1435 -2.0375
 1017TIP3    H224467   3.600   1.942  14.769  0.8885 -0.7799  0.0147
 1018TIP3   OH224468   0.954   6.115   1.927  0.0540 -0.1109  0.4717
 1018TIP3    H124469   0.974   6.023   1.945  0.7179  0.1385  1.0446
 1018TIP3    H224470   0.928   6.117   1.835 -1.7559 -1.1459  0.9519
 1019TIP3   OH224471   6.709   6.769  15.341  0.2524 -0.1089  0.3451
 1019TIP3    H124472   6.615   6.756  15.344  0.3411 -1.0183 -0.4153
 1019TIP3    H224473   6.739   6.752  15.431 -0.2923  0.0297  0.5499
 1020TIP3   OH224474   5.742   4.394  15.972  0.5422 -0.1685 -0.2154
 1020TIP3    H124475   5.785   4.449  15.906  3.2135  0.8714  2.2656
 1020TIP3    H224476   5.650   4.421  15.970  0.5692 -0.1013 -3.3933
 1021TIP3   OH224477   4.913   6.097  14.607 -0.5642  0.6708  0.1497
 1021TIP3    H124478   4.864   6.142  14.675 -1.8259  0.5583 -0.6612
 1021TIP3    H224479   4.989   6.153  14.591 -0.7467  1.1612  0.9823
 1022TIP3   OH224480   5.000   3.663   4.271 -0.3505 -0.2291  0.6457
 1022TIP3    H124481   5.084   3.636   4.308  0.1339 -1.3665 -1.2027
 1022TIP3    H224482   5.010   3.757   4.256 -0.0348 -0.0403  2.0161
 1023TIP3   OH224483   4.172   3.383  17.123  0.1474 -0.0819  0.1396
 1023TIP3    H124484   4.239   3.325  17.086 -0.3758  0.4550 -1.7008
 1023TIP3    H224485   4.121   3.412  17.047 -0.9255  1.0941  1.2889
 1024TIP3   OH224486   6.736   4.984   4.507 -0.0064 -0.2632  0.2959
 1024TIP3    H124487   6.790   5.001   4.585 -1.7955 -2.7075  2.1321
 1024TIP3    H224488   6.666   5.049   4.512  0.9403  0.8333 -0.3572
 1025TIP3   OH224489   6.060   0.229   2.130  0.6051  0.3284 -0.7912
 1025TIP3    H124490   6.040   0.144   2.090 -1.4132  0.4892 -0.1583
 1025TIP3    H224491   5.976   0.274   2.134  1.7938  2.7253 -1.9041
 1026TIP3   OH224492   3.026   6.147  16.759 -0.4411 -0.1398 -0.6080
 1026TIP3    H124493   2.951   6.200  16.733 -1.9499 -1.4094  1.1077
 1026TIP3    H224494   3.049   6.178  16.846  1.4154  0.6189 -1.3316
 1027TIP3   OH224495   0.828   4.589   0.542 -0.3011  0.3581  0.0848
 1027TIP3    H124496   0.736   4.590   0.515 -0.2422 -0.0065 -0.1383
 1027TIP3    H224497   0.840   4.504   0.584  0.6733 -0.9050 -2.5815
 1028TIP3   OH224498   1.071   1.892   5.169  0.2325  0.0268 -0.5402
 1028TIP3    H124499   1.047   1.799   5.172 -0.2536  0.1785  0.3497
 1028TIP3    H224500   1.126   1.906   5.246  0.3449  0.4651 -0.6978
 1029TIP3   OH224501   1.943   2.442  10.380  0.5965 -0.7505 -0.1514
 1029TIP3    H124502   1.923   2.501  10.307  0.1472  0.5668  1.0164
 1029TIP3    H224503   1.867   2.450  10.438  0.1461 -3.1360 -0.3781
 1030TIP3   OH224504   2.849   6.074  12.785  0.1251 -0.3719 -0.2887
 1030TIP3    H124505   2.819   6.074  12.876 -1.4214 -2.4596 -0.7489
 1030TIP3    H224506   2.772   6.048  12.735  1.1672  0.0053 -2.1210
 1031TIP3   OH224507   2.870   0.821  16.964 -0.1806 -0.6628  0.6988
 1031TIP3    H124508   2.800   0.870  17.008 -0.8605  0.9712 -2.0632
 1031TIP3    H224509   2.948   0.875  16.977 -0.1831 -0.6658  0.7274
 1032TIP3   OH224510   2.010   2.837  11.838 -0.0354  0.4929 -0.3369
 1032TIP3    H124511   2.024   2.931  11.835 -0.7224  0.6824  1.6385
 1032TIP3    H224512   1.991   2.818  11.930  2.5338 -1.9305 -0.2310
 1033TIP3   OH224513   5.694   3.350  16.090  0.0384  0.1982  0.2740
 1033TIP3    H124514   5.652   3.358  16.004 -1.0935 -1.2299  0.6790
 1033TIP3    H224515   5.640   3.287  16.137  0.0965  1.6614  2.3868
 1034TIP3   OH224516   2.468   6.144  12.925  0.5346 -0.5147 -0.1112
 1034TIP3    H124517   2.445   6.123  12.835 -0.4684 -0.4919  0.1351
 1034TIP3    H224518   2.412   6.088  12.978 -0.5526  1.1579  0.5322
 1035TIP3   OH224519   4.643   3.051  12.847 -0.4165  0.0613  0.4297
 1035TIP3    H124520   4.705   2.978  12.853 -1.4729 -0.8945 -0.0519
 1035TIP3    H224521   4.648   3.093  12.933  0.2290 -0.5496  0.7048
 1036TIP3   OH224522   0.366   5.996  15.788 -0.0830 -0.1057  0.2149
 1036TIP3    H124523   0.322   6.075  15.758  0.3625 -0.0979 -0.4289
 1036TIP3    H224524   0.380   5.945  15.708  3.4554  1.0808  0.0177
 1037TIP3   OH224525   0.901   3.438   5.573  0.0148 -0.2599  0.0277
 1037TIP3    H124526   0.918   3.394   5.657  0.3412  0.9805  0.6293
 1037TIP3    H224527   0.922   3.372   5.507  1.7009 -0.6055  0.8810
 1038TIP3   OH224528   0.581   2.573  17.111  0.2704 -0.1276 -0.8545
 1038TIP3    H124529   0.640   2.518  17.059 -0.5339 -1.8722  0.0269
 1038TIP3    H224530   0.636   2.604  17.183  0.2551 -1.4159 -0.2604
 1039TIP3   OH224531   6.015   4.807   0.609  0.1465  0.3596 -0.2720
 1039TIP3    H124532   5.980   4.842   0.527  0.1751  0.5745 -0.1933
 1039TIP3    H224533   6.110   4.807   0.598  0.1245 -0.2735 -0.5048
 1040TIP3   OH224534   3.921   5.636   3.969  0.5043 -0.8529 -0.3112
 1040TIP3    H124535   3.967   5.553   3.954 -0.3280 -0.8467 -3.3264
 1040TIP3    H224536   3.829   5.614   3.959 -0.0934 -0.4571  3.6752
 1041TIP3   OH224537   0.764   0.704   5.885 -0.0923  0.4989  0.0749
 1041TIP3    H124538   0.733   0.751   5.962 -0.3885 -0.0714  0.3051
 1041TIP3    H224539   0.775   0.613   5.914 -1.0737  0.0928 -0.7838
 1042TIP3   OH224540   6.031   5.147  15.243  0.7238 -0.3108 -0.0047
 1042TIP3    H124541   5.978   5.140  15.322  1.1617  0.1808  0.3318
 1042TIP3    H224542   6.006   5.231  15.205 -1.8063 -1.9151 -2.0752
 1043TIP3   OH224543   3.921   0.816   2.416 -0.4356  0.2825 -0.2941
 1043TIP3    H124544   3.874   0.877   2.473 -0.2176  0.8483 -0.7131
 1043TIP3    H224545   3.990   0.779   2.471  0.9775  2.2496 -0.6849
 1044TIP3   OH224546   3.758   3.979   0.500 -0.4066 -0.2523 -0.8842
 1044TIP3    H124547   3.854   3.985   0.498 -0.4092 -0.5608 -2.1093
 1044TIP3    H224548   3.741   3.900   0.552 -0.0496  0.9796  1.1457
 1045TIP3   OH224549   6.127   5.915   4.784  0.3324  0.1213 -0.7890
 1045TIP3    H124550   6.147   5.829   4.820 -1.5268  0.3228  0.8210
 1045TIP3    H224551   6.088   5.897   4.698 -0.3783 -0.6703 -0.3070
 1046TIP3   OH224552   0.770   4.248  11.145  0.2546  0.2029 -0.0405
 1046TIP3    H124553   0.754   4.156  11.122  3.0245 -0.3288 -0.0122
 1046TIP3    H224554   0.798   4.288  11.064  0.4378  0.6880  0.2644
 1047TIP3   OH224555   0.948   4.259  14.576 -0.7609  0.7151 -0.1913
 1047TIP3    H124556   0.913   4.232  14.661  0.2082  0.8689  0.2689
 1047TIP3    H224557   1.009   4.330  14.596  0.3573 -0.0250 -0.8843
 1048TIP3   OH224558   3.587   6.331   4.070 -0.1536 -0.1780 -0.3314
 1048TIP3    H124559   3.603   6.400   4.005  0.4955 -0.5836 -0.6065
 1048TIP3    H224560   3.590   6.250   4.019  0.1919 -0.4857  0.1811
 1049TIP3   OH224561   3.721   3.568  13.332 -0.2219 -0.2199 -0.0846
 1049TIP3    H124562   3.661   3.503  13.369  1.1150 -0.3651  1.8759
 1049TIP3    H224563   3.665   3.643  13.312 -1.1157 -0.4670  1.4330
 1050TIP3   OH224564   4.693   0.007  16.692 -0.5450 -0.1652  0.2435
 1050TIP3    H124565   4.771  -0.036  16.658 -0.3840  0.2544  0.0734
 1050TIP3    H224566   4.715   0.031  16.782 -1.4108 -2.3919  1.1025
 1051TIP3   OH224567   3.438   5.774  14.851 -0.0909 -0.4024 -0.6308
 1051TIP3    H124568   3.473   5.818  14.774  3.7542 -2.8806 -0.4190
 1051TIP3    H224569   3.458   5.832  14.924 -1.1257  0.5714 -1.0950
 1052TIP3   OH224570   2.853   2.199   4.225  1.1265 -0.8445  0.1031
 1052TIP3    H124571   2.873   2.236   4.311 -0.2628 -1.4153  0.6863
 1052TIP3    H224572   2.937   2.165   4.193  2.0832  1.2920  0.2801
 1053TIP3   OH224573   1.754   3.869  16.841 -0.5775  0.1947 -0.0159
 1053TIP3    H124574   1.805   3.930  16.893  1.7882 -0.7517 -1.1759
 1053TIP3    H224575   1.819   3.815  16.796 -2.5891 -2.1051 -0.2852
 1054TIP3   OH224576   5.840   2.393  13.199 -0.0785 -0.1913  0.0948
 1054TIP3    H124577   5.898   2.462  13.166 -0.9027 -0.4775 -1.9967
 1054TIP3    H224578   5.897   2.317  13.208  0.0647 -0.2462 -1.1611
 1055TIP3   OH224579   6.640   4.131  14.614 -0.3312 -0.2889 -0.0551
 1055TIP3    H124580   6.671   4.184  14.541  0.1900  0.9804  1.0663
 1055TIP3    H224581   6.694   4.053  14.611 -1.7474 -1.2443 -2.3119
 1056TIP3   OH224582   1.416   1.970   0.512 -0.0310  0.0543 -0.3866
 1056TIP3    H124583   1.440   2.061   0.530  0.1142  0.2961 -1.7928
 1056TIP3    H224584   1.397   1.968   0.419 -2.1842 -0.8659  0.0223
 1057TIP3   OH224585   5.971   6.712  13.799  0.5269 -0.1492 -0.1080
 1057TIP3    H124586   6.000   6.640  13.742 -0.3025 -0.5988  0.0366
 1057TIP3    H224587   5.904   6.757  13.748 -0.0125 -0.3785  0.3974
 1058TIP3   OH224588   6.019   1.621  17.116  0.0711  0.2188 -0.3604
 1058TIP3    H124589   6.079   1.680  17.071  0.8605 -0.0760  0.2713
 1058TIP3    H224590   5.936   1.631  17.071  0.0360  2.2586  0.1203
 1059TIP3   OH224591   1.473   1.175   3.195 -0.6519  0.1383  0.4656
 1059TIP3    H124592   1.398   1.223   3.161  0.1893  0.6561 -0.6804
 1059TIP3    H224593   1.477   1.095   3.143 -1.9255 -1.1194  2.2353
 1060TIP3   OH224594   1.629   0.063   1.781  0.4424 -0.0521  0.3909
 1060TIP3    H124595   1.619   0.002   1.854 -3.2924  0.2730  0.2175
 1060TIP3    H224596   1.591   0.145   1.812  0.9505  0.7818 -1.1245
 1061TIP3   OH224597   5.437   0.174   5.698  0.2608  0.3722 -0.3181
 1061TIP3    H124598   5.345   0.170   5.724 -0.1403  1.1080 -1.5831
 1061TIP3    H224599   5.441   0.127   5.615  1.2732 -0.7553  0.3430
 1062TIP3   OH224600   1.955   1.290  12.207  0.5527  0.0732 -0.6128
 1062TIP3    H124601   2.016   1.341  12.154  2.1284  1.2838  2.2419
 1062TIP3    H224602   2.010   1.247  12.273 -1.5582  0.5971  1.5587
 1063TIP3   OH224603   3.271   1.234   0.429 -0.2322 -0.1237  0.0371
 1063TIP3    H124604   3.296   1.154   0.383  0.7784  0.0161  0.3246
 1063TIP3    H224605   3.284   1.213   0.521 -0.0071  0.3538  0.1135
 1064TIP3   OH224606   5.648   0.507  13.697 -0.4063  0.4037 -0.4997
 1064TIP3    H124607   5.586   0.445  13.658  0.0387  0.6071 -1.5553
 1064TIP3    H224608   5.705   0.533  13.624  1.2345 -0.1514  0.5514
 1065TIP3   OH224609   2.353   1.047  11.278 -0.4365 -0.0697 -0.2591
 1065TIP3    H124610   2.321   0.978  11.220 -1.2361  1.0072 -1.1170
 1065TIP3    H224611   2.289   1.117  11.270 -0.4598  0.1813  1.7946
 1066TIP3   OH224612   3.446   0.823  17.107  1.2477 -0.2658 -0.5401
 1066TIP3    H124613   3.377   0.761  17.129 -0.3899  1.2105 -1.3489
 1066TIP3    H224614   3.445   0.827  17.011  1.9716  0.2776 -0.5295
 1067TIP3   OH224615   0.466   5.853   1.973 -0.5661 -0.2433  0.1294
 1067TIP3    H124616   0.513   5.863   1.890 -1.0418 -0.1418 -0.1273
 1067TIP3    H224617   0.391   5.911   1.966  1.2146  2.4395  1.9940
 1068TIP3   OH224618   1.934   1.372   2.705 -0.0121  0.2629  0.4621
 1068TIP3    H124619   1.986   1.326   2.770 -2.7653  0.2086  2.6926
 1068TIP3    H224620   1.882   1.435   2.755 -1.2420  1.1298 -1.8150
 1069TIP3   OH224621   5.998   2.490   0.697  0.2631  0.1921  0.0038
 1069TIP3    H124622   5.980   2.549   0.624  0.2373 -0.8072 -0.8075
 1069TIP3    H224623   6.074   2.439   0.669 -1.1687 -1.8047 -0.3035
 1070TIP3   OH224624   5.822   5.362   3.301  0.1332 -0.1024 -0.0151
 1070TIP3    H124625   5.783   5.408   3.376 -0.1205  0.1913 -0.3249
 1070TIP3    H224626   5.816   5.269   3.324 -2.2498 -0.1710 -0.7655
 1071TIP3   OH224627   0.985   0.129   4.825  0.2153 -0.3229  0.0515
 1071TIP3    H124628   0.959   0.086   4.907 -0.3654 -3.3554 -1.6141
 1071TIP3    H224629   0.908   0.179   4.799 -0.6830 -1.7534 -0.1131
 1072TIP3   OH224630   2.936   5.742   5.022  0.2550 -0.3445  0.5842
 1072TIP3    H124631   3.011   5.684   5.011  0.5787  0.0973  0.4583
 1072TIP3    H224632   2.906   5.759   4.933  0.3597 -0.0581  0.6036
 1073TIP3   OH224633   1.245   3.195  14.309  0.9287  0.7811  0.0028
 1073TIP3    H124634   1.225   3.151  14.392 -2.9878  0.3812 -1.0533
 1073TIP3    H224635   1.271   3.124  14.250 -1.0231  0.3757 -0.4234
 1074TIP3   OH224636   4.691   3.271   0.666  0.0787  0.1648 -0.0332
 1074TIP3    H124637   4.700   3.249   0.759 -0.4962 -0.3552 -0.1010
 1074TIP3    H224638   4.634   3.203   0.630 -1.2493  1.4076 -0.3658
 1075TIP3   OH224639   3.754   2.864  11.506  0.5532 -0.2245  0.0864
 1075TIP3    H124640   3.738   2.867  11.600  1.7094 -0.2790  0.2905
 1075TIP3    H224641   3.680   2.910  11.468 -0.0172 -0.3639  1.0112
 1076TIP3   OH224642   3.652   3.740   1.851 -0.1484  0.2311 -0.3185
 1076TIP3    H124643   3.558   3.731   1.832 -0.3733 -1.9312  1.6631
 1076TIP3    H224644   3.695   3.717   1.768 -1.3336 -0.4575 -0.7596
 1077TIP3   OH224645   2.005   5.877  11.554 -0.4306 -0.0104 -0.4378
 1077TIP3    H124646   2.057   5.823  11.613 -0.8700 -0.9476 -0.9080
 1077TIP3    H224647   2.059   5.885  11.475  0.0785  1.0938  0.0062
 1078TIP3   OH224648   0.995   1.248  15.214  0.0996  0.3450  0.3361
 1078TIP3    H124649   0.901   1.263  15.215 -0.1894 -1.3694  0.3547
 1078TIP3    H224650   1.030   1.312  15.276 -1.0030  1.2438  0.0466
 1079TIP3   OH224651   4.862   3.581  16.230 -0.6233 -0.5076  0.4938
 1079TIP3    H124652   4.946   3.591  16.273 -0.8185 -1.0145  1.0021
 1079TIP3    H224653   4.817   3.664  16.245  1.2482  1.2830 -3.0673
 1080TIP3   OH224654   0.453   6.743   1.609  0.2175 -0.2647  0.0344
 1080TIP3    H124655   0.433   6.707   1.695  1.4760 -1.6798 -0.2491
 1080TIP3    H224656   0.396   6.695   1.549  0.2004 -0.1217 -0.0627
 1081TIP3   OH224657   0.850   0.228  11.129 -0.1853  0.5466  0.1124
 1081TIP3    H124658   0.839   0.322  11.121 -0.6877  0.5120  0.3236
 1081TIP3    H224659   0.761   0.193  11.119 -0.2597  0.2179  1.7332
 1082TIP3   OH224660   1.997   1.585  15.430  0.0805 -0.0905 -0.1275
 1082TIP3    H124661   1.920   1.530  15.442  0.6616 -0.6079  1.4109
 1082TIP3    H224662   1.966   1.674  15.449 -0.3570 -0.1737 -0.4570
 1083TIP3   OH224663   6.122   2.449  15.001  0.0739 -0.1564 -0.4280
 1083TIP3    H124664   6.122   2.388  15.075 -2.1280  0.3599  0.0296
 1083TIP3    H224665   6.178   2.521  15.030 -0.8569  0.0885  0.7992
 1084TIP3   OH224666   1.635   1.724  12.380 -0.1250  0.6411  0.4930
 1084TIP3    H124667   1.719   1.770  12.391 -0.6127  1.8315 -0.5832
 1084TIP3    H224668   1.656   1.648  12.326  0.3019  0.8370  0.3813
 1085TIP3   OH224669   3.958   4.916   5.233 -0.2436  0.2154  0.4839
 1085TIP3    H124670   3.910   4.995   5.208  1.4933  1.5947  1.4445
 1085TIP3    H224671   4.027   4.908   5.167 -1.6153 -1.6923 -0.8150
 1086TIP3   OH224672   6.138   5.257  12.433 -0.0635  0.4500 -0.3109
 1086TIP3    H124673   6.180   5.286  12.514  0.1818  1.6305 -0.8523
 1086TIP3    H224674   6.210   5.252  12.370  0.0006 -1.8602 -0.1107
 1087TIP3   OH224675   0.202   5.740  15.034 -0.3612  0.1023  0.4882
 1087TIP3    H124676   0.126   5.779  14.992  0.3103  0.2561 -0.5986
 1087TIP3    H224677   0.186   5.646  15.031 -0.2858  0.1130 -0.1542
 1088TIP3   OH224678   6.135   1.684  13.009 -0.1344 -0.1773  0.1103
 1088TIP3    H124679   6.129   1.590  13.021 -3.8014  0.1710  1.7034
 1088TIP3    H224680   6.188   1.714  13.084 -0.3394 -0.8072  0.5159
 1089TIP3   OH224681   3.397   4.437   5.696  0.5608 -0.1665 -0.0526
 1089TIP3    H124682   3.341   4.508   5.664  0.8649  0.3409  0.5053
 1089TIP3    H224683   3.387   4.441   5.792  1.0059 -0.5189  0.0101
 1090TIP3   OH224684   6.260   3.729  13.071  0.2378 -0.4202 -0.1711
 1090TIP3    H124685   6.185   3.676  13.044 -0.2220  0.7517 -1.2136
 1090TIP3    H224686   6.274   3.789  12.998  2.0540 -0.4809  0.1041
 1091TIP3   OH224687   2.731   5.252  15.688 -0.1575  0.2319 -0.3084
 1091TIP3    H124688   2.723   5.191  15.615  2.1390  0.9251 -1.1941
 1091TIP3    H224689   2.749   5.196  15.764 -2.3172 -0.4750 -0.3015
 1092TIP3   OH224690   1.823   1.655  12.951 -0.1983 -0.0722  0.1665
 1092TIP3    H124691   1.742   1.622  12.990 -0.1169 -0.6746 -0.1681
 1092TIP3    H224692   1.811   1.641  12.857  1.0667 -1.9009  0.2621
 1093TIP3   OH224693   4.226   2.541  13.713 -0.5415  0.5729  0.4816
 1093TIP3    H124694   4.309   2.535  13.760 -0.0012  0.1100 -0.5094
 1093TIP3    H224695   4.159   2.537  13.781  0.2173 -0.5570  1.1698
 1094TIP3   OH224696   5.652   3.323  11.719  0.8162 -0.0114  0.3816
 1094TIP3    H124697   5.617   3.238  11.692 -0.2347  0.2940  0.7394
 1094TIP3    H224698   5.583   3.361  11.773  1.5148  0.8271  0.7006
 1095TIP3   OH224699   3.169   0.151  13.718 -0.3755  0.0350 -0.2397
 1095TIP3    H124700   3.255   0.191  13.709  0.3527 -1.3309  0.4135
 1095TIP3    H224701   3.116   0.216  13.763  0.7466  0.3233  0.6947
 1096TIP3   OH224702   1.240   3.137  16.815 -0.4338  0.1921  0.3446
 1096TIP3    H124703   1.184   3.115  16.741  0.1245  1.5729 -0.5053
 1096TIP3    H224704   1.232   3.233  16.823  0.1874  0.1529  1.5167
 1097TIP3   OH224705   5.778   2.903  16.159  0.0561 -0.0655  0.9270
 1097TIP3    H124706   5.809   2.813  16.145  0.1527  0.3108 -1.5295
 1097TIP3    H224707   5.701   2.910  16.103  2.1510  2.5091 -1.7801
 1098TIP3   OH224708   3.839   1.521   0.544  0.1450  0.4186  0.0713
 1098TIP3    H124709   3.858   1.592   0.483  0.0033 -0.5923 -1.1609
 1098TIP3    H224710   3.751   1.539   0.575 -0.1020  0.4950 -0.6641
 1099TIP3   OH224711   2.785   2.445   3.372 -0.2230  0.1869  0.3762
 1099TIP3    H124712   2.759   2.353   3.378  1.5342 -0.3437  0.0193
 1099TIP3    H224713   2.742   2.487   3.447 -2.9650 -0.4274 -0.7759
 1100TIP3   OH224714   4.970   5.245   1.396 -0.0773  0.2814 -0.3011
 1100TIP3    H124715   5.028   5.312   1.432 -1.2516  0.4521  1.3210
 1100TIP3    H224716   5.021   5.204   1.326  0.9607  2.2852 -0.7317
 1101TIP3   OH224717   3.989   1.044   5.152  0.3518  0.0380  0.2530
 1101TIP3    H124718   3.952   1.041   5.241  0.7754 -0.9584  0.4012
 1101TIP3    H224719   3.972   0.957   5.116 -1.1183  0.8863 -1.1903
 1102TIP3   OH224720   1.096   4.579   2.135  0.2058  0.4246 -0.1552
 1102TIP3    H124721   1.033   4.507   2.136  2.0247 -1.1956  0.2775
 1102TIP3    H224722   1.072   4.632   2.211  1.3151 -1.9512  1.9392
 1103TIP3   OH224723   2.153   4.395  14.630  0.2336 -0.3267 -0.0563
 1103TIP3    H124724   2.149   4.481  14.590  0.4535 -0.5369 -0.5347
 1103TIP3    H224725   2.210   4.344  14.573  1.0824 -0.4380  0.8761
 1104TIP3   OH224726   1.335   4.806   2.573  0.9330 -0.2472  0.1227
 1104TIP3    H124727   1.300   4.756   2.647  1.4655  0.2392  0.7072
 1104TIP3    H224728   1.346   4.741   2.503 -1.2492 -0.3785 -0.1174
 1105TIP3   OH224729   1.524   6.565  12.883  0.1005  0.1623  0.2496
 1105TIP3    H124730   1.458   6.535  12.946 -0.3782 -0.5095 -0.5542
 1105TIP3    H224731   1.585   6.491  12.877 -1.5784 -1.0815 -2.4285
 1106TIP3   OH224732   6.549   6.064  11.714  0.1759  0.2141  0.2837
 1106TIP3    H124733   6.473   6.008  11.729  1.2203 -0.6395  2.6640
 1106TIP3    H224734   6.625   6.009  11.734  1.2862  1.9223  0.9915
 1107TIP3   OH224735   1.403   4.583  16.508 -0.0760  0.1697 -0.2748
 1107TIP3    H124736   1.397   4.674  16.537 -2.1412 -0.5077  1.5495
 1107TIP3    H224737   1.450   4.588  16.424  0.2191  2.8452 -0.0133
 1108TIP3   OH224738   3.925   1.097  11.236 -0.0346 -0.3726  0.2635
 1108TIP3    H124739   3.943   1.013  11.194  1.4182 -0.1618  0.4460
 1108TIP3    H224740   3.909   1.074  11.328  1.2996 -0.3556  0.5053
 1109TIP3   OH224741   4.515   1.133   1.293  0.9595  0.5678  0.5852
 1109TIP3    H124742   4.456   1.059   1.285  0.1861  1.3690 -1.7417
 1109TIP3    H224743   4.536   1.138   1.386  0.5385 -2.1565  0.8654
 1110TIP3   OH224744   1.849   1.976  15.016  0.1875 -0.4107  0.1204
 1110TIP3    H124745   1.876   1.912  15.082 -0.0552  0.9242  1.5405
 1110TIP3    H224746   1.924   1.982  14.957  0.6006 -1.2543  0.5431
 1111TIP3   OH224747   2.475   2.839   0.861  0.0119  0.3618 -0.7134
 1111TIP3    H124748   2.415   2.908   0.889 -0.1565  0.0824 -0.3892
 1111TIP3    H224749   2.473   2.843   0.765  2.2115  2.7267 -0.6957
 1112TIP3   OH224750   2.777   6.190  17.087  0.3964 -0.2764 -0.4486
 1112TIP3    H124751   2.857   6.237  17.112  0.5870 -0.3326 -0.9567
 1112TIP3    H224752   2.709   6.227  17.144  0.9166 -0.7259  0.4869
 1113TIP3   OH224753   4.922   6.716   1.073 -0.7828 -0.2627  0.3385
 1113TIP3    H124754   4.917   6.687   1.164 -1.3879  0.7909  0.6512
 1113TIP3    H224755   4.961   6.642   1.026  0.0804 -0.5899  1.5504
 1114TIP3   OH224756   6.013   4.888   3.568 -0.8158  0.1251 -0.5684
 1114TIP3    H124757   6.002   4.862   3.476  1.5733 -3.1488 -0.0000
 1114TIP3    H224758   5.944   4.840   3.615 -0.3172 -0.3330 -0.3035
 1115TIP3   OH224759   2.497   1.832  15.484  0.0484  0.4378  0.5098
 1115TIP3    H124760   2.470   1.811  15.395  1.2021  0.5030  0.1383
 1115TIP3    H224761   2.473   1.755  15.535 -0.1476  0.1859  0.0454
 1116TIP3   OH224762   5.810   2.394  10.925 -0.2515  0.1511  0.3443
 1116TIP3    H124763   5.784   2.302  10.927 -0.1609  0.1138 -0.2023
 1116TIP3    H224764   5.901   2.393  10.895 -0.7480  0.5183 -1.2091
 1117TIP3   OH224765   2.223   5.233  14.342  0.1381 -0.4903  0.1745
 1117TIP3    H124766   2.256   5.266  14.425  2.1528 -0.9904 -0.3819
 1117TIP3    H224767   2.139   5.193  14.363  0.7198 -0.8028  2.0137
 1118TIP3   OH224768   2.194   3.583  14.005 -0.7657 -0.0160  0.0680
 1118TIP3    H124769   2.208   3.531  13.925 -0.0163  0.1035  0.1130
 1118TIP3    H224770   2.219   3.523  14.076  1.8416  0.9549  0.0363
 1119TIP3   OH224771   5.238   0.407  15.716  0.0512 -0.0064  0.0855
 1119TIP3    H124772   5.266   0.351  15.644 -1.1452 -0.0793 -0.3344
 1119TIP3    H224773   5.268   0.361  15.795  0.8569 -0.2074 -0.3356
 1120TIP3   OH224774   4.562   5.709   4.853 -0.2105  0.6827 -0.1796
 1120TIP3    H124775   4.626   5.661   4.800 -1.0657 -0.1607 -0.4785
 1120TIP3    H224776   4.613   5.774   4.900  0.7169  0.7271 -1.2264
 1121TIP3   OH224777   5.042   0.687   6.185 -0.0545  0.0360  0.3963
 1121TIP3    H124778   4.987   0.746   6.237 -0.3889 -1.1671  1.4177
 1121TIP3    H224779   4.984   0.617   6.158  0.3574  0.1350 -0.7846
 1122TIP3   OH224780   0.069   0.762   3.176  0.2880  0.2836 -0.2241
 1122TIP3    H124781   0.058   0.689   3.114 -1.9555  0.5966 -0.2427
 1122TIP3    H224782   0.121   0.725   3.248 -0.8332 -1.3684 -0.2301
 1123TIP3   OH224783   3.358   5.711   1.941  0.3265  0.4121 -0.1913
 1123TIP3    H124784   3.269   5.679   1.928  0.3841  0.1625  0.0014
 1123TIP3    H224785   3.413   5.633   1.929  0.4015  0.2345  1.1814
 1124TIP3   OH224786   3.656   1.753  14.104  0.0630  0.1860 -0.0378
 1124TIP3    H124787   3.625   1.796  14.184 -0.0232  2.0834 -1.0585
 1124TIP3    H224788   3.739   1.797  14.084  1.0142 -1.5233 -0.0123
 1125TIP3   OH224789   5.265   3.218  12.920  0.2991 -0.4685  0.6269
 1125TIP3    H124790   5.314   3.223  12.838 -0.0659 -0.3575  0.4137
 1125TIP3    H224791   5.255   3.124  12.936 -0.8541 -0.4957 -0.1953
 1126TIP3   OH224792   0.574   2.684   1.527  0.1776 -0.1468 -0.1624
 1126TIP3    H124793   0.648   2.638   1.567  0.0672  0.2719  0.5313
 1126TIP3    H224794   0.533   2.619   1.470  1.8391 -0.0200 -1.5509
 1127TIP3   OH224795   6.485   3.031  15.737  0.0882  0.5155 -0.3823
 1127TIP3    H124796   6.453   3.121  15.731  1.8462  1.4180  2.5851
 1127TIP3    H224797   6.448   2.997  15.818 -1.7547 -1.9974 -2.2068
 1128TIP3   OH224798   0.288   1.003  13.439  0.4836  0.4852  0.5430
 1128TIP3    H124799   0.253   1.092  13.438  0.4066  0.4534 -0.2948
 1128TIP3    H224800   0.251   0.962  13.360  0.7530 -0.1936  0.7675
 1129TIP3   OH224801   2.329   1.787  13.036  0.3290 -0.0196  0.9868
 1129TIP3    H124802   2.252   1.832  13.000  0.0319  0.5907  2.3647
 1129TIP3    H224803   2.348   1.833  13.117  1.6130 -0.7512  1.1120
 1130TIP3   OH224804   1.850   1.578   6.047  0.5202 -0.1044  0.0128
 1130TIP3    H124805   1.756   1.593   6.061  0.7587 -0.3937  2.2397
 1130TIP3    H224806   1.854   1.499   5.994 -0.5112 -0.0018 -0.2274
 1131TIP3   OH224807   3.653   5.326  15.023 -0.1799 -0.3491 -0.5189
 1131TIP3    H124808   3.663   5.231  15.029 -0.7367 -0.3678  0.3314
 1131TIP3    H224809   3.723   5.361  15.078 -1.3865 -0.3441  1.0666
 1132TIP3   OH224810   2.345   3.213   3.081 -0.1190 -0.1070  0.3758
 1132TIP3    H124811   2.304   3.254   3.005 -0.2952 -0.1187  0.4636
 1132TIP3    H224812   2.289   3.138   3.101 -0.0046 -0.1744  0.4415
 1133TIP3   OH224813   4.632   5.015   6.357  0.1336  0.1807  0.8049
 1133TIP3    H124814   4.667   5.094   6.399  1.9757 -0.7696  1.1120
 1133TIP3    H224815   4.687   4.944   6.390 -0.8710 -1.1143 -0.2405
 1134TIP3   OH224816   3.610   4.402  14.942 -0.2352 -0.3510 -0.1800
 1134TIP3    H124817   3.699   4.374  14.918 -0.0929  0.7926 -1.0226
 1134TIP3    H224818   3.562   4.404  14.859 -0.3653  1.4174 -0.0809
 1135TIP3   OH224819   6.591   0.567   5.042  0.5986  0.7335  0.0007
 1135TIP3    H124820   6.669   0.589   4.991 -0.2310  1.4416 -0.9917
 1135TIP3    H224821   6.580   0.640   5.102  2.0303 -0.4704  1.7866
 1136TIP3   OH224822   2.571   3.868   2.576  0.5692 -0.0942 -0.2869
 1136TIP3    H124823   2.617   3.951   2.561  0.4154  0.2729  1.1489
 1136TIP3    H224824   2.487   3.878   2.532  1.3512 -0.2881 -1.8656
 1137TIP3   OH224825   5.630   1.862   4.785  0.4427 -0.0472 -0.7524
 1137TIP3    H124826   5.649   1.933   4.724 -1.3922  2.0951  1.0836
 1137TIP3    H224827   5.560   1.896   4.841  0.2200 -2.9337  0.8368
 1138TIP3   OH224828   4.661   1.837   1.618  0.0555  0.3156  0.3973
 1138TIP3    H124829   4.644   1.746   1.594  2.0168 -0.0434  0.2704
 1138TIP3    H224830   4.640   1.842   1.711 -0.1633 -0.2380  0.3760
 1139TIP3   OH224831   1.850   6.371  12.269 -0.4245  0.8675  0.3350
 1139TIP3    H124832   1.786   6.442  12.260 -0.4857  0.8307  0.4852
 1139TIP3    H224833   1.876   6.373  12.361 -0.1313  0.9482  0.2505
 1140TIP3   OH224834   0.175   5.501  11.359  0.1987  0.2975  0.4110
 1140TIP3    H124835   0.173   5.548  11.442  0.7102 -0.2607  0.7409
 1140TIP3    H224836   0.265   5.469  11.352 -0.1245 -0.5459  0.1337
 1141TIP3   OH224837   2.705   3.637  12.285  0.1137  0.2999  0.2685
 1141TIP3    H124838   2.700   3.595  12.371 -1.4485 -0.2725 -0.0769
 1141TIP3    H224839   2.648   3.713  12.293 -0.9653 -0.3944 -0.5887
 1142TIP3   OH224840   4.899   0.945  13.478 -0.5361 -0.3616 -0.2771
 1142TIP3    H124841   4.814   0.918  13.442 -0.6427 -0.9574  0.4065
 1142TIP3    H224842   4.927   1.017  13.422 -1.2841 -0.4571 -0.7842
 1143TIP3   OH224843   0.374   4.667  11.881 -0.2181  0.0045 -0.1322
 1143TIP3    H124844   0.353   4.740  11.939 -0.0113 -1.1150  1.3672
 1143TIP3    H224845   0.469   4.667  11.875 -0.2218 -0.1130 -0.1960
 1144TIP3   OH224846   2.661   3.507   5.451 -0.4780  0.0462  0.5785
 1144TIP3    H124847   2.702   3.568   5.390  2.0553 -0.6373  1.5105
 1144TIP3    H224848   2.632   3.561   5.524 -0.4202  0.4483  0.3050
 1145TIP3   OH224849   5.869   1.742  16.601  0.0069 -0.2156 -0.4952
 1145TIP3    H124850   5.787   1.727  16.555  0.0562  0.6375 -0.8781
 1145TIP3    H224851   5.935   1.696  16.549 -0.0838 -0.0870 -0.7223
 1146TIP3   OH224852   4.981   5.398   0.524  0.4390  0.3996 -0.0350
 1146TIP3    H124853   5.008   5.383   0.433  3.2682  1.7120  0.5413
 1146TIP3    H224854   4.941   5.315   0.551  1.7458 -0.8244 -1.7445
 1147TIP3   OH224855   5.991   0.605  15.023  0.0835  0.0652  0.4100
 1147TIP3    H124856   5.957   0.517  15.038  2.0162 -0.5000  1.5093
 1147TIP3    H224857   5.919   0.650  14.978 -0.2176 -2.6220 -1.9601
 1148TIP3   OH224858   4.112   2.050   5.981  0.2968 -0.0547  0.3462
 1148TIP3    H124859   4.170   2.126   5.968 -0.9109  0.8331  0.0431
 1148TIP3    H224860   4.024   2.087   5.982 -0.2731 -1.3943  0.8259
 1149TIP3   OH224861   1.224   2.571  15.704  0.4343 -0.2677  0.1162
 1149TIP3    H124862   1.146   2.592  15.652  0.8988  0.6036 -0.2292
 1149TIP3    H224863   1.279   2.520  15.644  0.5628 -0.0483  0.0478
 1150TIP3   OH224864   6.127   3.777   5.990 -0.3801 -0.1161 -0.0650
 1150TIP3    H124865   6.162   3.737   5.911 -2.2401  0.8402 -1.3930
 1150TIP3    H224866   6.053   3.721   6.015 -0.1555 -0.0875  0.6909
 1151TIP3   OH224867   4.484   2.712   5.650  0.5765  0.4508 -0.3308
 1151TIP3    H124868   4.397   2.713   5.611  0.7400  1.6709 -0.6792
 1151TIP3    H224869   4.513   2.803   5.647  1.7916  0.0813 -0.0525
 1152TIP3   OH224870   2.747   5.611  13.495 -0.2470 -0.4886  0.6045
 1152TIP3    H124871   2.710   5.524  13.511 -2.2272  0.0818 -0.6874
 1152TIP3    H224872   2.841   5.598  13.501 -0.3461 -3.3089 -2.2202
 1153TIP3   OH224873   1.596   5.084   2.914  0.1841 -0.5378  0.4501
 1153TIP3    H124874   1.670   5.049   2.962  0.6689 -0.4982 -0.2566
 1153TIP3    H224875   1.630   5.161   2.869 -0.3152 -0.4411  0.2248
 1154TIP3   OH224876   0.572   1.201  15.982 -0.2464 -0.0560  0.6426
 1154TIP3    H124877   0.569   1.294  16.005 -4.2176  0.2690 -0.8424
 1154TIP3    H224878   0.504   1.190  15.916  1.3400 -3.7179 -0.5295
 1155TIP3   OH224879   0.030   2.572  16.897 -0.9472 -0.6037  0.0934
 1155TIP3    H124880  -0.012   2.604  16.817  0.3255 -1.7088 -1.0506
 1155TIP3    H224881   0.120   2.552  16.870 -0.6774 -1.5544  1.6596
 1156TIP3   OH224882   2.593   1.149  14.780  0.2940  0.1623  0.0559
 1156TIP3    H124883   2.675   1.188  14.752  1.6455 -1.4893  1.5495
 1156TIP3    H224884   2.544   1.221  14.819  1.6480  0.8781  0.4671
 1157TIP3   OH224885   1.012   6.206  15.299 -0.1086 -0.2536 -0.3103
 1157TIP3    H124886   0.990   6.113  15.297 -1.1074 -0.0301 -0.2835
 1157TIP3    H224887   1.030   6.229  15.208  2.1414 -0.9196 -0.0546
 1158TIP3   OH224888   1.098   1.408  16.448 -0.4872 -0.0016 -0.2988
 1158TIP3    H124889   1.134   1.437  16.365  2.5375 -1.5543  0.3991
 1158TIP3    H224890   1.128   1.318  16.458 -1.2238 -0.0256  2.2190
 1159TIP3   OH224891   3.743   1.716  13.744 -0.1995 -0.5484 -0.5064
 1159TIP3    H124892   3.767   1.734  13.653  0.7112  1.2640  0.0769
 1159TIP3    H224893   3.743   1.620  13.750  0.2022 -0.6784 -2.2749
 1160TIP3   OH224894   2.276   1.848  14.260 -0.3361  0.3193  0.5842
 1160TIP3    H124895   2.346   1.806  14.210 -1.2316  1.4723 -1.6888
 1160TIP3    H224896   2.216   1.882  14.194 -1.9787  1.1836  2.4677
 1161TIP3   OH224897   1.369   0.220  12.222 -0.7539 -0.0926 -0.2013
 1161TIP3    H124898   1.282   0.222  12.261  0.1103  1.6342  1.7310
 1161TIP3    H224899   1.429   0.232  12.296  1.0869 -0.4921 -1.5901
 1162TIP3   OH224900   3.033   2.471   5.582  0.5981 -0.3947  0.2799
 1162TIP3    H124901   3.083   2.426   5.649  4.5762  2.1093 -0.8384
 1162TIP3    H224902   3.080   2.453   5.500 -2.2919 -0.7267 -1.3991
 1163TIP3   OH224903   2.370   5.138  10.581  0.4010  0.0085  0.6123
 1163TIP3    H124904   2.447   5.193  10.594  1.6710 -1.1898 -1.5676
 1163TIP3    H224905   2.298   5.200  10.574  1.3727  1.2305  1.1863
 1164TIP3   OH224906   4.452   0.560  15.700 -0.6098  0.5773 -0.0531
 1164TIP3    H124907   4.523   0.501  15.724  0.0746  0.9310 -1.1700
 1164TIP3    H224908   4.455   0.630  15.765 -0.5016  0.1250  0.4257
 1165TIP3   OH224909   3.837   3.813   5.324 -0.1015 -0.1090  0.1973
 1165TIP3    H124910   3.863   3.874   5.393 -0.4592 -0.3993  0.5880
 1165TIP3    H224911   3.777   3.863   5.269  0.1855  0.1241  0.0956
 1166TIP3   OH224912   3.665   4.204  16.159  0.1255  0.2339  0.5353
 1166TIP3    H124913   3.709   4.130  16.118 -1.7764 -0.6692  0.0272
 1166TIP3    H224914   3.648   4.265  16.086 -1.5230 -0.4885  0.2944
 1167TIP3   OH224915   5.828   2.212   1.520  0.0223 -0.0910  0.6884
 1167TIP3    H124916   5.888   2.269   1.472 -1.5569  2.1082  1.2303
 1167TIP3    H224917   5.874   2.191   1.601  0.2796  1.1380  0.8673
 1168TIP3   OH224918   4.092   1.781   5.940 -0.3974  0.2488 -0.1821
 1168TIP3    H124919   4.001   1.787   5.969 -0.3883 -0.4008  0.0049
 1168TIP3    H224920   4.129   1.866   5.960 -1.4117  1.0986 -1.8034
 1169TIP3   OH224921   4.347   3.636  13.525  0.3744 -0.3105 -0.4302
 1169TIP3    H124922   4.420   3.627  13.587  0.5891  0.3314 -0.5814
 1169TIP3    H224923   4.370   3.714  13.474 -0.5435  0.0301 -0.3201
 1170TIP3   OH224924   5.218   1.469   4.628  0.2936  0.4614 -0.5276
 1170TIP3    H124925   5.288   1.414   4.663 -1.7831 -0.5316  2.2688
 1170TIP3    H224926   5.230   1.553   4.672  0.7155  0.8081 -1.3042
 1171TIP3   OH224927   5.178   2.933   2.171  0.7501 -0.6674  0.7413
 1171TIP3    H124928   5.248   2.879   2.133 -1.2728 -1.2728 -2.3430
 1171TIP3    H224929   5.107   2.872   2.188  0.5812  0.1067  2.8898
 1172TIP3   OH224930   2.355   3.658  11.185 -0.3347  0.4994 -0.1919
 1172TIP3    H124931   2.273   3.694  11.218  1.9474  2.8027  3.2303
 1172TIP3    H224932   2.360   3.569  11.222 -0.7149  0.7993  0.5719
 1173TIP3   OH224933   0.638   4.468  13.950 -0.4280  0.0933 -0.5432
 1173TIP3    H124934   0.547   4.478  13.980 -0.2558 -0.8840  0.3140
 1173TIP3    H224935   0.680   4.550  13.972 -1.1187  0.5770 -0.9988
 1174TIP3   OH224936   4.427   1.837   0.892 -0.2587  0.0120  0.2895
 1174TIP3    H124937   4.386   1.822   0.807  0.6186 -2.1513  0.2086
 1174TIP3    H224938   4.398   1.924   0.918 -1.1285  0.3981 -1.8847
 1175TIP3   OH224939   6.542   2.090  13.206 -0.0540  0.2086 -0.4633
 1175TIP3    H124940   6.510   2.004  13.178  2.0025 -0.4710 -0.8062
 1175TIP3    H224941   6.537   2.144  13.127 -2.5088  0.7876  0.0469
 1176TIP3   OH224942   3.087   3.107   6.244  0.4123  0.1607  0.9383
 1176TIP3    H124943   3.067   3.178   6.305 -1.8184 -1.2745  1.9640
 1176TIP3    H224944   3.134   3.043   6.296  1.7890  0.5483  0.1915
 1177TIP3   OH224945   1.424   4.880   2.894 -0.5403  0.1800 -0.6416
 1177TIP3    H124946   1.488   4.950   2.904  2.0360 -2.0756 -0.6847
 1177TIP3    H224947   1.399   4.858   2.984 -0.2583  0.2221 -0.5502
 1178TIP3   OH224948   5.071   2.353  10.638  0.2723  0.0966  0.4966
 1178TIP3    H124949   5.158   2.312  10.629  0.6174  0.9829 -0.2539
 1178TIP3    H224950   5.087   2.432  10.689 -0.0658  0.3530  0.2088
 1179TIP3   OH224951   0.113   6.025   2.401 -0.1063  0.3232 -0.2955
 1179TIP3    H124952   0.081   6.001   2.487  0.5208 -0.5865 -0.3130
 1179TIP3    H224953   0.140   6.116   2.410 -1.9329  0.8654 -0.0732
 1180TIP3   OH224954   3.642   0.854   2.017 -0.1010 -0.0729  0.5241
 1180TIP3    H124955   3.650   0.943   2.053 -0.1129 -0.2237  0.8961
 1180TIP3    H224956   3.710   0.804   2.062 -0.4666 -0.3877  0.7199
 1181TIP3   OH224957   2.443   1.634   4.625 -0.0133 -0.0609 -0.2843
 1181TIP3    H124958   2.515   1.571   4.617 -1.1011 -1.3664  0.1256
 1181TIP3    H224959   2.437   1.651   4.719  0.7086  1.1733 -0.4518
 1182TIP3   OH224960   3.146   5.891   1.319 -0.2366  0.0918 -0.4772
 1182TIP3    H124961   3.176   5.960   1.258  1.5167  1.1538  1.5220
 1182TIP3    H224962   3.055   5.913   1.337  0.3506  2.0179  0.2662
 1183TIP3   OH224963   1.789   3.327   1.254  0.1827 -0.9350  0.4044
 1183TIP3    H124964   1.731   3.389   1.209 -0.3830 -1.4979  0.3554
 1183TIP3    H224965   1.782   3.246   1.203  0.1580 -1.3331  1.0408
 1184TIP3   OH224966   0.032   1.081   0.180 -0.0613  0.1524  0.5856
 1184TIP3    H124967   0.093   1.153   0.167 -0.9272  1.0908  1.5590
 1184TIP3    H224968  -0.029   1.113   0.246 -0.1319 -1.6839  1.4611
 1185TIP3   OH224969   2.376   3.500  16.972 -0.3660 -0.4455  0.2266
 1185TIP3    H124970   2.452   3.477  16.917 -0.3839 -1.7439  0.7272
 1185TIP3    H224971   2.300   3.470  16.922 -0.5990  1.3589 -0.5285
 1186TIP3   OH224972   4.957   4.629  13.575  0.5284 -0.4791  0.3847
 1186TIP3    H124973   4.903   4.645  13.498 -1.1688 -2.3061  1.1393
 1186TIP3    H224974   4.935   4.700  13.635 -0.1290 -0.5094  0.1876
 1187TIP3   OH224975   2.425   3.323   0.211  0.3374 -0.1212 -0.1906
 1187TIP3    H124976   2.416   3.388   0.280 -0.2389 -1.4193  0.9773
 1187TIP3    H224977   2.384   3.364   0.134  1.9393  1.7602 -0.1030
 1188TIP3   OH224978   0.768   6.052   0.971 -0.6271 -0.0529  0.6031
 1188TIP3    H124979   0.766   5.960   0.996 -0.0366 -0.2171  0.0622
 1188TIP3    H224980   0.727   6.098   1.044 -1.0495 -0.7604  0.8083
 1189TIP3   OH224981   0.468   5.951  11.302 -0.2077  0.0587  0.1744
 1189TIP3    H124982   0.412   6.025  11.323 -1.5840 -0.8279 -0.2732
 1189TIP3    H224983   0.488   5.962  11.209 -1.1531 -0.5996 -0.1154
 1190TIP3   OH224984   6.526   1.890   3.000  0.1597  0.6080  0.3121
 1190TIP3    H124985   6.576   1.895   3.082 -0.3453 -1.5547  0.7860
 1190TIP3    H224986   6.512   1.796   2.986 -1.5837  1.0529 -1.1498
 1191TIP3   OH224987   6.423   2.889   2.530  0.6949  0.1950  0.5755
 1191TIP3    H124988   6.356   2.822   2.517 -0.5950  1.4260  0.7633
 1191TIP3    H224989   6.422   2.905   2.625  0.7457  0.7379  0.4828
 1192TIP3   OH224990   2.507   3.779  16.007  0.3974 -0.7170  0.2234
 1192TIP3    H124991   2.427   3.759  15.958 -0.0176 -0.2251  0.7026
 1192TIP3    H224992   2.500   3.729  16.088 -0.4033  0.9455  1.1979
 1193TIP3   OH224993   6.580   4.412  10.372 -0.4061 -0.2967 -0.2087
 1193TIP3    H124994   6.644   4.350  10.338 -1.1808 -0.5295 -1.2598
 1193TIP3    H224995   6.632   4.475  10.422  0.4102 -1.5954  0.5920
 1194TIP3   OH224996   6.754   0.747   2.613  0.2944  0.5382  0.0780
 1194TIP3    H124997   6.723   0.825   2.567 -0.0540  0.0629 -0.4863
 1194TIP3    H224998   6.713   0.753   2.699  0.8688  1.3715  0.3117
 1195TIP3   OH224999   1.283   4.856   1.019  0.7031 -0.4997  0.1393
 1195TIP3    H125000   1.288   4.926   1.084 -0.8304 -0.3935  0.1469
 1195TIP3    H225001   1.221   4.794   1.054  0.1305 -0.6206 -1.0519
 1196TIP3   OH225002   0.746   2.617  11.426  0.3690 -0.0943 -0.0119
 1196TIP3    H125003   0.746   2.580  11.514 -1.8230 -0.2734 -0.0417
 1196TIP3    H225004   0.773   2.708  11.438 -1.8375  0.4416  1.1437
 1197TIP3   OH225005   5.624   1.024   1.269  0.4964  0.2603 -0.1342
 1197TIP3    H125006   5.600   1.054   1.182  1.1837  1.2373 -0.0005
 1197TIP3    H225007   5.634   0.929   1.260 -1.1915  0.1271 -0.6904
 1198TIP3   OH225008   3.337   2.605   4.153  0.4218 -0.1884 -0.3239
 1198TIP3    H125009   3.391   2.559   4.089  1.4862  0.5147  0.0511
 1198TIP3    H225010   3.260   2.633   4.104  2.0952  2.0169 -1.8200
 1199TIP3   OH225011   5.682   6.369   3.799 -0.1705 -0.3439 -0.4551
 1199TIP3    H125012   5.767   6.347   3.761  1.2290  1.7552  1.3232
 1199TIP3    H225013   5.653   6.446   3.750 -0.3529 -0.1730 -0.0837
 1200TIP3   OH225014   4.328   5.612   1.171 -0.0775  0.2164  0.2070
 1200TIP3    H125015   4.328   5.659   1.254 -0.5266  1.8426 -0.6785
 1200TIP3    H225016   4.235   5.600   1.150 -0.0011  1.2883 -0.8358
 1201TIP3   OH225017   3.052   4.676   6.445 -0.0746 -0.1985  0.2827
 1201TIP3    H125018   3.095   4.682   6.530  1.1938 -1.2207 -0.2554
 1201TIP3    H225019   3.121   4.700   6.382 -0.6252 -0.7180 -0.5244
 1202TIP3   OH225020   3.380   3.483   2.937  0.4456  0.4832  0.3131
 1202TIP3    H125021   3.340   3.470   3.023  1.0562 -0.1081  0.5040
 1202TIP3    H225022   3.455   3.424   2.935  1.1086  1.3207 -0.1924
 1203TIP3   OH225023   0.920   2.403   2.913 -0.0195  0.5704 -0.5310
 1203TIP3    H125024   0.847   2.452   2.950 -1.0051 -0.5341 -1.0239
 1203TIP3    H225025   0.892   2.378   2.825  0.3227 -1.2098 -0.1585
 1204TIP3   OH225026   3.050   1.353   0.191  0.6614 -0.2517 -0.1776
 1204TIP3    H125027   3.008   1.399   0.263 -0.2703 -1.3343 -0.0223
 1204TIP3    H225028   3.051   1.261   0.218  2.8439 -0.3068 -0.3197
 1205TIP3   OH225029   1.101   2.264   3.585  0.1718  0.4797  0.0699
 1205TIP3    H125030   1.175   2.237   3.639 -0.5413  0.1568  0.8953
 1205TIP3    H225031   1.024   2.225   3.628 -0.4095  0.2847 -1.1288
 1206TIP3   OH225032   3.991   6.555  11.180  0.2196  0.1396  0.1889
 1206TIP3    H125033   3.992   6.651  11.184  2.7810  0.2801 -2.3866
 1206TIP3    H225034   3.930   6.535  11.109  0.9216 -0.0613 -0.3633
 1207TIP3   OH225035   1.902   3.131  14.072  0.8760 -0.4904 -0.3288
 1207TIP3    H125036   1.987   3.105  14.108  0.3604  0.9273  1.9994
 1207TIP3    H225037   1.911   3.225  14.054 -0.5089 -0.1011  0.9027
 1208TIP3   OH225038   0.059   2.053  15.375 -0.4952 -0.0108  0.1060
 1208TIP3    H125039   0.038   2.030  15.284  0.3512 -2.1480  0.4280
 1208TIP3    H225040   0.129   2.117  15.368 -0.6893  0.1161 -0.7595
 1209TIP3   OH225041   0.399   4.167   3.015  0.5129 -0.0416  0.2371
 1209TIP3    H125042   0.425   4.091   3.066  1.5521  0.5424  0.6131
 1209TIP3    H225043   0.321   4.201   3.059  0.4579 -0.4842  0.4802
 1210TIP3   OH225044   1.165   4.172   1.821  0.3735  0.4235 -0.1510
 1210TIP3    H125045   1.142   4.128   1.903 -1.6432 -1.0003 -1.4221
 1210TIP3    H225046   1.087   4.163   1.766  1.6707  1.3664 -2.2247
 1211TIP3   OH225047   0.333   5.833  12.429 -0.1661  0.2820  0.3285
 1211TIP3    H125048   0.403   5.827  12.495 -2.3597  0.8712  2.8013
 1211TIP3    H225049   0.272   5.762  12.452 -0.3483 -0.3252 -1.8795
 1212TIP3   OH225050   4.460   0.096  14.660  0.4440 -0.0099  0.0899
 1212TIP3    H125051   4.417   0.160  14.717  0.9580  1.4473 -1.1286
 1212TIP3    H225052   4.396   0.077  14.592 -0.0871 -1.5890  1.0096
 1213TIP3   OH225053   5.642   2.384   4.467 -0.1442  0.1173 -0.4356
 1213TIP3    H125054   5.584   2.326   4.418 -0.0566 -2.2185  2.0664
 1213TIP3    H225055   5.730   2.359   4.439 -0.1570 -0.0624 -0.3175
 1214TIP3   OH225056   5.161   5.685   1.361 -0.0372  0.1607 -0.2490
 1214TIP3    H125057   5.224   5.653   1.425 -1.3963 -1.3643  0.3422
 1214TIP3    H225058   5.213   5.700   1.282  1.2449 -0.0544  0.5329
 1215TIP3   OH225059   2.429   1.213   5.649  0.5494  0.2159  0.6455
 1215TIP3    H125060   2.486   1.148   5.608 -0.8965 -0.9315  0.4097
 1215TIP3    H225061   2.419   1.281   5.582 -0.0879 -0.6268 -0.1324
 1216TIP3   OH225062   2.494   5.432   1.023  0.1884 -0.5591 -0.4755
 1216TIP3    H125063   2.479   5.439   0.928 -0.0823 -0.3400 -0.4168
 1216TIP3    H225064   2.570   5.488   1.039  0.9788 -1.5439 -0.7479
 1217TIP3   OH225065   3.861   0.175   2.043 -0.2016 -0.3421  0.4164
 1217TIP3    H125066   3.824   0.089   2.023 -1.3387 -0.1196  1.5104
 1217TIP3    H225067   3.903   0.164   2.129 -0.9814  0.3837  0.8934
 1218TIP3   OH225068   4.638   2.961   3.282  0.1630  0.5664 -0.0420
 1218TIP3    H125069   4.564   3.022   3.273  0.3049  0.5794 -1.1328
 1218TIP3    H225070   4.618   2.889   3.222  1.0366  0.5708 -0.3455
 1219TIP3   OH225071   5.880   5.599  15.059 -0.3039 -0.1165  0.1441
 1219TIP3    H125072   5.857   5.670  15.119 -0.4166  0.7312 -0.8965
 1219TIP3    H225073   5.962   5.628  15.019  0.1636 -1.0247  0.4413
 1220TIP3   OH225074   1.648   1.843  13.415  0.1782  0.4913  0.3457
 1220TIP3    H125075   1.693   1.884  13.341  2.4503 -0.5332  1.1118
 1220TIP3    H225076   1.705   1.861  13.490 -0.3845 -1.3528  1.2323
 1221TIP3   OH225077   1.951   0.940   0.160  0.6243 -0.4038 -0.1959
 1221TIP3    H125078   1.912   1.004   0.221  2.3607 -0.5361  1.0720
 1221TIP3    H225079   2.018   0.990   0.113  2.6030 -1.4883  1.4288
 1222TIP3   OH225080   6.230   1.037   3.873 -0.3929 -0.5063  0.2574
 1222TIP3    H125081   6.203   0.979   3.802  0.2802 -0.0689 -0.3725
 1222TIP3    H225082   6.213   1.125   3.840 -1.4292 -0.3438  1.2163
 1223TIP3   OH225083   4.803   2.209  15.561 -0.6585 -0.1019 -0.1545
 1223TIP3    H125084   4.867   2.181  15.496  0.2129 -1.0898  1.0992
 1223TIP3    H225085   4.856   2.237  15.636 -1.6004  2.2473 -0.3313
 1224TIP3   OH225086   2.107   5.125   4.838  0.4313  0.2244  0.0933
 1224TIP3    H125087   2.136   5.115   4.747 -2.0190  3.0112 -1.0435
 1224TIP3    H225088   2.155   5.200   4.871  1.7925 -1.1603  1.3660
 1225TIP3   OH225089   4.175   3.688  12.881  0.4365  0.5812  0.8204
 1225TIP3    H125090   4.176   3.757  12.947 -0.7965 -1.6426  3.2352
 1225TIP3    H225091   4.259   3.643  12.891  1.1800  1.5551 -0.6624
 1226TIP3   OH225092   1.486   3.980  12.333  0.1761  0.0871 -0.5329
 1226TIP3    H125093   1.578   3.952  12.324 -0.3349 -2.2918  1.0317
 1226TIP3    H225094   1.485   4.034  12.412  0.4774  1.3543 -1.3842
 1227TIP3   OH225095   6.165   1.517  16.156  0.4674 -0.0259 -0.3646
 1227TIP3    H125096   6.123   1.569  16.087  0.3678  3.2171  2.0403
 1227TIP3    H225097   6.097   1.456  16.185 -0.3833  0.4950 -1.2246
 1228TIP3   OH225098   6.760   2.942  11.299  0.0194 -0.7053  0.0428
 1228TIP3    H125099   6.733   2.997  11.226 -0.0945  0.5619  1.0267
 1228TIP3    H225100   6.682   2.892  11.321  0.4599 -2.1795 -1.6409
 1229TIP3   OH225101   4.380   1.022  16.028 -0.2600 -0.0667  0.0982
 1229TIP3    H125102   4.452   0.963  16.008 -0.7653 -0.6753  0.0525
 1229TIP3    H225103   4.422   1.105  16.050  0.4014 -0.1184 -0.9684
 1230TIP3   OH225104   3.051   3.174  12.809  0.7633  0.1524  0.2054
 1230TIP3    H125105   3.065   3.103  12.747  0.7369  0.1328  0.2219
 1230TIP3    H225106   3.016   3.132  12.887 -2.2984  0.5545 -0.9020
 1231TIP3   OH225107   2.774   5.690  16.811  0.5160  0.5887  0.2085
 1231TIP3    H125108   2.700   5.710  16.755  0.1393 -1.5539 -0.0914
 1231TIP3    H225109   2.785   5.595  16.805  2.5324  0.7188  1.1763
 1232TIP3   OH225110   0.931   0.335  16.483  0.4756  0.0172  0.1368
 1232TIP3    H125111   1.015   0.328  16.438 -0.6989  1.6791 -2.4439
 1232TIP3    H225112   0.902   0.244  16.495  2.0037 -0.5231 -0.1725
 1233TIP3   OH225113   1.265   4.546  13.895  0.1419  0.0300 -0.0952
 1233TIP3    H125114   1.348   4.590  13.876  1.3660 -2.2299 -0.0978
 1233TIP3    H225115   1.279   4.505  13.981 -1.1068 -0.0406  0.0836
 1234TIP3   OH225116   6.275   2.641   2.477  0.2582  0.2067  0.6541
 1234TIP3    H125117   6.278   2.548   2.456  0.6194  0.3457  0.0905
 1234TIP3    H225118   6.191   2.652   2.523 -0.2138 -0.2177 -0.1005
 1235TIP3   OH225119   2.495   5.043  15.707  0.2414  0.2534  0.5738
 1235TIP3    H125120   2.552   4.976  15.747  1.5914  1.2406  0.3248
 1235TIP3    H225121   2.469   5.099  15.780  0.7990  0.6737  0.4526
 1236TIP3   OH225122   0.143   6.147  13.699  0.0912  0.5241  0.2742
 1236TIP3    H125123   0.063   6.199  13.693  0.6524  1.1870 -2.1538
 1236TIP3    H225124   0.112   6.057  13.708 -0.8892  1.0799  3.0173
 1237TIP3   OH225125   0.549   4.787   1.710  0.7726  1.3344 -0.4211
 1237TIP3    H125126   0.526   4.775   1.802 -0.6652  0.9209 -0.8289
 1237TIP3    H225127   0.639   4.755   1.704  0.2754 -0.2886  0.4759
 1238TIP3   OH225128   6.616   3.248  10.377  0.6440  0.1552 -0.2784
 1238TIP3    H125129   6.645   3.157  10.372 -2.2624 -0.8382 -0.4950
 1238TIP3    H225130   6.563   3.260  10.298 -1.6192  1.0090  1.2988
 1239TIP3   OH225131   1.078   4.333  14.085 -0.4461 -0.3047  0.1251
 1239TIP3    H125132   1.141   4.274  14.128 -0.0676 -0.3841 -0.5377
 1239TIP3    H225133   0.998   4.282  14.077 -0.7526 -0.0458  1.4135
 1240TIP3   OH225134   1.435   2.686  13.344  0.1335  0.7784 -0.1699
 1240TIP3    H125135   1.452   2.595  13.318 -0.5788 -0.1587  2.4371
 1240TIP3    H225136   1.355   2.710  13.296  0.4113  0.0963 -0.9886
 1241TIP3   OH225137   5.197   6.014  15.411 -0.0168  1.1892 -0.1300
 1241TIP3    H125138   5.279   6.043  15.451  0.6251 -0.7761  0.0513
 1241TIP3    H225139   5.189   5.922  15.436  0.2135 -0.0540 -4.1782
 1242TIP3   OH225140   4.816   0.132   3.118 -0.5107  0.0304 -0.3885
 1242TIP3    H125141   4.806   0.040   3.143  1.4902 -0.3123 -0.7569
 1242TIP3    H225142   4.762   0.180   3.181 -1.7153 -1.4108 -0.3037
 1243TIP3   OH225143   1.692   4.343   4.199 -0.0028  0.4807 -0.3951
 1243TIP3    H125144   1.724   4.258   4.228 -1.1880 -0.4867 -1.8247
 1243TIP3    H225145   1.726   4.405   4.263  1.7412 -0.9391  0.0787
 1244TIP3   OH225146   6.252   6.152  15.736 -0.5286  0.5036 -0.5306
 1244TIP3    H125147   6.337   6.113  15.721 -0.8764 -0.1239 -0.8660
 1244TIP3    H225148   6.256   6.185  15.826 -0.3982 -0.7067 -0.0927
 1245TIP3   OH225149   3.819   5.557   5.304 -0.2091 -0.2294  0.4098
 1245TIP3    H125150   3.732   5.595   5.297  0.4271  1.2113  0.1079
 1245TIP3    H225151   3.822   5.489   5.237 -0.5530  0.8053 -0.6654
 1246TIP3   OH225152   0.199   1.168   4.811 -0.0608  0.2795  0.2748
 1246TIP3    H125153   0.156   1.113   4.745 -0.6745  0.6010  0.3936
 1246TIP3    H225154   0.212   1.252   4.767  0.8822  0.0344  0.0905
 1247TIP3   OH225155   4.552   5.103   3.324  0.8685 -0.1686  0.5699
 1247TIP3    H125156   4.547   5.053   3.406 -1.7581  0.3861  0.7985
 1247TIP3    H225157   4.494   5.055   3.264 -0.5636  1.8109  0.3538
 1248TIP3   OH225158   2.346   6.460  16.395  0.1145 -0.1924 -0.6559
 1248TIP3    H125159   2.406   6.508  16.452  1.8812 -0.5696 -2.1278
 1248TIP3    H225160   2.259   6.474  16.433  1.0187  1.1766  0.9657
 1249TIP3   OH225161   0.169   4.852   3.399  0.0754 -0.5639  0.6176
 1249TIP3    H125162   0.228   4.897   3.338 -0.2543 -2.3546 -1.0337
 1249TIP3    H225163   0.093   4.911   3.407  2.1199  1.9275  3.0189
 1250TIP3   OH225164   1.725   4.216   5.032  0.6027  0.1625 -0.1813
 1250TIP3    H125165   1.709   4.291   4.976  1.7737  1.4226  1.1273
 1250TIP3    H225166   1.696   4.244   5.119 -1.3875 -1.8269 -0.1616
 1251TIP3   OH225167   0.392   4.051   2.059 -0.3924  0.0188 -0.1613
 1251TIP3    H125168   0.364   4.024   2.147  0.9291  1.6400  0.7950
 1251TIP3    H225169   0.365   3.980   2.002 -2.7587 -0.3071  1.3199
 1252TIP3   OH225170   4.283   2.434   3.002  0.0890 -0.5138 -0.0370
 1252TIP3    H125171   4.254   2.347   3.029 -2.2471  0.0000 -0.7707
 1252TIP3    H225172   4.229   2.455   2.926  1.9513  0.8066 -1.0453
 1253TIP3   OH225173   5.172   6.525   5.478 -0.0194  0.4557  0.3840
 1253TIP3    H125174   5.188   6.486   5.392 -1.2761 -0.1607  0.4111
 1253TIP3    H225175   5.153   6.450   5.535  0.6678  0.8737  1.1695
 1254TIP3   OH225176   4.081   4.527   5.019 -0.2423  0.5808  0.3929
 1254TIP3    H125177   4.082   4.525   4.923  1.7188  1.5754  0.3600
 1254TIP3    H225178   4.047   4.614   5.040 -1.0195  0.2243  0.6046
 1255TIP3   OH225179   5.551   1.494   5.907  0.1085  0.5962 -0.9157
 1255TIP3    H125180   5.637   1.531   5.929  0.0064  0.2665  0.0602
 1255TIP3    H225181   5.531   1.435   5.980 -0.8392  0.4899 -1.2558
 1256TIP3   OH225182   2.806   0.668   0.801  0.1756  0.1695  0.1600
 1256TIP3    H125183   2.840   0.592   0.849  0.2596 -0.3060 -0.6479
 1256TIP3    H225184   2.736   0.633   0.746 -0.7757  0.9353  0.8732
 1257TIP3   OH225185   3.652   1.091   2.151  0.3256  0.8714  0.3565
 1257TIP3    H125186   3.636   1.109   2.243 -0.3001  0.8210  0.2644
 1257TIP3    H225187   3.630   1.174   2.107 -2.5250 -0.0582 -0.0676
 1258TIP3   OH225188   4.445   2.018  11.992  0.4429  0.1340 -0.3709
 1258TIP3    H125189   4.437   1.932  11.950  2.2418  0.1360 -0.7682
 1258TIP3    H225190   4.421   2.003  12.083 -1.7747 -0.2404 -0.9916
 1259TIP3   OH225191   4.384   1.294  11.494 -0.1694  0.5512 -0.0977
 1259TIP3    H125192   4.361   1.342  11.574 -0.3642  1.7363 -0.8458
 1259TIP3    H225193   4.321   1.222  11.489  0.7898 -0.4301  1.5994
 1260TIP3   OH225194   6.401   4.022  14.546  0.7910  0.1502  0.4161
 1260TIP3    H125195   6.469   4.080  14.581  0.8455  0.5897 -0.3974
 1260TIP3    H225196   6.341   4.080  14.499 -0.8408 -0.0963  2.1622
 1261TIP3   OH225197   2.184   6.579   0.040 -0.2974  0.0592 -0.0707
 1261TIP3    H125198   2.217   6.666   0.062  0.8139  0.1728 -2.1181
 1261TIP3    H225199   2.182   6.577  -0.056 -2.2913 -1.4333 -0.0336
 1262TIP3   OH225200   2.998   0.515  15.503 -0.1282  0.5622  0.2254
 1262TIP3    H125201   2.958   0.555  15.580  0.9615 -0.9855  1.6511
 1262TIP3    H225202   3.089   0.546  15.505  0.6111 -1.5263  1.1041
 1263TIP3   OH225203   3.730   3.384   5.642  0.3745 -0.6754 -0.7260
 1263TIP3    H125204   3.664   3.316   5.633  0.1114 -0.3014 -1.6155
 1263TIP3    H225205   3.686   3.455   5.688  0.5203 -0.9199 -0.2022
 1264TIP3   OH225206   1.165   6.487  15.612 -0.2468  0.2850 -0.2455
 1264TIP3    H125207   1.186   6.400  15.580  0.3799 -0.2309  1.5088
 1264TIP3    H225208   1.217   6.546  15.558  0.4588 -0.5356 -0.4599
 1265TIP3   OH225209   5.140   4.178  16.347  0.6078  0.1455 -0.2497
 1265TIP3    H125210   5.188   4.105  16.307  0.3104  0.3490 -0.9907
 1265TIP3    H225211   5.166   4.177  16.439 -1.1598 -2.3449  0.2722
 1266TIP3   OH225212   3.284   0.815  14.525 -0.0506 -0.8413 -0.2912
 1266TIP3    H125213   3.225   0.868  14.472  0.2558  0.7822  0.9299
 1266TIP3    H225214   3.231   0.741  14.553 -1.7542  0.8614  1.2224
 1267TIP3   OH225215   4.673   0.331   5.794  0.1455  0.7531  0.2671
 1267TIP3    H125216   4.640   0.297   5.877 -0.8581  2.4551  0.5972
 1267TIP3    H225217   4.628   0.415   5.783  0.6675  0.7970 -1.7390
 1268TIP3   OH225218   5.384   4.266   3.447 -0.5043 -0.1432  0.5304
 1268TIP3    H125219   5.386   4.350   3.401  1.8678 -0.0760  0.6507
 1268TIP3    H225220   5.461   4.220   3.413  0.1696 -0.8817  2.9752
 1269TIP3   OH225221   3.692   0.992  16.401 -0.3171  0.4130 -0.4474
 1269TIP3    H125222   3.766   0.975  16.343  0.0379  0.3304  0.0253
 1269TIP3    H225223   3.680   1.087  16.398  0.3599  0.5227  0.1409
 1270TIP3   OH225224   5.291   0.776   0.817 -0.1189  0.3527  0.1118
 1270TIP3    H125225   5.362   0.714   0.838 -1.5614 -1.3550  0.0672
 1270TIP3    H225226   5.309   0.852   0.873  0.7720 -0.7587  1.3809
 1271TIP3   OH225227   2.980   3.770  12.329  0.0449 -0.4129  0.1192
 1271TIP3    H125228   2.936   3.792  12.411  2.4693  0.8263  1.1544
 1271TIP3    H225229   3.034   3.694  12.349  1.8803  0.8700  0.1265
 1272TIP3   OH225230   4.418   6.252   3.010 -0.4999  0.2260 -0.8406
 1272TIP3    H125231   4.460   6.170   2.986 -0.5286 -0.6490  1.9483
 1272TIP3    H225232   4.471   6.286   3.082 -2.4653  0.9633  0.2896
 1273TIP3   OH225233   0.908   0.391   5.589 -0.0108  0.1929  0.3166
 1273TIP3    H125234   0.847   0.419   5.521  0.8563  1.6142  0.1052
 1273TIP3    H225235   0.994   0.404   5.551  0.4785  0.5608  1.5158
 1274TIP3   OH225236   5.416   4.255   4.502 -0.1611 -0.3559 -0.1495
 1274TIP3    H125237   5.368   4.313   4.561  2.4207  0.2341  1.4234
 1274TIP3    H225238   5.508   4.278   4.514  0.8050 -3.6362 -0.7346
 1275TIP3   OH225239   2.939   4.225   4.410 -0.1970 -0.6264 -0.4179
 1275TIP3    H125240   2.892   4.277   4.475  1.5533 -0.9789  1.1639
 1275TIP3    H225241   2.964   4.145   4.457  0.6854 -1.0839 -1.6521
 1276TIP3   OH225242   6.555   0.462   0.985  0.1562 -0.1017 -0.1212
 1276TIP3    H125243   6.480   0.520   0.997 -0.4836 -0.9457 -0.0271
 1276TIP3    H225244   6.579   0.435   1.073  2.1604  2.1410  0.0732
 1277TIP3   OH225245   1.478   1.543   0.354 -0.2453 -0.0783 -0.4916
 1277TIP3    H125246   1.456   1.560   0.262  2.0297  2.7154 -0.5995
 1277TIP3    H225247   1.572   1.524   0.353  0.2654  2.0634  1.4444
 1278TIP3   OH225248   4.547   3.751   3.771  0.5094 -0.1174  0.3502
 1278TIP3    H125249   4.551   3.667   3.817 -1.8598 -0.2131  0.4682
 1278TIP3    H225250   4.455   3.777   3.778  0.6148  1.0697 -2.1920
 1279TIP3   OH225251   0.488   3.690  15.039 -0.1491 -0.1979  0.0457
 1279TIP3    H125252   0.399   3.701  15.074  0.7892  1.6580  1.9833
 1279TIP3    H225253   0.541   3.667  15.115  1.2119 -0.2641 -0.9130
 1280TIP3   OH225254   1.072   6.003   3.739  0.4063  0.3599  0.2588
 1280TIP3    H125255   0.983   6.018   3.770  0.6082 -0.1244  1.0901
 1280TIP3    H225256   1.064   5.933   3.675  0.4140 -0.9635  1.6719
 1281TIP3   OH225257   3.692   6.741   2.006  0.0269  0.0858 -0.3405
 1281TIP3    H125258   3.673   6.683   1.932 -2.1021 -0.1325  0.3576
 1281TIP3    H225259   3.680   6.686   2.083  0.1515  0.8712  0.2431
 1282TIP3   OH225260   2.141   3.235   1.757  0.1414 -0.0166  0.6566
 1282TIP3    H125261   2.225   3.198   1.785  0.2150  0.0401  0.5152
 1282TIP3    H225262   2.117   3.183   1.680 -0.1505 -0.2951  0.9336
 1283TIP3   OH225263   4.941   3.228  11.799 -0.2991 -0.6921 -0.4730
 1283TIP3    H125264   4.850   3.255  11.814  0.1618 -0.1471  1.5978
 1283TIP3    H225265   4.950   3.146  11.847  0.0079 -1.3177 -1.5902
 1284TIP3   OH225266   3.826   6.176   5.623  0.4633 -0.2169  0.0530
 1284TIP3    H125267   3.762   6.217   5.565 -0.8426 -0.5989  1.2106
 1284TIP3    H225268   3.817   6.082   5.606 -0.4503 -0.3857  1.3853
 1285TIP3   OH225269   4.784   1.154   1.809  0.3888  0.1312 -0.4066
 1285TIP3    H125270   4.845   1.081   1.815 -2.0189 -1.8196  1.4106
 1285TIP3    H225271   4.756   1.170   1.899 -0.2260  2.3689 -0.9500
 1286TIP3   OH225272   6.121   6.574  16.685 -0.4119  0.3176  0.3549
 1286TIP3    H125273   6.150   6.665  16.674 -2.5627  0.9322 -0.5468
 1286TIP3    H225274   6.112   6.563  16.780  0.0291  0.9941  0.4787
 1287TIP3   OH225275   0.567   1.678   5.261  0.3553 -0.0939  0.3656
 1287TIP3    H125276   0.556   1.585   5.242 -0.0785 -0.2532  1.3898
 1287TIP3    H225277   0.662   1.691   5.265  0.4419 -0.2300 -1.0411
 1288TIP3   OH225278   1.155   3.893   2.229  0.4403  0.4327  0.6170
 1288TIP3    H125279   1.109   3.811   2.213  1.6357 -0.1575  0.0718
 1288TIP3    H225280   1.203   3.878   2.311  1.8960 -0.0062 -0.2806
 1289TIP3   OH225281   1.743   6.065   4.994  0.4171 -0.5092 -0.2554
 1289TIP3    H125282   1.806   6.135   5.014  1.1762 -0.9395 -1.1026
 1289TIP3    H225283   1.659   6.099   5.024  0.7702  0.7969 -0.7059
 1290TIP3   OH225284   5.919   1.634  11.684  0.0467  0.5565 -0.4250
 1290TIP3    H125285   5.990   1.572  11.670  0.0861  0.8254 -1.5321
 1290TIP3    H225286   5.952   1.716  11.646 -1.1230  0.4883 -1.6454
 1291TIP3   OH225287   2.436   4.502  14.144  0.0455 -0.0660  0.0602
 1291TIP3    H125288   2.396   4.493  14.058 -0.8584 -0.2529  0.4934
 1291TIP3    H225289   2.397   4.581  14.180  0.5367  0.0971  0.2407
 1292TIP3   OH225290   2.410   2.555   3.996 -0.2238 -0.0174 -0.1789
 1292TIP3    H125291   2.395   2.544   4.090 -2.5684  0.8600 -0.4166
 1292TIP3    H225292   2.465   2.632   3.989 -0.7335  0.4070  0.4493
 1293TIP3   OH225293   1.599   5.078   0.537 -0.3374 -0.3724  0.6990
 1293TIP3    H125294   1.595   5.103   0.629 -0.5844  0.0080  0.5854
 1293TIP3    H225295   1.512   5.097   0.503 -0.5362 -1.4179  0.6145
 1294TIP3   OH225296   3.184   1.441  12.795 -0.2743 -0.2307 -0.3410
 1294TIP3    H125297   3.265   1.447  12.845  1.6211  0.4227 -3.3477
 1294TIP3    H225298   3.156   1.532  12.783 -1.3778 -0.4422  0.5185
 1295TIP3   OH225299   2.813   4.382  15.282 -0.1587  0.2589  0.2682
 1295TIP3    H125300   2.778   4.352  15.198 -0.3753 -1.8511  1.0880
 1295TIP3    H225301   2.745   4.439  15.318 -0.6386  0.1005 -0.3774
 1296TIP3   OH225302   5.565   3.606   5.169  0.9122  0.0859 -0.5568
 1296TIP3    H125303   5.598   3.596   5.258  0.8676  2.2072 -0.2689
 1296TIP3    H225304   5.513   3.527   5.154  2.3247 -1.1068  0.6476
 1297TIP3   OH225305   4.565   6.726   1.074  0.6200 -0.1482  0.5589
 1297TIP3    H125306   4.622   6.677   1.015  0.0890 -0.7695  0.5547
 1297TIP3    H225307   4.585   6.692   1.161  0.9877  0.3600  0.6763
 1298TIP3   OH225308   4.147   3.085  15.942  0.2436  0.3244  0.2765
 1298TIP3    H125309   4.182   2.998  15.925  0.3708  0.8534 -2.4372
 1298TIP3    H225310   4.060   3.070  15.978  1.0458 -0.9378  1.6966
 1299TIP3   OH225311   0.851   5.180   0.192  0.0016 -0.0594 -0.6012
 1299TIP3    H125312   0.772   5.215   0.233  0.2862  1.4200 -1.2875
 1299TIP3    H225313   0.907   5.156   0.265 -0.5551  0.0909 -0.1192
 1300TIP3   OH225314   2.968   0.043  11.597 -0.3911 -0.0422 -0.2091
 1300TIP3    H125315   3.012  -0.032  11.637 -0.2076  0.0586 -0.2206
 1300TIP3    H225316   2.905   0.004  11.536 -0.3310 -0.1882 -0.1787
 1301TIP3   OH225317   0.377   3.861  16.621  0.1057 -0.0425  0.0657
 1301TIP3    H125318   0.315   3.905  16.563  0.0194  0.6036  0.6416
 1301TIP3    H225319   0.448   3.834  16.563  0.0396  0.6449 -0.3444
 1302TIP3   OH225320   2.963   0.514   3.548  0.1157 -0.0663  0.0938
 1302TIP3    H125321   2.932   0.462   3.622 -1.7797  0.5397 -0.2381
 1302TIP3    H225322   3.056   0.494   3.542 -0.1158 -1.6674  1.3830
 1303TIP3   OH225323   5.294   2.769  10.436  0.5115 -0.0379  0.1079
 1303TIP3    H125324   5.340   2.685  10.437  2.4770  1.0196  2.4435
 1303TIP3    H225325   5.224   2.759  10.501  0.4025 -0.0240 -0.0056
 1304TIP3   OH225326   2.437   6.496  14.836  0.7117 -0.7915  0.1821
 1304TIP3    H125327   2.421   6.503  14.930 -0.1925 -2.7533  0.2009
 1304TIP3    H225328   2.490   6.416  14.826 -1.3120 -2.0054 -1.1830
 1305TIP3   OH225329   0.974   2.000   1.245 -0.1479  0.0587 -0.0679
 1305TIP3    H125330   0.975   1.916   1.291  1.9466 -0.0546 -0.2392
 1305TIP3    H225331   0.900   1.995   1.185  0.9080 -2.3457 -1.2426
 1306TIP3   OH225332   0.450   5.945   0.324 -0.3539 -0.2516  0.6198
 1306TIP3    H125333   0.539   5.951   0.361  0.5011  2.0293 -1.7001
 1306TIP3    H225334   0.395   5.991   0.387  0.4551  0.2250  0.9836
 1307TIP3   OH225335   4.298   0.066   4.174 -0.8235 -0.0923 -0.5567
 1307TIP3    H125336   4.364  -0.002   4.183 -0.7394  0.0528 -0.0127
 1307TIP3    H225337   4.348   0.148   4.171 -1.0155  0.1074  1.0022
 1308TIP3   OH225338   0.946   4.540   4.478 -0.0532  0.0154 -0.1235
 1308TIP3    H125339   0.897   4.466   4.441  0.2971 -0.0843 -0.3954
 1308TIP3    H225340   0.899   4.618   4.448 -0.7959 -0.1064  0.6885
 1309TIP3   OH225341   0.024   1.675   5.611 -0.2215  0.4260  0.3126
 1309TIP3    H125342  -0.066   1.647   5.591  0.1152 -0.4819  0.0471
 1309TIP3    H225343   0.014   1.740   5.680 -0.9974 -0.7731  1.3635
 1310TIP3   OH225344   3.353   1.133   2.825  0.3428 -0.6149 -0.6346
 1310TIP3    H125345   3.367   1.228   2.817 -1.0195 -0.5208 -2.3656
 1310TIP3    H225346   3.425   1.094   2.775 -0.8985 -0.3748 -2.6582
 1311TIP3   OH225347   0.593   3.214   6.526  0.1033 -0.1711  0.3065
 1311TIP3    H125348   0.614   3.191   6.435  0.0017  1.5213 -0.1712
 1311TIP3    H225349   0.521   3.156   6.549  0.1449 -0.6380 -0.6978
 1312TIP3   OH225350   6.659   6.114   0.379 -0.5236  0.0025 -0.1507
 1312TIP3    H125351   6.597   6.121   0.307 -0.0011 -0.4844 -0.6526
 1312TIP3    H225352   6.715   6.041   0.355 -0.5572 -0.3755  0.9198
 1313TIP3   OH225353   0.056   3.242  16.992  0.1989  0.1245  0.8202
 1313TIP3    H125354  -0.015   3.303  16.971  0.1869 -0.4112 -0.7957
 1313TIP3    H225355   0.130   3.274  16.941  1.0886  0.5728  2.3615
 1314TIP3   OH225356   1.342   3.826   2.409 -0.5661  0.4426 -0.1457
 1314TIP3    H125357   1.398   3.748   2.414  0.5127  1.1290 -1.1038
 1314TIP3    H225358   1.331   3.853   2.499  1.3261  0.7385  0.0272
 1315TIP3   OH225359   1.419   4.771  13.180  0.2064  0.0363  0.0070
 1315TIP3    H125360   1.447   4.769  13.088 -0.8414  0.7013 -0.3380
 1315TIP3    H225361   1.469   4.842  13.219  0.4112 -0.0354 -0.1243
 1316TIP3   OH225362   2.815   2.953  15.116  0.3048 -0.3282 -0.4758
 1316TIP3    H125363   2.769   2.923  15.037  0.6069 -1.4472 -0.2347
 1316TIP3    H225364   2.892   2.897  15.121  1.1126  0.7923 -0.2480
 1317TIP3   OH225365   2.717   4.296   5.423  0.1802 -0.3414  0.0145
 1317TIP3    H125366   2.635   4.249   5.407  1.2835 -2.3353  0.1045
 1317TIP3    H225367   2.690   4.379   5.462 -1.9292 -0.0340 -1.9623
 1318TIP3   OH225368   1.503   2.203   5.427  0.2152  0.6653 -0.2045
 1318TIP3    H125369   1.409   2.217   5.431 -0.1427 -1.8416  1.4439
 1318TIP3    H225370   1.536   2.236   5.511  0.5267 -0.2226  0.0295
 1319TIP3   OH225371   4.557   4.489   5.189 -0.1521  0.8451  0.2336
 1319TIP3    H125372   4.540   4.450   5.275 -0.5768  1.1831  0.3070
 1319TIP3    H225373   4.582   4.416   5.134 -0.5624  0.5215  0.4699
 1320TIP3   OH225374   3.935   4.966  16.293  0.5898 -0.3527 -0.5571
 1320TIP3    H125375   4.012   4.980  16.237  1.5941 -1.1818  0.5724
 1320TIP3    H225376   3.921   5.051  16.336  1.1290 -0.3072 -0.4693
 1321TIP3   OH225377   1.401   4.977  17.110  0.3627 -0.5107  0.7683
 1321TIP3    H125378   1.444   4.897  17.081  1.0051 -0.0519  0.4542
 1321TIP3    H225379   1.328   4.989  17.049  0.8214 -0.3548  0.2524
 1322TIP3   OH225380   5.052   0.008   1.877  0.2922  0.4251 -0.2775
 1322TIP3    H125381   5.089  -0.051   1.942 -0.2926  1.7766  1.3227
 1322TIP3    H225382   5.003  -0.049   1.817  1.0456 -0.8602  0.3150
 1323TIP3   OH225383   3.947   2.195  14.480 -0.0107 -0.5440  0.0097
 1323TIP3    H125384   3.896   2.119  14.508 -1.2679 -0.1163 -1.0606
 1323TIP3    H225385   3.893   2.270  14.504  0.3290 -0.0666 -0.7078
 1324TIP3   OH225386   5.679   3.705  16.038 -0.2826 -0.4516 -0.4543
 1324TIP3    H125387   5.755   3.675  16.090  0.0019 -2.4806 -1.9573
 1324TIP3    H225388   5.621   3.629  16.036 -1.1928  0.2681 -1.4708
 1325TIP3   OH225389   6.178   4.743   4.225 -0.2592 -0.6856 -0.0616
 1325TIP3    H125390   6.180   4.684   4.301  0.8835  0.5807  0.9276
 1325TIP3    H225391   6.089   4.779   4.225 -0.1791 -0.4588  0.8797
 1326TIP3   OH225392   2.035   0.142  16.568  0.1552 -0.0355 -0.1225
 1326TIP3    H125393   1.978   0.153  16.644  0.0841  1.4775 -0.3681
 1326TIP3    H225394   2.104   0.207  16.580  0.4426 -0.1613 -1.0633
 1327TIP3   OH225395   4.601   0.459   3.830 -0.1608  0.1758  0.0218
 1327TIP3    H125396   4.509   0.442   3.852 -1.0790  2.8217 -1.4798
 1327TIP3    H225397   4.598   0.501   3.744  2.4570  0.3682 -0.0169
 1328TIP3   OH225398   3.687   4.616  16.369  0.2937 -0.3279  0.2935
 1328TIP3    H125399   3.653   4.527  16.355 -0.0479 -0.0595 -0.6255
 1328TIP3    H225400   3.735   4.636  16.289 -0.1290  0.5373  0.2454
 1329TIP3   OH225401   1.040   3.559  15.647 -0.3330  1.1497  0.2160
 1329TIP3    H125402   1.089   3.492  15.695 -0.5581 -1.0236 -2.4579
 1329TIP3    H225403   1.092   3.639  15.656  1.1371  0.0712  1.5111
 1330TIP3   OH225404   2.023   2.207  12.639 -0.1985  0.3510 -0.1003
 1330TIP3    H125405   2.005   2.135  12.699 -0.0793  1.4583  1.3236
 1330TIP3    H225406   2.055   2.277  12.696  1.0435  1.0514 -1.6116
 1331TIP3   OH225407   2.852   1.391   0.363 -0.1051 -0.3188  0.2150
 1331TIP3    H125408   2.792   1.351   0.300 -0.1397  0.2957 -0.1561
 1331TIP3    H225409   2.868   1.324   0.428 -2.9032  0.2258  1.5111
 1332TIP3   OH225410   0.987   1.741  15.986  0.4387  0.2554 -0.9782
 1332TIP3    H125411   0.892   1.746  15.986  0.4183 -0.0672 -0.4327
 1332TIP3    H225412   1.013   1.794  16.061  0.5173 -2.5011  1.0289
 1333TIP3   OH225413   1.884   5.980  16.871 -0.4275 -0.2541  0.0797
 1333TIP3    H125414   1.835   5.982  16.953  0.7951 -1.2021  0.8482
 1333TIP3    H225415   1.942   6.056  16.875 -1.5879  0.6858 -0.6864
 1334TIP3   OH225416   6.113   1.008   1.346 -0.2346  0.4626 -0.1334
 1334TIP3    H125417   6.029   0.962   1.353  0.4330 -0.7714 -0.2332
 1334TIP3    H225418   6.124   1.049   1.432 -0.5850  0.0155  0.1314
 1335TIP3   OH225419   0.192   4.387   3.818 -0.7004  0.0645  0.6934
 1335TIP3    H125420   0.125   4.455   3.811 -1.6318 -0.9832 -1.1011
 1335TIP3    H225421   0.272   4.430   3.787 -1.2172  0.4398 -0.1446
 1336TIP3   OH225422   6.233   0.314   2.616  0.1370  0.1089 -0.0432
 1336TIP3    H125423   6.296   0.287   2.684 -1.0258 -1.4674  0.4529
 1336TIP3    H225424   6.244   0.249   2.546 -1.0951 -0.3331  0.1589
 1337TIP3   OH225425   2.003   5.971  14.587 -0.1133 -0.8760 -0.1005
 1337TIP3    H125426   2.091   5.965  14.624  0.5241 -0.1708 -1.4779
 1337TIP3    H225427   1.989   5.888  14.542  0.6623 -0.2019 -1.6203
 1338TIP3   OH225428   5.646   6.585   1.771 -0.2547 -0.3620  0.1872
 1338TIP3    H125429   5.736   6.561   1.748  0.3466  1.4222  0.5923
 1338TIP3    H225430   5.653   6.621   1.859 -1.1726  0.8625 -0.2237
 1339TIP3   OH225431   3.854   0.505  17.148 -0.2628  0.2019 -0.3307
 1339TIP3    H125432   3.933   0.512  17.202 -0.0641 -0.4390 -0.5383
 1339TIP3    H225433   3.796   0.573  17.183 -0.1802 -0.2833  0.7700
 1340TIP3   OH225434   6.403   4.025   0.636 -0.2164 -0.1264 -0.2896
 1340TIP3    H125435   6.330   3.963   0.628 -1.2074  1.1704 -1.5065
 1340TIP3    H225436   6.372   4.092   0.696  0.6078 -0.4370  0.4971
 1341TIP3   OH225437   3.697   5.323  11.800 -0.2662  0.5107 -0.1348
 1341TIP3    H125438   3.651   5.323  11.716  0.0691  0.7838 -0.3199
 1341TIP3    H225439   3.789   5.308  11.777 -0.1859  0.5068  0.1888
 1342TIP3   OH225440   0.082   0.068   0.634 -0.1153 -0.4082 -0.5945
 1342TIP3    H125441   0.050   0.130   0.700  0.3123  1.2763 -1.9044
 1342TIP3    H225442   0.043   0.099   0.552 -1.8018 -3.3283 -0.9564
 1343TIP3   OH225443   0.975   0.347  14.795  0.0600 -0.0841 -0.0029
 1343TIP3    H125444   1.061   0.373  14.829  0.3825 -0.4644 -0.5190
 1343TIP3    H225445   0.957   0.409  14.724 -1.8116  2.3915  2.5374
 1344TIP3   OH225446   2.360   1.394  12.136 -0.0419 -0.0694 -0.0627
 1344TIP3    H125447   2.445   1.437  12.137 -0.6300  1.1196  0.3380
 1344TIP3    H225448   2.359   1.343  12.055  0.4742  1.0658 -0.7923
 1345TIP3   OH225449   4.245   3.723   2.160  0.0186 -0.0010  0.7737
 1345TIP3    H125450   4.292   3.725   2.243  1.1912 -1.4416  0.1510
 1345TIP3    H225451   4.312   3.741   2.094 -0.6643 -0.1565  0.0359
 1346TIP3   OH225452   3.553   5.176  12.535  0.7372  0.1372 -0.1320
 1346TIP3    H125453   3.580   5.251  12.482  0.1442  0.0297 -0.5920
 1346TIP3    H225454   3.607   5.104  12.503  0.4220  0.0860 -0.5473
 1347TIP3   OH225455   1.191   5.821   3.063 -0.3484 -0.0032  0.1005
 1347TIP3    H125456   1.229   5.905   3.036  1.0406  0.1172  2.2758
 1347TIP3    H225457   1.244   5.755   3.019 -1.3608  0.2335 -1.5119
 1348TIP3   OH225458   6.236   3.239  15.861  0.0679 -0.1495 -0.2422
 1348TIP3    H125459   6.331   3.238  15.873  0.0513  0.2566 -0.0605
 1348TIP3    H225460   6.203   3.171  15.919  0.1957  0.1477  0.1801
 1349TIP3   OH225461   6.515   4.115   4.193 -0.5148  0.2845 -0.4207
 1349TIP3    H125462   6.422   4.135   4.182 -0.6560  0.5677  1.1739
 1349TIP3    H225463   6.518   4.048   4.262  0.3336 -1.3133 -1.9718
 1350TIP3   OH225464   1.693   0.238  14.823 -0.8958 -0.4264 -0.4809
 1350TIP3    H125465   1.775   0.288  14.820 -0.6724 -0.7282  0.3835
 1350TIP3    H225466   1.678   0.211  14.732  0.5021 -1.2117 -0.5040
 1351TIP3   OH225467   4.165   4.746  12.914  0.3327 -0.1097  0.0586
 1351TIP3    H125468   4.187   4.660  12.950 -1.0076 -0.6713 -0.4322
 1351TIP3    H225469   4.119   4.727  12.832  0.3056  1.0839 -0.2173
 1352TIP3   OH225470   1.089   5.444   3.401 -0.2280  0.0459 -0.0619
 1352TIP3    H125471   1.164   5.483   3.356 -0.2076  0.1644  0.0726
 1352TIP3    H225472   1.036   5.406   3.331  0.4338 -0.8664 -0.0760
 1353TIP3   OH225473   1.571   5.571  12.228  0.0501 -0.5039  0.6590
 1353TIP3    H125474   1.622   5.631  12.282 -0.6000 -0.5038  1.2785
 1353TIP3    H225475   1.559   5.493  12.283 -2.3540  0.2866  1.3008
 1354TIP3   OH225476   3.271   3.630   1.125  0.1012  0.8287  0.7029
 1354TIP3    H125477   3.198   3.690   1.110 -0.3354  0.0641 -0.3477
 1354TIP3    H225478   3.292   3.641   1.217 -0.7261  1.7515  0.8012
 1355TIP3   OH225479   0.087   0.225  15.072 -1.4647 -0.2106 -1.0087
 1355TIP3    H125480  -0.004   0.246  15.095 -0.7238  2.5954 -0.5393
 1355TIP3    H225481   0.139   0.291  15.118  0.8233 -1.7114 -1.3881
 1356TIP3   OH225482   3.845   5.889   2.219  0.0375  0.2484  0.6108
 1356TIP3    H125483   3.882   5.824   2.159 -0.4149 -0.0915  0.6939
 1356TIP3    H225484   3.752   5.891   2.198  0.1601  1.3910  0.1357
 1357TIP3   OH225485   6.638   4.840  14.861  0.2858  0.9677 -0.6057
 1357TIP3    H125486   6.642   4.818  14.954  2.2378 -0.4235 -0.9844
 1357TIP3    H225487   6.591   4.765  14.822  0.4591  1.0143 -0.9006
 1358TIP3   OH225488   1.094   0.593   5.088  0.0032  0.3584 -0.4140
 1358TIP3    H125489   1.049   0.508   5.079  1.8080 -0.4571 -1.9641
 1358TIP3    H225490   1.026   0.652   5.119 -1.5735 -1.4080 -0.3926
 1359TIP3   OH225491   0.916   0.850  14.550 -0.2601  0.3895  0.5778
 1359TIP3    H125492   0.876   0.894  14.626  0.0819  1.5375  0.1008
 1359TIP3    H225493   0.890   0.904  14.475 -1.5948 -1.4042 -0.2874
 1360TIP3   OH225494   6.264   4.341  16.404  0.1262 -0.5162 -0.7900
 1360TIP3    H125495   6.279   4.348  16.499 -1.3442 -0.4080 -0.5544
 1360TIP3    H225496   6.223   4.255  16.393 -0.9631  0.0474 -1.1557
 1361TIP3   OH225497   5.531   3.612  13.863  0.1948 -0.4482 -0.6979
 1361TIP3    H125498   5.567   3.652  13.942 -0.6053 -1.2840  0.0955
 1361TIP3    H225499   5.601   3.621  13.798  0.7595  0.4766  0.0170
 1362TIP3   OH225500   2.737   2.160  12.166  0.2719 -0.0184 -0.2441
 1362TIP3    H125501   2.649   2.143  12.197  0.0321  0.9592 -0.3772
 1362TIP3    H225502   2.736   2.252  12.138  1.0068 -0.3158 -1.3166
 1363TIP3   OH225503   2.232   2.058  16.193 -0.2431 -0.1720 -0.4770
 1363TIP3    H125504   2.148   2.097  16.171 -0.1671  1.1820  1.4324
 1363TIP3    H225505   2.212   1.969  16.220 -1.3313  0.6577  1.6114
 1364TIP3   OH225506   2.219   4.327   1.014 -0.3152 -0.0972 -0.4061
 1364TIP3    H125507   2.306   4.358   0.987  0.2711 -0.8701  0.5773
 1364TIP3    H225508   2.216   4.344   1.108 -1.7367  1.1059 -0.6527
 1365TIP3   OH225509   4.344   4.188   3.518  0.1762 -0.4460  0.4427
 1365TIP3    H125510   4.418   4.247   3.534 -1.7003  2.4395 -0.9587
 1365TIP3    H225511   4.380   4.118   3.464  1.9327  0.8698 -0.1515
 1366TIP3   OH225512   1.441   1.250   3.453 -0.1884 -0.2935 -0.0371
 1366TIP3    H125513   1.495   1.194   3.509 -2.4530 -1.3044  1.2315
 1366TIP3    H225514   1.472   1.232   3.364  0.8180 -1.6711  0.5715
 1367TIP3   OH225515   4.871   1.538   3.757 -0.1026  0.1136  0.4613
 1367TIP3    H125516   4.790   1.567   3.800  0.2316  0.8221  0.6155
 1367TIP3    H225517   4.926   1.615   3.756 -0.2032  0.1743 -1.4630
 1368TIP3   OH225518   3.378   2.342  14.925 -0.7335 -0.0709 -0.0884
 1368TIP3    H125519   3.312   2.306  14.985 -0.5470 -1.7140 -0.8483
 1368TIP3    H225520   3.462   2.316  14.964 -0.6182 -1.5173 -1.2714
 1369TIP3   OH225521   3.648   4.019  15.412  0.1186  0.0977  0.9803
 1369TIP3    H125522   3.553   4.027  15.414  0.0210  0.7769 -2.8700
 1369TIP3    H225523   3.680   4.107  15.395  1.2034 -0.6576 -1.1562
 1370TIP3   OH225524   3.195   4.563  11.115  0.5326  0.1609 -0.1586
 1370TIP3    H125525   3.227   4.581  11.203  1.4051 -0.5542 -0.3226
 1370TIP3    H225526   3.103   4.540  11.128  0.3222  1.2964  0.4206
 1371TIP3   OH225527   6.062   2.556   2.076 -0.3185 -0.0116 -0.3697
 1371TIP3    H125528   6.007   2.627   2.109 -0.8626  0.7297 -2.7674
 1371TIP3    H225529   6.027   2.538   1.989  2.1012 -0.7840 -1.2140
 1372TIP3   OH225530   2.818   3.313  17.061  0.4685  0.0126 -0.4521
 1372TIP3    H125531   2.753   3.341  16.997 -0.2632 -0.7257 -0.0437
 1372TIP3    H225532   2.902   3.324  17.017 -0.0236 -0.3902 -1.5042
 1373TIP3   OH225533   3.540   3.829  13.327  0.7713  0.5818  0.4623
 1373TIP3    H125534   3.530   3.897  13.394 -1.0336  2.1152 -1.2903
 1373TIP3    H225535   3.473   3.764  13.348 -0.0212  1.2323 -0.0646
 1374TIP3   OH225536   6.366   1.543  15.224 -0.1036 -0.0595 -0.3323
 1374TIP3    H125537   6.397   1.471  15.169 -0.5709  0.7467 -1.6818
 1374TIP3    H225538   6.272   1.528  15.234  0.1640 -0.8022  1.1750
 1375TIP3   OH225539   1.724   4.134  16.603 -0.3089  0.0820 -0.1546
 1375TIP3    H125540   1.690   4.141  16.514  0.6523  0.6755 -0.4953
 1375TIP3    H225541   1.814   4.166  16.596 -0.0239 -0.4637  0.9129
 1376TIP3   OH225542   6.694   1.554   2.839 -0.1664 -0.3361 -0.0693
 1376TIP3    H125543   6.633   1.582   2.908  0.3318  1.0323 -0.1702
 1376TIP3    H225544   6.685   1.459   2.837  0.0138 -0.4269  2.0727
 1377TIP3   OH225545   6.276   6.692   5.784 -0.4630 -0.3036  0.5983
 1377TIP3    H125546   6.244   6.619   5.837  1.0832 -1.9068 -0.6190
 1377TIP3    H225547   6.369   6.697   5.804 -0.0093 -0.4586 -1.4097
 1378TIP3   OH225548   1.712   0.655   2.373  0.4671 -0.1267  0.1175
 1378TIP3    H125549   1.794   0.692   2.338  0.4573 -0.6340 -0.4570
 1378TIP3    H225550   1.740   0.594   2.440  0.6258 -1.2287 -0.9401
 1379TIP3   OH225551   2.773   1.935  13.242  0.3071 -0.1493  0.0976
 1379TIP3    H125552   2.838   1.936  13.171 -0.0627 -1.1446 -0.2642
 1379TIP3    H225553   2.817   1.978  13.315  0.6832  0.9312 -0.7399
 1380TIP3   OH225554   1.791   4.750  11.303 -0.5090  0.3401 -0.3959
 1380TIP3    H125555   1.767   4.820  11.363  0.1632  0.6907 -0.5348
 1380TIP3    H225556   1.859   4.788  11.247  0.9104 -0.8823  0.4838
 1381TIP3   OH225557   2.352   3.897  11.937 -0.3042  0.8282  0.1526
 1381TIP3    H125558   2.318   3.808  11.944 -0.4321  0.7493 -1.2831
 1381TIP3    H225559   2.447   3.886  11.934 -0.2998  0.7809  0.4239
 1382TIP3   OH225560   0.086   6.174   5.735 -0.3703  0.2522  0.8077
 1382TIP3    H125561   0.082   6.258   5.689 -1.4075  0.4169  1.1769
 1382TIP3    H225562   0.059   6.195   5.824 -2.5067 -0.7830  0.4379
 1383TIP3   OH225563   2.408   3.691  15.135 -0.0750  0.0954  0.4231
 1383TIP3    H125564   2.456   3.635  15.074 -0.7638 -0.2673  0.2048
 1383TIP3    H225565   2.420   3.779  15.100  4.1986  0.5949  2.8946
 1384TIP3   OH225566   6.750   4.694  16.100  0.2868  0.2459 -0.2188
 1384TIP3    H125567   6.795   4.771  16.136  0.1687  0.3638 -0.3270
 1384TIP3    H225568   6.734   4.638  16.176  0.1668  0.4304 -0.1094
 1385TIP3   OH225569   4.400   2.490   6.291 -0.1250  0.0756 -0.0345
 1385TIP3    H125570   4.433   2.576   6.266 -0.2008 -0.5396 -2.3599
 1385TIP3    H225571   4.317   2.508   6.336 -0.4004  1.2051 -0.9708
 1386TIP3   OH225572   1.618   1.289  15.012 -0.1537  0.4018  0.4624
 1386TIP3    H125573   1.612   1.196  14.991 -0.1217  0.2282  1.1977
 1386TIP3    H225574   1.559   1.332  14.950 -0.8608 -0.2052  0.7066
 1387TIP3   OH225575   5.424   2.913   4.022 -0.0245 -0.3507  0.0540
 1387TIP3    H125576   5.372   2.845   3.979 -0.5825 -0.9677  1.6577
 1387TIP3    H225577   5.361   2.981   4.045  0.0955 -0.4858  0.7949
 1388TIP3   OH225578   0.327   5.992  14.757  0.2147 -0.3636  0.1409
 1388TIP3    H125579   0.260   6.053  14.789 -2.2137 -2.5901 -0.5804
 1388TIP3    H225580   0.331   6.008  14.662 -0.8717 -1.7669 -0.1390
 1389TIP3   OH225581   1.036   4.861   5.351  0.4378  0.3884 -0.5806
 1389TIP3    H125582   0.986   4.780   5.360  3.1125 -1.0062  2.5747
 1389TIP3    H225583   0.978   4.929   5.386 -0.9940 -0.4660 -1.2587
 1390TIP3   OH225584   6.209   3.145   5.440 -0.2297 -0.4698  0.1240
 1390TIP3    H125585   6.211   3.233   5.401  0.3325 -0.0682  1.0429
 1390TIP3    H225586   6.259   3.090   5.380 -0.5203 -0.1413 -0.4163
 1391TIP3   OH225587   2.399   3.521   5.379 -0.7414  0.4208 -1.2141
 1391TIP3    H125588   2.486   3.501   5.413 -1.0903  0.9836  0.0341
 1391TIP3    H225589   2.397   3.480   5.292 -0.4611 -2.5517  0.1525
 1392TIP3   OH225590   1.772   3.161  16.866  0.2501 -0.0780 -0.0727
 1392TIP3    H125591   1.709   3.128  16.802 -0.3839 -1.3347  1.1918
 1392TIP3    H225592   1.856   3.127  16.835  0.0540 -0.0040 -0.6956
 1393TIP3   OH225593   4.221   4.021  17.122 -0.4119 -0.9559 -0.1666
 1393TIP3    H125594   4.231   4.115  17.105 -0.9450 -0.4720  2.0659
 1393TIP3    H225595   4.306   3.983  17.101 -0.0228  0.1029 -0.5288
 1394TIP3   OH225596   2.771   5.619   2.987 -0.6594 -0.1964  0.1049
 1394TIP3    H125597   2.828   5.617   2.910 -0.7529 -2.2184  0.0429
 1394TIP3    H225598   2.684   5.635   2.952 -0.0192  4.3829  0.3267
 1395TIP3   OH225599   0.010   1.738  15.412 -0.8181 -0.3269  0.1804
 1395TIP3    H125600  -0.044   1.695  15.346 -0.1891  0.0681 -0.6070
 1395TIP3    H225601  -0.021   1.829  15.412  0.1447  0.0064 -0.6009
 1396TIP3   OH225602   6.327   3.180   2.580  0.0304 -0.0984 -0.3504
 1396TIP3    H125603   6.374   3.242   2.525 -0.6394 -0.2236 -1.0765
 1396TIP3    H225604   6.239   3.177   2.543 -0.4724 -0.0587  0.8410
 1397TIP3   OH225605   1.341   2.662   1.631  0.0974  0.3731 -0.5174
 1397TIP3    H125606   1.263   2.634   1.584  0.9787 -1.8185 -0.7072
 1397TIP3    H225607   1.414   2.621   1.584  1.1499 -0.1042  1.4637
 1398TIP3   OH225608   1.180   0.760   5.762 -0.4333  0.0677  0.0279
 1398TIP3    H125609   1.211   0.679   5.722  0.3431  0.1317  0.4860
 1398TIP3    H225610   1.178   0.824   5.691 -1.4507 -0.4626 -0.4219
 1399TIP3   OH225611   5.542   3.354  15.490 -0.2269 -0.1260 -0.3735
 1399TIP3    H125612   5.483   3.328  15.420 -0.4536  0.8604 -0.5642
 1399TIP3    H225613   5.615   3.292  15.485 -0.8611 -0.8476 -0.6507
 1400TIP3   OH225614   1.371   4.594   4.182 -0.0793 -0.2220 -0.4532
 1400TIP3    H125615   1.352   4.583   4.088 -0.3881 -0.4754 -0.3616
 1400TIP3    H225616   1.288   4.622   4.220  0.2310  0.6199 -0.3720
 1401TIP3   OH225617   0.934   0.290   4.353  0.0726  0.3477  0.1538
 1401TIP3    H125618   0.903   0.296   4.443  0.2285 -0.2235  0.2471
 1401TIP3    H225619   0.937   0.196   4.335  1.5086  0.4013  0.0592
 1402TIP3   OH225620   5.401   1.599  16.188  0.1977 -0.4104  0.1959
 1402TIP3    H125621   5.489   1.561  16.185 -0.3987 -2.1056  2.3947
 1402TIP3    H225622   5.416   1.690  16.215  1.4617  0.2910 -2.6712
 1403TIP3   OH225623   4.951   3.887   0.769 -0.0649 -0.2169  0.6234
 1403TIP3    H125624   4.899   3.967   0.763  0.7458  0.2586 -0.0933
 1403TIP3    H225625   5.041   3.915   0.751  0.1616 -1.3569 -0.0380
 1404TIP3   OH225626   5.743   6.191  14.596 -0.6108  0.5285  0.4310
 1404TIP3    H125627   5.695   6.254  14.543 -0.1522 -0.2110 -0.8917
 1404TIP3    H225628   5.675   6.137  14.637 -0.9397 -0.3722 -1.2540
 1405TIP3   OH225629   5.244   1.437   3.954  0.6283 -0.4024  0.3454
 1405TIP3    H125630   5.303   1.369   3.987  0.3233 -0.9411 -0.2110
 1405TIP3    H225631   5.158   1.412   3.987  0.2829 -1.0719 -1.0440
 1406TIP3   OH225632   2.199   5.789   3.220 -0.3383  0.5568 -0.3677
 1406TIP3    H125633   2.231   5.699   3.229 -1.1603  0.2348 -0.6422
 1406TIP3    H225634   2.114   5.789   3.264 -1.2286  0.7004 -2.0619
 1407TIP3   OH225635   0.547   6.184   1.904  0.1847  0.0396  0.0363
 1407TIP3    H125636   0.495   6.226   1.836 -0.4573 -0.2422  0.3571
 1407TIP3    H225637   0.612   6.250   1.929  0.3421  0.1860 -0.7583
 1408TIP3   OH225638   3.524   2.486  10.872  0.1674  0.2753 -0.1225
 1408TIP3    H125639   3.438   2.446  10.882  1.1546 -1.6195  0.9775
 1408TIP3    H225640   3.524   2.558  10.935  0.6258 -1.9089  2.4929
 1409TIP3   OH225641   3.600   0.021  11.473  0.4554  0.1628 -0.3376
 1409TIP3    H125642   3.511  -0.011  11.479  0.3344  0.8144  2.0559
 1409TIP3    H225643   3.605   0.091  11.538  2.7148  0.1150 -0.3913
 1410TIP3   OH225644   0.034   1.089   1.365  0.0321 -0.0191  0.3306
 1410TIP3    H125645  -0.002   1.141   1.293 -0.4900 -0.2488  0.4250
 1410TIP3    H225646   0.064   1.008   1.324 -2.7640 -1.3283  0.7547
 1411TIP3   OH225647   3.189   5.351  15.887  0.3782  0.9695  0.6926
 1411TIP3    H125648   3.098   5.346  15.915  0.3721 -0.6673  0.4563
 1411TIP3    H225649   3.222   5.262  15.899  1.4204  1.1146 -1.0216
 1412TIP3   OH225650   6.066   3.920  11.669  0.1530 -0.5513  0.5553
 1412TIP3    H125651   6.089   4.012  11.681 -0.5428 -0.2191 -0.5178
 1412TIP3    H225652   5.970   3.920  11.659  0.4856 -0.8956 -3.3604
 1413TIP3   OH225653   4.177   0.273   5.705 -0.7882  0.3516 -0.1843
 1413TIP3    H125654   4.179   0.298   5.797 -0.4870 -3.0484  0.8101
 1413TIP3    H225655   4.269   0.279   5.676 -0.3958 -1.5040  0.6180
 1414TIP3   OH225656   2.662   3.461  16.350 -0.2503 -0.0712 -0.0227
 1414TIP3    H125657   2.717   3.513  16.409 -0.0011 -1.1783  0.7442
 1414TIP3    H225658   2.606   3.409  16.409 -0.1927 -0.9763 -0.7539
 1415TIP3   OH225659   2.639   5.338  13.375  0.5132  0.5670  0.2459
 1415TIP3    H125660   2.643   5.374  13.286 -1.6171  0.5573  0.1221
 1415TIP3    H225661   2.547   5.346  13.400  0.1963 -3.5391  0.7362
 1416TIP3   OH225662   4.843   5.169  16.500 -0.2083 -0.1579  0.0775
 1416TIP3    H125663   4.781   5.220  16.449 -1.3878 -0.7395  0.8998
 1416TIP3    H225664   4.929   5.201  16.473 -0.8454  0.3344 -1.4092
 1417TIP3   OH225665   1.412   5.746   5.843 -0.0089 -0.0574  0.7700
 1417TIP3    H125666   1.372   5.659   5.835 -2.2304  0.6818  3.0820
 1417TIP3    H225667   1.365   5.800   5.779 -0.4212  0.0078  1.1191
 1418TIP3   OH225668   6.138   6.000  11.914 -0.0439 -0.0206 -0.4600
 1418TIP3    H125669   6.187   6.083  11.909 -1.3311  0.7254 -1.1471
 1418TIP3    H225670   6.092   5.995  11.830 -0.3129 -1.2237 -0.2466
 1419TIP3   OH225671   2.780   4.979   3.083  0.3606 -0.2569  0.6080
 1419TIP3    H125672   2.693   5.010   3.107 -0.2065  0.0968 -1.7995
 1419TIP3    H225673   2.768   4.937   2.998  2.1821 -2.0149  1.1813
 1420TIP3   OH225674   3.308   0.570   0.156 -1.0835 -0.0807  0.0442
 1420TIP3    H125675   3.248   0.580   0.230 -1.1100  0.6999 -0.0789
 1420TIP3    H225676   3.385   0.620   0.181 -0.3893 -1.2381  0.2850
 1421TIP3   OH225677   2.931   3.882   0.083  0.4513  0.3607 -0.3622
 1421TIP3    H125678   2.993   3.823   0.127  1.0087  1.6106  0.5503
 1421TIP3    H225679   2.895   3.829   0.011  0.6047 -1.2477  0.7052
 1422TIP3   OH225680   5.758   2.577   4.647 -0.2747  0.6027 -0.1739
 1422TIP3    H125681   5.836   2.618   4.610  1.1628 -0.2526  1.7910
 1422TIP3    H225682   5.737   2.505   4.587 -0.8090  2.1050 -1.8137
 1423TIP3   OH225683   2.461   0.485  16.001 -0.4320  0.3149  0.1360
 1423TIP3    H125684   2.519   0.429  16.051  0.7187  1.4607  0.1179
 1423TIP3    H225685   2.381   0.490  16.053 -0.0450 -0.2445  0.7913
 1424TIP3   OH225686   6.686   1.241   4.654 -0.0857 -0.5913  0.3849
 1424TIP3    H125687   6.744   1.295   4.600 -0.5175  0.2326  0.7376
 1424TIP3    H225688   6.735   1.159   4.666 -0.8176 -1.5985 -2.9090
 1425TIP3   OH225689   3.109   5.962   5.435 -0.0783 -0.4857 -0.0699
 1425TIP3    H125690   3.169   6.032   5.461  0.5233 -1.3307  0.8477
 1425TIP3    H225691   3.091   5.915   5.516 -3.0020  0.5111 -0.0933
 1426TIP3   OH225692   4.517   5.365  14.556  0.1697  0.5644 -0.2889
 1426TIP3    H125693   4.445   5.305  14.541  1.1495 -0.5022 -0.8210
 1426TIP3    H225694   4.571   5.322  14.623  1.5065  0.2556 -1.5253
 1427TIP3   OH225695   0.062   4.837  12.507  0.0251  0.5379 -0.6288
 1427TIP3    H125696   0.135   4.776  12.506 -0.1115  0.3856 -1.2812
 1427TIP3    H225697   0.070   4.883  12.591  0.2024 -0.2816 -0.1982
 1428TIP3   OH225698   2.630   2.339  16.141 -0.2290 -0.7119  0.2702
 1428TIP3    H125699   2.709   2.289  16.120  0.8075  0.2290  1.8543
 1428TIP3    H225700   2.655   2.431  16.125 -0.6337 -0.3165  1.8523
 1429TIP3   OH225701   1.379   2.655   2.395  0.2032  0.0459  0.1079
 1429TIP3    H125702   1.363   2.747   2.375 -0.1739 -0.7343 -3.5175
 1429TIP3    H225703   1.430   2.657   2.476  2.0897  3.5611 -1.0176
 1430TIP3   OH225704   3.608   5.840  12.129 -0.1321 -0.4986  0.1322
 1430TIP3    H125705   3.611   5.802  12.041 -2.3195 -2.8399  0.9868
 1430TIP3    H225706   3.670   5.788  12.180  0.5134  0.3116  0.1839
 1431TIP3   OH225707   3.560   6.182  17.021  1.0208  0.0248 -0.3712
 1431TIP3    H125708   3.607   6.136  17.090 -0.0535  0.9710  1.0392
 1431TIP3    H225709   3.614   6.260  17.003  0.2788  0.8499  0.8898
 1432TIP3   OH225710   1.700   2.939   1.324 -0.0272 -0.0515  0.4103
 1432TIP3    H125711   1.683   2.936   1.418 -0.4341 -0.4577  0.3236
 1432TIP3    H225712   1.616   2.917   1.283 -0.1229  1.1832 -0.0676
 1433TIP3   OH225713   0.838   1.706   5.297 -0.2288  0.1961  0.4138
 1433TIP3    H125714   0.892   1.687   5.221  0.7418 -0.0291  1.1544
 1433TIP3    H225715   0.900   1.733   5.365 -0.9963 -0.5016  1.4051
 1434TIP3   OH225716   3.645   0.948  12.889 -0.6298  0.3330  0.0195
 1434TIP3    H125717   3.724   0.991  12.922 -1.1262  1.7932 -0.6257
 1434TIP3    H225718   3.657   0.943  12.794 -1.5652  1.1270 -0.1534
 1435TIP3   OH225719   1.332   1.302  12.362  0.2518 -0.6924  0.0275
 1435TIP3    H125720   1.385   1.271  12.289 -0.0711 -0.3258 -0.3682
 1435TIP3    H225721   1.336   1.397  12.356  1.3373 -0.6413  1.2984
 1436TIP3   OH225722   5.097   0.941  12.864  0.8001  0.0727  0.0894
 1436TIP3    H125723   5.132   0.953  12.953 -1.6668 -0.2481  1.1515
 1436TIP3    H225724   5.111   1.025  12.821  2.7603 -0.0109  0.4816
 1437TIP3   OH225725   6.205   0.897   4.102 -0.5930  0.7906  0.0422
 1437TIP3    H125726   6.213   0.952   4.024  0.4999 -0.1412 -0.5223
 1437TIP3    H225727   6.271   0.932   4.163  0.0421  0.1913 -0.2838
 1438TIP3   OH225728   5.421   4.709  15.193 -0.3905  0.2084 -0.1924
 1438TIP3    H125729   5.479   4.782  15.215 -0.4077  0.0993  0.2181
 1438TIP3    H225730   5.335   4.736  15.226 -0.8609  0.9409 -1.9592
 1439TIP3   OH225731   3.196   4.247  11.068 -0.5185 -0.3434 -0.4043
 1439TIP3    H125732   3.127   4.204  11.118 -0.4171  0.6646  0.6220
 1439TIP3    H225733   3.199   4.336  11.103  0.6936 -0.1189 -1.0547
 1440TIP3   OH225734   3.047   6.651   5.249 -0.6086  0.7000  0.3515
 1440TIP3    H125735   2.999   6.635   5.167  0.8233 -2.0306  0.0003
 1440TIP3    H225736   2.993   6.611   5.317  0.4386 -1.1749  0.1212
 1441TIP3   OH225737   1.560   0.878  14.151 -0.4065 -0.4593 -0.0724
 1441TIP3    H125738   1.471   0.890  14.183 -0.7372 -2.0231 -0.3459
 1441TIP3    H225739   1.561   0.923  14.067 -1.1986 -1.1242 -0.4510
 1442TIP3   OH225740   3.212   6.518  15.079 -0.6223 -0.4414 -0.4791
 1442TIP3    H125741   3.211   6.567  15.161  0.8886 -0.6612 -0.3137
 1442TIP3    H225742   3.169   6.434  15.101 -2.2698  0.3681 -0.5064
 1443TIP3   OH225743   1.007   1.494  12.882 -0.4955  0.2749  0.2256
 1443TIP3    H125744   1.005   1.462  12.972  0.5301  0.7449  0.4175
 1443TIP3    H225745   1.098   1.483  12.854 -0.3777  1.9249 -0.0849
 1444TIP3   OH225746   2.948   1.112  14.967  0.1705 -0.1757 -0.4086
 1444TIP3    H125747   3.029   1.154  14.996  1.2694 -3.2082  1.1163
 1444TIP3    H225748   2.909   1.076  15.046 -2.0911  0.2008 -1.3068
 1445TIP3   OH225749   1.219   0.184   3.125 -0.2517  0.1584 -0.1943
 1445TIP3    H125750   1.160   0.218   3.192 -1.1625  0.8421 -1.3351
 1445TIP3    H225751   1.278   0.126   3.173  0.6220  2.4652  1.5782
 1446TIP3   OH225752   1.161   3.465   6.334  0.2422 -0.3601  0.0276
 1446TIP3    H125753   1.219   3.483   6.259  0.5579  2.4103  0.8915
 1446TIP3    H225754   1.074   3.457   6.295  0.7670 -1.5491 -0.9298
 1447TIP3   OH225755   2.797   4.692  16.274  0.2206  0.4993 -0.3289
 1447TIP3    H125756   2.877   4.742  16.260  0.4413 -0.1634 -1.4625
 1447TIP3    H225757   2.799   4.623  16.207 -0.8806 -0.0256  0.1613
 1448TIP3   OH225758   4.098   3.934  15.721  0.4472  1.2877  0.7510
 1448TIP3    H125759   4.036   3.966  15.787  0.5509  0.3906  1.2945
 1448TIP3    H225760   4.104   4.004  15.657 -2.2276  0.8015 -0.0597
 1449TIP3   OH225761   3.648   2.384  16.728 -0.1861 -0.4322  0.2216
 1449TIP3    H125762   3.585   2.448  16.694 -1.9955 -1.7802  0.9513
 1449TIP3    H225763   3.602   2.342  16.800  2.3217 -0.0851  2.0550
 1450TIP3   OH225764   6.104   2.287   2.032 -0.2102 -0.3024  0.2130
 1450TIP3    H125765   6.167   2.240   2.087 -0.9222 -0.5769  0.8157
 1450TIP3    H225766   6.119   2.379   2.052  0.1232 -0.3565  0.2187
 1451TIP3   OH225767   5.501   1.007   1.942 -0.3792 -0.3859  0.2755
 1451TIP3    H125768   5.501   1.058   2.022 -3.0423  1.8320 -1.0676
 1451TIP3    H225769   5.455   1.062   1.878 -2.7600 -4.1171 -1.4097
 1452TIP3   OH225770   6.632   2.007   3.525  0.7472 -0.1610  0.0541
 1452TIP3    H125771   6.570   1.934   3.520 -0.2614  0.6103  1.0661
 1452TIP3    H225772   6.620   2.043   3.613  1.0113  1.4155 -0.5371
 1453TIP3   OH225773   3.100   1.203   1.776 -0.2914 -0.1065 -0.3184
 1453TIP3    H125774   3.073   1.198   1.868 -0.3771 -2.7991 -0.4510
 1453TIP3    H225775   3.044   1.140   1.731 -0.0214  0.9470 -2.1797
 1454TIP3   OH225776   5.470   6.683   4.094 -0.6882 -0.3766 -0.5091
 1454TIP3    H125777   5.537   6.705   4.029 -1.2458  0.2188 -0.8838
 1454TIP3    H225778   5.440   6.768   4.126 -0.9258 -0.6588  0.0060
 1455TIP3   OH225779   5.125   1.229  13.997 -0.0336 -0.0397 -0.0666
 1455TIP3    H125780   5.080   1.159  14.044  0.1423 -0.2006 -0.1383
 1455TIP3    H225781   5.082   1.232  13.912  0.5808 -0.6797 -0.3918
 1456TIP3   OH225782   0.264   5.262  15.559  0.0691 -0.6077  0.0672
 1456TIP3    H125783   0.172   5.266  15.588 -0.6082 -0.8369 -1.9564
 1456TIP3    H225784   0.282   5.169  15.549  0.0438 -0.5172 -0.9253
 1457TIP3   OH225785   3.619   2.219   4.287  0.7316  0.1504 -0.4507
 1457TIP3    H125786   3.636   2.313   4.294  1.0609  0.1478 -1.2015
 1457TIP3    H225787   3.575   2.209   4.202  0.9811 -0.4096 -0.5158
 1458TIP3   OH225788   6.057   5.122   3.183 -0.4871 -0.3921 -0.2060
 1458TIP3    H125789   6.101   5.139   3.266 -1.3563 -1.4437  0.4870
 1458TIP3    H225790   5.964   5.120   3.206 -0.6168 -2.5777 -0.8578
 1459TIP3   OH225791   3.007   1.480  10.883 -0.0389 -0.1450  0.0654
 1459TIP3    H125792   3.000   1.571  10.852  4.4130 -0.2341 -1.6492
 1459TIP3    H225793   2.955   1.430  10.820 -0.4163  0.9249 -0.4976
 1460TIP3   OH225794   6.125   4.592   0.247  0.1351 -0.0879  1.0193
 1460TIP3    H125795   6.103   4.685   0.254  0.9962  0.1779  0.3833
 1460TIP3    H225796   6.165   4.570   0.331 -0.9739 -0.1393  1.5366
 1461TIP3   OH225797   1.375   1.124   0.899 -0.0910 -0.0306  0.0384
 1461TIP3    H125798   1.338   1.195   0.952  0.1342 -0.2316  0.4692
 1461TIP3    H225799   1.447   1.089   0.953 -2.4081 -2.8860  1.4270
 1462TIP3   OH225800   1.198   5.690  11.765 -0.0936  0.0595 -0.5635
 1462TIP3    H125801   1.288   5.661  11.778 -0.2072 -0.4387 -0.8729
 1462TIP3    H225802   1.188   5.698  11.670 -0.6731 -0.8654 -0.5939
 1463TIP3   OH225803   2.991   6.074  13.400 -0.1107 -0.1080 -0.1447
 1463TIP3    H125804   3.078   6.034  13.411  0.4143  0.3957 -2.3528
 1463TIP3    H225805   2.939   6.006  13.357 -0.8146 -0.3904  1.1347
 1464TIP3   OH225806   1.385   1.040  16.606 -0.2155  0.5787 -0.0837
 1464TIP3    H125807   1.329   1.076  16.538  0.5563  0.8979 -0.5486
 1464TIP3    H225808   1.446   1.110  16.628  0.8665 -0.1921 -0.5297
 1465TIP3   OH225809   4.099   6.783  10.634 -0.3155  0.2229 -0.0394
 1465TIP3    H125810   4.137   6.697  10.649  0.8782  0.6086 -0.7913
 1465TIP3    H225811   4.100   6.826  10.720  1.2675  0.3498 -0.1061
 1466TIP3   OH225812   5.072   0.370   0.781 -0.7527  0.5557 -0.5024
 1466TIP3    H125813   5.160   0.378   0.817 -0.8177 -0.6077 -0.0592
 1466TIP3    H225814   5.069   0.282   0.745 -1.7689  0.5544 -0.4256
 1467TIP3   OH225815   3.335   3.682  13.430 -0.0273 -0.6458  0.0871
 1467TIP3    H125816   3.261   3.621  13.416 -0.2042 -0.1543 -1.1432
 1467TIP3    H225817   3.376   3.651  13.511 -1.4336 -1.0824  0.6481
 1468TIP3   OH225818   2.899   2.653   2.030 -0.5374  0.1745 -0.1912
 1468TIP3    H125819   2.816   2.623   1.994 -0.1960 -0.0268 -0.8120
 1468TIP3    H225820   2.946   2.689   1.955  0.0662 -0.0047  0.0991
 1469TIP3   OH225821   5.745   0.796  17.222 -0.1528 -0.6054  0.4609
 1469TIP3    H125822   5.793   0.810  17.141  0.9126 -1.6929  0.8940
 1469TIP3    H225823   5.799   0.836  17.290  0.1574 -1.8318  0.9456
 1470TIP3   OH225824   2.028   0.153  15.066  0.1771  0.7785  0.1938
 1470TIP3    H125825   2.046   0.161  14.973 -0.5410  0.8365  0.0634
 1470TIP3    H225826   2.108   0.114  15.102 -0.6649 -2.1250 -0.9274
 1471TIP3   OH225827   3.173   4.152   3.781  0.0168  0.8210 -0.3852
 1471TIP3    H125828   3.141   4.149   3.691 -0.6089 -0.6540 -0.1355
 1471TIP3    H225829   3.215   4.066   3.794  2.3229  1.9605 -0.0735
 1472TIP3   OH225830   2.606   2.796  13.392  0.3731 -0.1382  0.3465
 1472TIP3    H125831   2.588   2.867  13.453  1.5347 -0.8302  1.5165
 1472TIP3    H225832   2.541   2.807  13.323  1.8371  3.3282 -0.5811
 1473TIP3   OH225833   3.889   2.549   0.857  0.9261 -0.1448 -0.1253
 1473TIP3    H125834   3.924   2.634   0.833  1.1623 -0.1929  0.0533
 1473TIP3    H225835   3.848   2.562   0.943  2.4887 -0.6143  0.7121
 1474TIP3   OH225836   0.285   3.507  14.168  0.2365  0.1413  0.0696
 1474TIP3    H125837   0.343   3.565  14.119  1.3736 -3.2293 -2.8528
 1474TIP3    H225838   0.198   3.545  14.156  0.9035  1.1227 -1.9840
 1475TIP3   OH225839   0.814   2.842  17.018  0.0559 -0.0152  0.0762
 1475TIP3    H125840   0.893   2.836  16.963  1.5113 -1.5999  2.2519
 1475TIP3    H225841   0.805   2.936  17.035  1.8817  0.1333  0.3685
 1476TIP3   OH225842   5.810   2.506  16.439 -0.5399  0.2591 -0.3871
 1476TIP3    H125843   5.728   2.473  16.403 -1.3562  1.2568  0.5463
 1476TIP3    H225844   5.829   2.448  16.513 -1.1122  0.8620  0.2332
 1477TIP3   OH225845   2.436   5.302   4.812  0.1349  0.0431  0.0252
 1477TIP3    H125846   2.494   5.324   4.885  0.5957 -1.2490  0.0737
 1477TIP3    H225847   2.366   5.367   4.816  1.8302  1.9531 -0.3507
 1478TIP3   OH225848   5.999   1.427  12.696  0.8277 -0.5206 -0.5161
 1478TIP3    H125849   5.974   1.495  12.633  1.5617  0.3702  0.1460
 1478TIP3    H225850   5.923   1.417  12.753 -0.2820 -2.1441 -2.2131
 1479TIP3   OH225851   3.099   0.411  13.088 -0.4182  0.2296 -0.2165
 1479TIP3    H125852   3.169   0.451  13.037  0.4090 -0.1788  0.5876
 1479TIP3    H225853   3.042   0.483  13.112 -0.7886  0.4362 -1.6710
 1480TIP3   OH225854   6.724   4.406  11.919 -0.1842  0.1278 -0.4639
 1480TIP3    H125855   6.673   4.363  11.851  1.3012  0.2958 -1.7180
 1480TIP3    H225856   6.792   4.343  11.941 -2.2703 -1.0553  2.8917
 1481TIP3   OH225857   3.980   6.596   3.537 -0.3158 -0.5095 -0.0099
 1481TIP3    H125858   3.888   6.624   3.539 -0.0574  0.3804 -0.5222
 1481TIP3    H225859   4.029   6.677   3.527  0.6148 -0.8244  1.7809
 1482TIP3   OH225860   6.139   2.121  16.215  0.2799  0.2411 -0.3979
 1482TIP3    H125861   6.120   2.214  16.223 -0.4004  0.0160  0.8042
 1482TIP3    H225862   6.226   2.117  16.176  1.5226  1.4277  2.1325
 1483TIP3   OH225863   5.144   5.146  11.484 -0.3707  0.5853 -0.7343
 1483TIP3    H125864   5.129   5.063  11.440  0.0493 -0.2744  0.7324
 1483TIP3    H225865   5.223   5.182  11.442  1.5512 -1.4403  1.0167
 1484TIP3   OH225866   2.580   6.405  14.483 -0.0877  0.3387  0.3333
 1484TIP3    H125867   2.514   6.473  14.496 -1.2066 -0.5426 -0.6763
 1484TIP3    H225868   2.561   6.339  14.549 -1.8143 -1.1088 -1.5575
 1485TIP3   OH225869   6.006   0.367   6.665  0.2999 -0.2759  0.2019
 1485TIP3    H125870   5.969   0.448   6.701 -0.6482 -0.2363 -0.8528
 1485TIP3    H225871   6.091   0.393   6.631 -0.0437  0.2991 -0.2273
 1486TIP3   OH225872   0.206   3.242  14.350  0.1253 -0.4491 -0.2106
 1486TIP3    H125873   0.213   3.326  14.395  0.1243 -1.2132  1.2234
 1486TIP3    H225874   0.149   3.260  14.275 -0.9420  0.5309  0.8197
 1487TIP3   OH225875   1.482   2.111  12.450  0.4882  0.0800  0.1436
 1487TIP3    H125876   1.558   2.168  12.439  0.9548 -0.8339 -1.5418
 1487TIP3    H225877   1.508   2.048  12.517  0.3843  1.1396  1.1896
 1488TIP3   OH225878   1.269   3.506   4.323 -0.1074 -0.6612 -0.3835
 1488TIP3    H125879   1.307   3.494   4.236 -1.0957 -2.3886 -0.6067
 1488TIP3    H225880   1.190   3.558   4.308  0.3632  0.0717 -0.3498
 1489TIP3   OH225881   1.095   4.059   0.676  0.8431  0.0521  0.3619
 1489TIP3    H125882   1.079   4.078   0.768 -1.8944  0.0204 -0.0748
 1489TIP3    H225883   1.081   3.965   0.667  1.8851 -0.0841  0.0473
 1490TIP3   OH225884   0.552   5.737  16.703 -0.3830  0.0720 -0.7539
 1490TIP3    H125885   0.529   5.740  16.795  0.4091  0.2993 -0.5570
 1490TIP3    H225886   0.520   5.652  16.672  1.4223 -1.0413  0.3060
 1491TIP3   OH225887   0.707   1.656  13.995  1.1526 -0.0470  0.0929
 1491TIP3    H125888   0.739   1.627  13.909  0.6549 -0.1078 -0.0767
 1491TIP3    H225889   0.612   1.655  13.986  1.0484 -1.7160  1.1961
 1492TIP3   OH225890   1.056   3.087  16.611 -0.2587  0.0164  0.2639
 1492TIP3    H125891   1.006   3.006  16.604  1.5991 -1.0380 -1.3676
 1492TIP3    H225892   1.026   3.141  16.538  0.6010 -0.4207 -0.4242
 1493TIP3   OH225893   0.344   2.060   0.666 -0.1832  0.3433  0.1170
 1493TIP3    H125894   0.291   2.134   0.635  1.2214  1.0640 -0.5911
 1493TIP3    H225895   0.357   2.076   0.759  0.4561  1.2063 -0.1161
 1494TIP3   OH225896   2.610   1.086   0.722 -0.0011 -0.6195  0.1111
 1494TIP3    H125897   2.595   1.121   0.810 -0.0309 -1.3278  0.3859
 1494TIP3    H225898   2.548   1.134   0.666 -1.0348 -1.2531  0.7143
 1495TIP3   OH225899   5.366   6.765  12.275 -0.3058  0.1664  0.2990
 1495TIP3    H125900   5.315   6.832  12.229 -0.6765 -0.1905  0.1871
 1495TIP3    H225901   5.312   6.741  12.350  0.0321  0.3207  0.5905
 1496TIP3   OH225902   3.548   2.738  13.771  0.0515 -0.3002  0.2797
 1496TIP3    H125903   3.624   2.721  13.827 -0.5822 -0.9198  0.9633
 1496TIP3    H225904   3.474   2.700  13.819 -0.8838  1.3786  0.2039
 1497TIP3   OH225905   3.868   5.863  11.221 -0.0429  0.0661  0.8181
 1497TIP3    H125906   3.848   5.800  11.290  1.0306 -0.5108  0.6078
 1497TIP3    H225907   3.964   5.868  11.219 -0.0597  0.0893 -0.6113
 1498TIP3   OH225908   1.140   3.253   4.290 -0.3281  0.5120  0.0913
 1498TIP3    H125909   1.188   3.186   4.241 -0.4959 -1.3901  2.3962
 1498TIP3    H225910   1.199   3.328   4.293  1.2039 -0.6610  0.1326
 1499TIP3   OH225911   3.579   0.216   2.129 -0.1081  0.1947 -0.2317
 1499TIP3    H125912   3.664   0.231   2.169 -0.5841  0.4366  0.7063
 1499TIP3    H225913   3.596   0.155   2.057  0.9261  0.6487 -0.3729
 1500TIP3   OH225914   2.420   5.805  15.419 -0.1252  0.6080  0.6604
 1500TIP3    H125915   2.449   5.775  15.505 -1.0321 -1.3479  0.3135
 1500TIP3    H225916   2.391   5.726  15.374 -0.1620  1.6679 -1.2697
 1501TIP3   OH225917   6.563   6.715  13.077 -0.4795 -0.0056 -0.1501
 1501TIP3    H125918   6.570   6.742  13.169 -1.1963  1.7884 -0.5986
 1501TIP3    H225919   6.638   6.756  13.035 -1.3319  0.9512 -0.7588
 1502TIP3   OH225920   1.297   2.773  16.323  0.0647  0.1672  0.2201
 1502TIP3    H125921   1.339   2.778  16.237 -1.8512 -0.0473 -0.7757
 1502TIP3    H225922   1.320   2.687  16.356  1.1386  0.4012  0.0871
 1503TIP3   OH225923   2.801   2.671   4.064  0.3758  0.3098  0.4622
 1503TIP3    H125924   2.763   2.621   3.991 -1.7840  1.5163  0.7067
 1503TIP3    H225925   2.737   2.664   4.134 -0.2012  3.7195  0.3583
 1504TIP3   OH225926   0.755   0.910   3.992 -0.1689 -0.3346 -0.1388
 1504TIP3    H125927   0.769   0.818   4.013  1.0278 -0.0094  0.5334
 1504TIP3    H225928   0.841   0.942   3.965 -0.6426  0.5078 -0.6708
 1505TIP3   OH225929   1.435   4.055   5.641  0.3566 -0.7982  1.0698
 1505TIP3    H125930   1.417   4.081   5.731  0.6208 -0.0112  0.9015
 1505TIP3    H225931   1.462   3.963   5.647  0.0222 -0.8502  1.7504
 1506TIP3   OH225932   3.543   1.627  14.950  0.6317  0.0787 -0.3857
 1506TIP3    H125933   3.586   1.655  15.031  1.4373 -1.6905 -0.1852
 1506TIP3    H225934   3.465   1.682  14.944  0.8557  0.6081  1.2922
 1507TIP3   OH225935   3.130   1.986   5.650 -0.2371 -0.0220 -0.0977
 1507TIP3    H125936   3.170   1.932   5.718 -0.5642  1.6472  1.4769
 1507TIP3    H225937   3.091   2.059   5.698 -3.6202 -0.6551 -1.7307
 1508TIP3   OH225938   0.204   0.720  16.245  0.1968  0.0037  0.5660
 1508TIP3    H125939   0.213   0.815  16.240  2.4466 -0.2025 -0.1244
 1508TIP3    H225940   0.294   0.687  16.233 -0.8939 -2.2833 -1.6455
 1509TIP3   OH225941   0.514   1.892   4.338  0.2947 -0.8596  0.4011
 1509TIP3    H125942   0.534   1.815   4.286 -0.3354 -1.5767  1.1994
 1509TIP3    H225943   0.443   1.864   4.396 -0.1921  0.4185  0.4531
 1510TIP3   OH225944   0.362   1.421   0.099  0.0410  0.6446  0.0958
 1510TIP3    H125945   0.395   1.478   0.168  0.8604  1.4951 -0.9864
 1510TIP3    H225946   0.267   1.418   0.113  0.3798 -0.5759  2.2872
 1511TIP3   OH225947   4.021   0.294  11.463  0.1296  0.0757  0.1887
 1511TIP3    H125948   3.951   0.345  11.424 -0.7106 -0.6079  0.7784
 1511TIP3    H225949   4.050   0.345  11.539 -0.5484 -0.1946  0.6390
 1512TIP3   OH225950   6.724   4.957  10.307  0.0100 -0.2893  0.0734
 1512TIP3    H125951   6.720   4.865  10.281 -1.0200  0.1058 -1.2474
 1512TIP3    H225952   6.815   4.982  10.292  0.4672 -1.2848  1.1390
 1513TIP3   OH225953   6.367   6.687  16.351 -0.3161  0.7034 -0.4613
 1513TIP3    H125954   6.406   6.771  16.377 -2.4031  1.3530  0.6516
 1513TIP3    H225955   6.288   6.710  16.304 -0.5050 -0.6332 -0.8242
 1514TIP3   OH225956   1.963   0.316  16.152  0.1369 -0.1023  0.2554
 1514TIP3    H125957   1.950   0.232  16.196 -0.9930  0.0146  0.1490
 1514TIP3    H225958   1.897   0.318  16.083  1.4055  0.0409 -0.9959
 1515TIP3   OH225959   0.031   0.766   6.423 -0.3904 -0.4918 -0.3554
 1515TIP3    H125960  -0.040   0.711   6.457  0.5908 -1.7816 -0.3713
 1515TIP3    H225961   0.111   0.731   6.462  0.4044  0.0489 -1.4502
 1516TIP3   OH225962   6.531   1.492  16.672 -0.6174 -0.8177 -0.1804
 1516TIP3    H125963   6.586   1.422  16.635 -0.5296 -1.1512  0.5647
 1516TIP3    H225964   6.590   1.539  16.732 -0.0028  1.3622 -2.4103
 1517TIP3   OH225965   0.332   5.583   4.976  0.6197  0.1441  0.7825
 1517TIP3    H125966   0.392   5.654   4.953  1.4833 -0.3903  1.3789
 1517TIP3    H225967   0.246   5.617   4.953  1.3791 -0.2414 -3.0269
 1518TIP3   OH225968   2.519   4.456   5.069  0.3147 -0.1698  0.1452
 1518TIP3    H125969   2.524   4.426   4.978 -1.0180  0.5011 -0.1652
 1518TIP3    H225970   2.444   4.409   5.106  0.5071 -0.0210  0.7349
 1519TIP3   OH225971   4.425   5.528  16.068 -0.0100 -0.0646  0.3058
 1519TIP3    H125972   4.427   5.575  16.151 -0.4534  0.2164  0.1567
 1519TIP3    H225973   4.426   5.597  16.002 -1.0126 -0.2497  0.0890
 1520TIP3   OH225974   6.181   4.161  13.449  0.3421 -0.6334  0.6430
 1520TIP3    H125975   6.163   4.161  13.355 -0.0048 -0.9749  0.7095
 1520TIP3    H225976   6.170   4.070  13.476  1.0483 -0.6448  0.9010
 1521TIP3   OH225977   6.423   3.550  16.861  0.5609  0.6054  0.1547
 1521TIP3    H125978   6.393   3.529  16.949 -0.9684  2.7572  0.1891
 1521TIP3    H225979   6.342   3.562  16.811  1.3958  2.8929 -0.6712
 1522TIP3   OH225980   2.534   1.605  16.648  0.3658  0.2696  0.6867
 1522TIP3    H125981   2.608   1.645  16.602  0.2828  0.2589  0.5439
 1522TIP3    H225982   2.519   1.662  16.723 -0.0361  0.7522  0.2382
 1523TIP3   OH225983   3.457   2.195  16.203  0.3889 -0.3811 -0.2236
 1523TIP3    H125984   3.426   2.281  16.233  0.2259  0.1414 -1.8120
 1523TIP3    H225985   3.481   2.210  16.111 -0.2057 -2.1774 -0.6875
 1524TIP3   OH225986   6.766   5.415  13.720  0.2791  0.3384  0.2876
 1524TIP3    H125987   6.738   5.462  13.799  0.8092 -0.1354  0.7694
 1524TIP3    H225988   6.686   5.376  13.685  0.3614 -1.3259  1.8671
 1525TIP3   OH225989   5.320   4.693  14.907  0.0091  0.1065  0.2546
 1525TIP3    H125990   5.373   4.772  14.896  1.0509 -0.4707  1.0816
 1525TIP3    H225991   5.310   4.659  14.819  0.8099  0.3538  0.0623
 1526TIP3   OH225992   5.896   6.741  14.189 -0.7731  0.9130  0.4670
 1526TIP3    H125993   5.958   6.762  14.119  0.0011  0.1151  0.9108
 1526TIP3    H225994   5.944   6.682  14.246 -1.4476  1.4681  1.6139
 1527TIP3   OH225995   1.423   6.193  12.791 -0.4132 -0.5057  0.2262
 1527TIP3    H125996   1.349   6.214  12.848 -0.1741 -1.3402  0.8516
 1527TIP3    H225997   1.449   6.105  12.817  1.1934  0.0202  0.4411
 1528TIP3   OH225998   6.096   0.426  16.607 -0.2504  0.5916 -0.3217
 1528TIP3    H125999   6.100   0.396  16.516  1.3100 -0.0569 -0.0454
 1528TIP3    H226000   6.044   0.360  16.652  1.5752 -0.7325 -0.1128
 1529TIP3   OH226001   6.124   4.033   0.039  0.1271  0.0211 -0.0010
 1529TIP3    H126002   6.073   4.097  -0.011  1.4841  0.6037 -0.6608
 1529TIP3    H226003   6.096   4.045   0.129  0.5166  1.6811 -0.0933
 1530TIP3   OH226004   5.782   2.427  11.972 -0.3411  0.0883 -0.7454
 1530TIP3    H126005   5.845   2.438  11.901 -1.3707  0.5334 -1.6054
 1530TIP3    H226006   5.768   2.516  12.006  0.1747 -0.1247  0.0519
 1531TIP3   OH226007   1.097   0.634  13.563 -0.0894  0.5862  0.3145
 1531TIP3    H126008   1.118   0.680  13.482 -1.5427  1.0639  0.1866
 1531TIP3    H226009   1.135   0.688  13.632  0.2527  0.7308  0.0117
 1532TIP3   OH226010   3.870   6.714  16.056  0.5862  0.0441 -0.1441
 1532TIP3    H126011   3.950   6.755  16.091  0.9911 -0.3376 -0.6160
 1532TIP3    H226012   3.889   6.620  16.057  0.0086 -0.0702  0.0601
 1533TIP3   OH226013   2.954   3.597   0.777 -0.1838 -0.5321 -0.6058
 1533TIP3    H126014   2.904   3.563   0.851  0.7822  2.1555  1.3845
 1533TIP3    H226015   3.031   3.541   0.773  0.3815  0.0641  1.2718
 1534TIP3   OH226016   6.491   5.367  13.698 -0.7096 -0.0372 -0.6419
 1534TIP3    H126017   6.457   5.450  13.732  0.9367  1.8629 -3.4183
 1534TIP3    H226018   6.424   5.338  13.635 -0.1635  0.4374 -1.4454
 1535TIP3   OH226019   4.943   3.226  13.394  0.2089 -0.4014  0.1659
 1535TIP3    H126020   4.968   3.270  13.476  2.5007 -1.9665  0.3361
 1535TIP3    H226021   5.026   3.205  13.351 -0.9080 -1.8569 -1.3454
 1536TIP3   OH226022   1.882   1.830  15.489  0.2941 -0.2273 -0.2754
 1536TIP3    H126023   1.796   1.799  15.518 -0.0412  0.9290 -0.0356
 1536TIP3    H226024   1.908   1.894  15.555  1.3689 -0.6058 -0.3205
 1537TIP3   OH226025   0.007   6.216   0.721 -0.1863  0.0273 -0.2125
 1537TIP3    H126026   0.064   6.268   0.664 -1.3682  0.3061 -1.1554
 1537TIP3    H226027   0.067   6.175   0.783  0.8115  2.2117  0.3285
 1538TIP3   OH226028   2.151   4.239   5.863 -0.2955  0.1561  0.0293
 1538TIP3    H126029   2.228   4.184   5.850 -0.5675  0.1358 -1.6485
 1538TIP3    H226030   2.136   4.238   5.957  0.5375 -1.5055  0.1603
 1539TIP3   OH226031   1.775   1.413  15.388  0.1446  0.0534  0.3633
 1539TIP3    H126032   1.737   1.459  15.313  1.4867 -1.5002 -1.2817
 1539TIP3    H226033   1.699   1.377  15.434 -0.6779  0.9206 -0.2774
 1540TIP3   OH226034   3.641   1.867   4.057  0.5894 -0.3754  0.2701
 1540TIP3    H126035   3.682   1.952   4.040  2.1718 -1.4335 -1.4443
 1540TIP3    H226036   3.692   1.829   4.128 -0.0169  0.0374  0.9273
 1541TIP3   OH226037   6.665   5.704   5.728 -0.3641  0.1719  0.3331
 1541TIP3    H126038   6.582   5.659   5.714  0.4619 -1.0213 -0.9010
 1541TIP3    H226039   6.667   5.722   5.822  0.0939 -4.0590  1.2590
 1542TIP3   OH226040   4.125   0.709   6.033 -0.2019 -0.4060 -0.1947
 1542TIP3    H126041   4.092   0.769   6.100 -1.9337 -1.3415 -0.1981
 1542TIP3    H226042   4.083   0.738   5.952  2.4276  1.1823 -1.0890
 1543TIP3   OH226043   3.836   3.745  17.013  0.9403  0.2118  0.3260
 1543TIP3    H126044   3.746   3.778  17.004  0.7852 -0.4050 -0.5151
 1543TIP3    H226045   3.869   3.785  17.093  0.1394  0.9695  0.2847
 1544TIP3   OH226046   1.688   2.934  12.946 -0.1293  0.5517  0.6688
 1544TIP3    H126047   1.657   2.898  13.029  1.9778 -0.4414  1.0567
 1544TIP3    H226048   1.713   2.858  12.894  0.9254  1.2706  0.0980
 1545TIP3   OH226049   0.175   3.229   5.343 -0.0508 -0.0593 -0.1640
 1545TIP3    H126050   0.149   3.310   5.299  1.1577  0.2902 -0.2658
 1545TIP3    H226051   0.152   3.242   5.435  1.9694  1.2480  0.2015
 1546TIP3   OH226052   1.458   0.813   5.395  0.3134 -0.5422 -0.2118
 1546TIP3    H126053   1.463   0.775   5.307 -0.2786 -0.0367 -0.4709
 1546TIP3    H226054   1.439   0.739   5.452  2.6699 -1.2141 -0.2341
 1547TIP3   OH226055   1.978   1.890  15.247 -0.0462  0.1771 -0.0579
 1547TIP3    H126056   1.924   1.863  15.320 -2.2314 -0.6000 -1.9086
 1547TIP3    H226057   2.050   1.939  15.287 -1.3274 -0.0111  2.5551
 1548TIP3   OH226058   5.557   3.417  14.914  0.4739 -0.0111 -0.4404
 1548TIP3    H126059   5.464   3.424  14.938  1.3358  1.5195  2.7340
 1548TIP3    H226060   5.584   3.332  14.949 -0.2033 -1.5020 -3.3564
 1549TIP3   OH226061   6.359   2.834   0.869 -0.0704  0.0369  0.0987
 1549TIP3    H126062   6.296   2.906   0.873 -0.9605 -0.6731 -1.0599
 1549TIP3    H226063   6.381   2.826   0.777  1.2256 -0.1565  0.4213
 1550TIP3   OH226064   4.706   3.911   0.557  0.3970  0.4199 -0.2890
 1550TIP3    H126065   4.753   3.831   0.578 -1.4749 -0.0387  2.5577
 1550TIP3    H226066   4.719   3.967   0.634 -2.8939  0.5884  0.2380
 1551TIP3   OH226067   3.652   5.718   0.848  0.1502  0.2253 -0.0845
 1551TIP3    H126068   3.585   5.759   0.903 -1.6058 -0.8719 -1.3650
 1551TIP3    H226069   3.607   5.645   0.805  1.7637  0.3846 -2.1202
 1552TIP3   OH226070   5.347   2.723   2.398  0.7049  0.0418  0.4145
 1552TIP3    H126071   5.326   2.689   2.312  3.2770  0.0165 -0.2451
 1552TIP3    H226072   5.442   2.709   2.407  0.7622  1.5259  2.5585
 1553TIP3   OH226073   1.333   2.755  12.974 -0.0187  0.0466  0.0214
 1553TIP3    H126074   1.281   2.781  13.050 -1.7686 -1.2109 -0.7113
 1553TIP3    H226075   1.331   2.832  12.917 -0.0536  0.4306  0.5331
 1554TIP3   OH226076   6.310   3.129  12.631 -0.0104 -0.0377  0.1986
 1554TIP3    H126077   6.360   3.048  12.626 -0.8624 -0.4052 -3.1752
 1554TIP3    H226078   6.220   3.101  12.646 -0.1113  0.3388  0.3015
 1555TIP3   OH226079   5.634   5.248  14.574 -0.1711 -0.0334  0.3722
 1555TIP3    H126080   5.565   5.293  14.624 -1.4583  0.9259 -2.1914
 1555TIP3    H226081   5.631   5.158  14.605 -1.2706  0.4432  1.6847
 1556TIP3   OH226082   2.096   6.253   6.030 -0.1419  0.3289  0.5134
 1556TIP3    H126083   2.178   6.236   6.077  0.5566  1.1633 -0.3999
 1556TIP3    H226084   2.053   6.322   6.081  0.2649  0.7058  0.3510
 1557TIP3   OH226085   6.294   5.442  11.068  0.2461  0.0931 -0.5625
 1557TIP3    H126086   6.289   5.453  11.163 -0.0957 -0.9348 -0.4526
 1557TIP3    H226087   6.207   5.464  11.036 -0.7532 -3.0748 -0.2353
 1558TIP3   OH226088   5.228   5.354   4.305 -0.4833 -0.0074  0.4154
 1558TIP3    H126089   5.205   5.288   4.239 -1.9951  1.7280 -0.8421
 1558TIP3    H226090   5.192   5.319   4.387 -1.8796 -0.4439 -0.3620
 1559TIP3   OH226091   4.602   2.528   6.766 -0.0286  0.5152  0.4724
 1559TIP3    H126092   4.678   2.509   6.711 -0.8345 -1.5394  0.0194
 1559TIP3    H226093   4.581   2.620   6.746  1.5067  0.6958 -0.3946
 1560TIP3   OH226094   6.272   4.012   6.022  0.1183  0.1009 -0.0733
 1560TIP3    H126095   6.354   3.966   6.006  0.2830  1.1237 -2.3130
 1560TIP3    H226096   6.204   3.951   5.994  0.0473 -0.8929  2.1283
 1561TIP3   OH226097   0.732   4.701  14.029  0.1866 -0.0482 -0.3485
 1561TIP3    H126098   0.689   4.782  14.055  1.7116  1.2189 -1.6990
 1561TIP3    H226099   0.794   4.683  14.100 -0.4834 -0.2924  0.1793
 1562TIP3   OH226100   5.009   0.613   0.306 -0.1508  0.3847  0.3266
 1562TIP3    H126101   5.085   0.605   0.364 -1.8615 -1.7304  2.3217
 1562TIP3    H226102   4.976   0.701   0.323  2.0468  1.4937 -0.8667
 1563TIP3   OH226103   2.238   0.927   0.990 -0.3533 -0.9158 -0.1317
 1563TIP3    H126104   2.313   0.867   0.995 -0.0168 -0.5116 -0.3180
 1563TIP3    H226105   2.169   0.882   1.039 -0.0323 -1.3526 -0.0706
 1564TIP3   OH226106   4.407   6.425  12.945  0.7700  0.3037 -0.4168
 1564TIP3    H126107   4.333   6.384  12.989  2.8057 -2.7070  0.3537
 1564TIP3    H226108   4.389   6.519  12.950 -2.4777 -0.3131  0.6029
 1565TIP3   OH226109   3.183   0.007   2.065 -0.0928  0.1242 -0.6804
 1565TIP3    H126110   3.212   0.094   2.091  0.3791 -0.1949 -0.1174
 1565TIP3    H226111   3.119  -0.018   2.132  0.3946 -0.2989 -0.3668
 1566TIP3   OH226112   5.157   0.194  16.340 -0.4743  0.3453  0.0792
 1566TIP3    H126113   5.061   0.190  16.346 -0.4982  0.8881  0.1038
 1566TIP3    H226114   5.188   0.140  16.412 -0.7576  1.4996  1.0727
 1567TIP3   OH226115   2.356   1.940  13.644  0.4203 -0.0650  0.2554
 1567TIP3    H126116   2.338   1.917  13.735  2.7300 -0.5304  0.6241
 1567TIP3    H226117   2.326   2.030  13.636  2.1884  0.7402  2.1208
 1568TIP3   OH226118   4.098   0.597   5.645 -0.4158  0.9619 -0.1246
 1568TIP3    H126119   4.031   0.531   5.629 -0.4963  0.8480  0.6595
 1568TIP3    H226120   4.059   0.656   5.710 -0.4514  1.9473 -1.0376
 1569TIP3   OH226121   5.867   0.334  15.127  0.4453  0.2786 -0.1983
 1569TIP3    H126122   5.861   0.239  15.121  0.4807  0.2063  0.7382
 1569TIP3    H226123   5.857   0.353  15.221  1.4132  1.1262 -0.2519
 1570TIP3   OH226124   5.957   0.002  15.783 -0.4907 -0.0656 -0.1018
 1570TIP3    H126125   5.881  -0.056  15.791 -0.9513  0.4655 -0.5685
 1570TIP3    H226126   5.950   0.060  15.858 -1.6140  1.2029 -1.1535
 1571TIP3   OH226127   6.099   6.716   3.308  0.7191  0.0968 -0.3170
 1571TIP3    H126128   6.165   6.768   3.261  0.7464 -0.7681 -1.2717
 1571TIP3    H226129   6.024   6.713   3.248 -0.0599  0.7937  0.6203
 1572TIP3   OH226130   4.204   1.078  11.488  0.3868 -0.5539 -0.2324
 1572TIP3    H126131   4.206   1.017  11.414  0.7472  0.2422 -0.8942
 1572TIP3    H226132   4.211   1.023  11.565 -1.6362 -1.5434 -0.7165
 1573TIP3   OH226133   1.693   3.464   5.310 -0.3438  0.2793 -0.4391
 1573TIP3    H126134   1.783   3.439   5.287 -0.5356 -0.8051 -0.0548
 1573TIP3    H226135   1.694   3.467   5.406 -0.9615 -0.6517 -0.4070
 1574TIP3   OH226136   4.169   1.468   4.464  0.4254 -0.3069 -0.5510
 1574TIP3    H126137   4.142   1.392   4.516 -1.0961  1.0708  0.7564
 1574TIP3    H226138   4.089   1.498   4.422  0.6246  1.5702  0.3298
 1575TIP3   OH226139   1.293   5.121  13.168  0.1406  0.0095  0.5752
 1575TIP3    H126140   1.289   5.212  13.199 -1.9089  0.2806 -0.3666
 1575TIP3    H226141   1.362   5.081  13.220  0.4538  1.8666  1.6548
 1576TIP3   OH226142   3.146   0.414  10.636  0.0369 -0.1504  0.4701
 1576TIP3    H126143   3.104   0.392  10.719  0.5889 -1.2155  0.4746
 1576TIP3    H226144   3.095   0.367  10.570 -0.6354  0.9983  0.1529
 1577TIP3   OH226145   6.184   5.225   5.588  0.3401  0.3650  0.1870
 1577TIP3    H126146   6.155   5.156   5.528  0.7754  0.5951 -0.2905
 1577TIP3    H226147   6.264   5.260   5.549  0.5275  0.6482  0.8055
 1578TIP3   OH226148   4.569   2.326  15.776  0.3345 -0.1574  0.3387
 1578TIP3    H126149   4.612   2.353  15.857  0.9616 -1.3761  0.4342
 1578TIP3    H226150   4.480   2.361  15.783  0.1582 -0.8815  1.9043
 1579TIP3   OH226151   0.109   6.720   0.261 -0.3943  0.5850  0.3990
 1579TIP3    H126152   0.084   6.801   0.216 -2.2034 -0.9822 -1.5004
 1579TIP3    H226153   0.028   6.690   0.302  0.2898 -0.1972  1.1887
 1580TIP3   OH226154   2.218   6.750  11.731 -0.3383  0.3461 -0.1467
 1580TIP3    H126155   2.175   6.833  11.748 -2.3234 -0.5963 -0.3998
 1580TIP3    H226156   2.149   6.694  11.693  1.2994 -0.9666 -1.2631
 1581TIP3   OH226157   2.402   2.848  11.416  0.3784  0.2906  0.0244
 1581TIP3    H126158   2.310   2.862  11.438  0.4258  0.4445  0.1261
 1581TIP3    H226159   2.426   2.767  11.462  0.9629  1.5541  1.9766
 1582TIP3   OH226160   4.352   5.362   3.513 -0.4796 -0.4708  0.3482
 1582TIP3    H126161   4.317   5.337   3.427  0.5671  0.4919 -0.3774
 1582TIP3    H226162   4.322   5.451   3.526  0.7173 -0.0417  0.2375
 1583TIP3   OH226163   3.826   3.225   4.965  0.3051  0.3627 -0.2115
 1583TIP3    H126164   3.846   3.317   4.949  0.4371  0.3827  0.0607
 1583TIP3    H226165   3.748   3.226   5.020  2.8415  0.4706  3.6794
 1584TIP3   OH226166   3.445   4.977   4.535 -0.3436 -0.1116  0.0033
 1584TIP3    H126167   3.480   4.909   4.592 -2.3485 -1.1777  0.0072
 1584TIP3    H226168   3.507   4.981   4.462 -0.1852 -1.9251  0.0224
 1585TIP3   OH226169   0.657   4.032   4.392 -0.2791 -0.2358  0.3362
 1585TIP3    H126170   0.649   4.027   4.487  1.1428 -2.2117  0.4011
 1585TIP3    H226171   0.749   4.055   4.377  0.3544 -3.0431 -0.5428
 1586TIP3   OH226172   5.197   3.182  14.115 -0.0446  0.1972  0.0959
 1586TIP3    H126173   5.146   3.106  14.142 -0.6263  0.7344  0.5302
 1586TIP3    H226174   5.178   3.248  14.181 -0.5568  1.1391 -0.9683
 1587TIP3   OH226175   6.607   1.378  14.063 -0.2436 -0.1456 -0.3898
 1587TIP3    H126176   6.663   1.362  14.139  1.9067 -2.8377 -2.4488
 1587TIP3    H226177   6.545   1.305  14.062  1.1721 -1.3633 -2.4447
 1588TIP3   OH226178   1.954   0.786   2.059  0.4339  0.0520 -0.7636
 1588TIP3    H126179   1.988   0.702   2.090  1.5519  0.2895 -1.3280
 1588TIP3    H226180   1.987   0.849   2.122  2.0554  0.4358 -1.9647
 1589TIP3   OH226181   5.452   0.203  12.803 -0.2118 -0.0664 -0.2232
 1589TIP3    H126182   5.528   0.211  12.746 -0.2990 -2.4054 -0.6878
 1589TIP3    H226183   5.415   0.117  12.784 -0.6323 -0.6360  2.8737
 1590TIP3   OH226184   3.268   5.545   2.313  0.2301  0.2076 -0.1206
 1590TIP3    H126185   3.336   5.479   2.326  0.8953  0.7509 -0.7763
 1590TIP3    H226186   3.229   5.557   2.399 -1.2400 -2.4676 -0.3635
 1591TIP3   OH226187   0.909   0.497   1.214  0.0776 -0.3855  0.5583
 1591TIP3    H126188   0.816   0.508   1.236 -0.1776 -2.1896  0.4246
 1591TIP3    H226189   0.909   0.487   1.118  0.2068 -2.3244  0.7530
 1592TIP3   OH226190   4.408   5.101   6.048  0.1656  0.5570 -0.0564
 1592TIP3    H126191   4.477   5.152   6.091  1.0358  1.0775 -2.0466
 1592TIP3    H226192   4.357   5.065   6.121  2.4237  0.2834  1.4468
 1593TIP3   OH226193   3.911   5.944   1.890  0.1550 -0.4867  0.2755
 1593TIP3    H126194   3.862   6.025   1.900  1.9455  0.8879 -1.8120
 1593TIP3    H226195   3.851   5.876   1.922 -2.1495  1.3891  0.0641
 1594TIP3   OH226196   1.256   6.234  13.390  0.0691 -0.0021 -0.0931
 1594TIP3    H126197   1.215   6.198  13.311  0.5667  1.5424 -1.0816
 1594TIP3    H226198   1.260   6.161  13.451 -2.8820 -0.5208 -0.4804
 1595TIP3   OH226199   0.880   0.808   5.610  0.0915 -0.1678 -0.4044
 1595TIP3    H126200   0.893   0.733   5.668  1.1073 -1.1268 -1.8256
 1595TIP3    H226201   0.816   0.777   5.545 -0.3408  0.5828 -0.3451
 1596TIP3   OH226202   6.088   0.628  14.479  0.2213  0.2070  0.1458
 1596TIP3    H126203   6.080   0.551  14.423 -0.3794 -0.7637  1.5453
 1596TIP3    H226204   6.114   0.699  14.419 -0.4194 -0.8003 -1.3474
 1597TIP3   OH226205   0.956   0.808   2.382 -0.1283 -0.2349  0.4077
 1597TIP3    H126206   0.909   0.889   2.402  1.8223  1.4839 -1.6837
 1597TIP3    H226207   1.004   0.789   2.463 -1.3305  0.1459  1.2362
 1598TIP3   OH226208   5.040   6.585  17.008  0.1768 -0.6006  0.2430
 1598TIP3    H126209   5.097   6.605  16.933  0.1982 -0.9305  0.1663
 1598TIP3    H226210   5.101   6.553  17.075 -0.1667 -3.5746 -0.7648
 1599TIP3   OH226211   0.458   2.225   1.309  0.3382 -0.4570  0.7300
 1599TIP3    H126212   0.495   2.159   1.251 -0.8633 -1.3921  1.0168
 1599TIP3    H226213   0.377   2.252   1.267 -0.3737 -0.8940  1.7903
 1600TIP3   OH226214   6.084   0.089   0.847 -0.0051  0.2425 -0.3444
 1600TIP3    H126215   6.135   0.164   0.879  1.9563 -1.9694  1.8535
 1600TIP3    H226216   6.010   0.082   0.908 -0.8711  1.1108 -1.2773
 1601TIP3   OH226217   0.341   6.774   4.651  0.0905 -0.1534 -0.1095
 1601TIP3    H126218   0.435   6.792   4.640 -0.0548 -0.0615 -1.2938
 1601TIP3    H226219   0.314   6.832   4.722  0.7644  0.3976 -0.2901
 1602TIP3   OH226220   1.933   1.828   5.928 -0.7143  0.2060  0.0650
 1602TIP3    H126221   1.935   1.741   5.890  0.4276  0.8339 -1.3987
 1602TIP3    H226222   1.893   1.883   5.861 -2.4747  0.6150  1.4288
 1603TIP3   OH226223   2.727   2.952  12.276  0.0962  0.1621  1.0193
 1603TIP3    H126224   2.713   2.924  12.366 -0.6017 -0.3170  0.7658
 1603TIP3    H226225   2.739   3.047  12.282 -1.5678  0.3525  1.4392
 1604TIP3   OH226226   6.198   0.806  15.340  0.2318  0.1095  0.7001
 1604TIP3    H126227   6.214   0.794  15.246 -2.2464 -1.7462  0.4853
 1604TIP3    H226228   6.273   0.763  15.382  0.3473 -0.7797 -0.3946
 1605TIP3   OH226229   6.211   1.828  12.433  0.2025 -0.0991 -0.2278
 1605TIP3    H126230   6.152   1.903  12.438 -0.2627 -0.5910  2.9076
 1605TIP3    H226231   6.281   1.849  12.495  1.5310 -1.0234 -1.3987
 1606TIP3   OH226232   5.218   6.725  12.517  0.1115 -0.1653 -0.1980
 1606TIP3    H126233   5.131   6.712  12.552 -0.5525 -0.6121 -1.9366
 1606TIP3    H226234   5.273   6.746  12.593 -1.4291 -0.2277  0.9386
 1607TIP3   OH226235   6.011   2.621  13.604 -0.4973  0.0152  0.2482
 1607TIP3    H126236   6.092   2.654  13.564 -0.8565  1.3347  0.5868
 1607TIP3    H226237   6.034   2.607  13.696 -0.2406 -1.0702  0.0291
 1608TIP3   OH226238   0.818   5.381  12.729 -0.2609 -0.2518 -0.2678
 1608TIP3    H126239   0.897   5.330  12.747  0.8429  1.4975 -0.0254
 1608TIP3    H226240   0.795   5.358  12.639  1.8615  0.9297 -1.1465
 1609TIP3   OH226241   2.237   3.183   5.274 -0.1149  0.3263  0.0980
 1609TIP3    H126242   2.208   3.178   5.365 -0.1141 -1.6508  0.0092
 1609TIP3    H226243   2.229   3.093   5.241 -0.3773  1.0711 -1.9391
 1610TIP3   OH226244   3.881   3.301  12.605 -0.9415  0.2465  0.0387
 1610TIP3    H126245   3.843   3.386  12.625  1.3817  1.2450  0.3715
 1610TIP3    H226246   3.875   3.251  12.687 -1.7223  0.3085  0.0208
 1611TIP3   OH226247   2.514   3.826  12.413  0.3908 -0.0287 -0.3073
 1611TIP3    H126248   2.470   3.759  12.464 -0.8098  1.1502  0.2448
 1611TIP3    H226249   2.455   3.845  12.340 -1.0786  3.0624  1.5934
 1612TIP3   OH226250   5.152   5.329  10.700  0.0004  0.1867 -0.1019
 1612TIP3    H126251   5.150   5.348  10.606  0.8982  0.1030 -0.1457
 1612TIP3    H226252   5.060   5.326  10.726 -0.2913 -0.8343 -1.1853
 1613TIP3   OH226253   2.558   5.988  13.320 -0.1798  0.0399 -0.2218
 1613TIP3    H126254   2.573   5.915  13.381  0.2677  0.3816  0.0773
 1613TIP3    H226255   2.644   6.007  13.284 -0.5093 -0.4146 -1.2525
 1614TIP3   OH226256   4.849   0.726  15.767  0.0096 -0.1916  0.4267
 1614TIP3    H126257   4.930   0.675  15.769  0.1290 -0.0268 -0.0416
 1614TIP3    H226258   4.839   0.751  15.675  0.1090  0.8781  0.7007
 1615TIP3   OH226259   0.282   1.979  11.628  0.2104 -0.1299 -0.3171
 1615TIP3    H126260   0.332   1.969  11.547  0.6493  0.5559 -0.1339
 1615TIP3    H226261   0.225   1.902  11.631  1.0950 -0.8009 -0.6327
 1616TIP3   OH226262   0.974   4.238   4.562  0.1822  0.4256  0.8252
 1616TIP3    H126263   0.926   4.241   4.645 -0.6563  1.1579  0.3333
 1616TIP3    H226264   1.037   4.310   4.569  1.1897 -0.5159  1.4590
 1617TIP3   OH226265   1.992   6.204   0.659  0.3352  0.1626 -0.5695
 1617TIP3    H126266   2.046   6.126   0.643 -1.1029 -0.6778 -1.4382
 1617TIP3    H226267   1.997   6.254   0.578 -0.3233 -0.0106 -0.7227
 1618TIP3   OH226268   3.879   5.282   3.587  0.4425 -0.1232  0.3902
 1618TIP3    H126269   3.816   5.293   3.516 -0.1157 -1.0743  0.7163
 1618TIP3    H226270   3.847   5.338   3.657 -1.8230 -2.8715  1.6873
 1619TIP3   OH226271   2.346   1.270  14.294 -0.0806  0.1914 -0.0173
 1619TIP3    H126272   2.265   1.302  14.333 -0.6209  0.8181 -1.6077
 1619TIP3    H226273   2.400   1.243  14.369 -2.1278 -1.1783  1.0288
 1620TIP3   OH226274   0.843   2.279   4.555  0.1427 -0.4747 -0.0404
 1620TIP3    H126275   0.854   2.366   4.594  1.6765  0.5056 -2.5315
 1620TIP3    H226276   0.773   2.291   4.490  0.7092 -0.9521 -0.7504
 1621TIP3   OH226277   0.733   6.099  15.421 -0.1869  0.1624  0.2244
 1621TIP3    H126278   0.811   6.043  15.414  0.4922  1.1133  0.1412
 1621TIP3    H226279   0.767   6.188  15.425 -1.3460  0.7247 -1.6755
 1622TIP3   OH226280   3.386   0.135   5.691  0.0368  0.3223 -0.6665
 1622TIP3    H126281   3.448   0.071   5.724 -0.6071  0.8021  1.5669
 1622TIP3    H226282   3.430   0.176   5.617  2.3221  0.5330  0.7740
 1623TIP3   OH226283   4.392   2.572   3.210 -0.2945  0.7081 -0.0210
 1623TIP3    H126284   4.353   2.529   3.134  1.1487 -1.3832  0.3625
 1623TIP3    H226285   4.382   2.509   3.281  0.4912  1.6539  0.9461
 1624TIP3   OH226286   3.384   3.692   0.220 -0.3405  0.0796  0.1237
 1624TIP3    H126287   3.404   3.706   0.128  1.1664  0.2785  0.4596
 1624TIP3    H226288   3.468   3.703   0.265 -1.0248 -0.1400  1.5056
 1625TIP3   OH226289   6.083   2.910  11.290  0.2550  0.8050  0.2637
 1625TIP3    H126290   6.086   2.890  11.196 -0.2370 -0.0807  0.4327
 1625TIP3    H226291   6.117   2.831  11.332 -0.1842  0.9384  0.8688
 1626TIP3   OH226292   0.381   0.796   1.178  0.6955  0.5226  0.1719
 1626TIP3    H126293   0.338   0.777   1.095 -0.1361  1.2248  0.4281
 1626TIP3    H226294   0.333   0.744   1.243 -0.1269  1.7163  0.5379
 1627TIP3   OH226295   4.582   0.623  15.445  0.1544  0.2084  0.1469
 1627TIP3    H126296   4.668   0.665  15.450  0.0591  0.6935 -1.8495
 1627TIP3    H226297   4.547   0.630  15.533  1.8978  0.5876  0.8311
 1628TIP3   OH226298   0.946   0.365   0.886  0.2984 -0.4376 -0.6278
 1628TIP3    H126299   0.977   0.279   0.913 -1.2720 -1.8399 -3.1674
 1628TIP3    H226300   0.989   0.382   0.802 -1.3468  0.0975 -1.4013
 1629TIP3   OH226301   0.077   5.494   3.041 -0.2073 -0.2259  0.0305
 1629TIP3    H126302   0.089   5.485   2.947  1.0621  1.9472 -0.0330
 1629TIP3    H226303   0.006   5.558   3.050 -1.3932 -1.5825  0.5619
 1630TIP3   OH226304   2.355   0.961  13.276  0.0013  0.4031 -0.0662
 1630TIP3    H126305   2.269   0.920  13.282  0.4800 -0.5053  0.7105
 1630TIP3    H226306   2.364   0.986  13.184 -1.1465  0.6402 -0.1241
 1631TIP3   OH226307   2.011   0.186   5.528  0.1903  0.1707  0.1337
 1631TIP3    H126308   2.049   0.140   5.602  1.9611 -0.6683 -1.2610
 1631TIP3    H226309   1.977   0.268   5.565 -1.9994 -1.6973  2.4407
 1632TIP3   OH226310   5.476   2.277  12.584 -0.4708 -0.2359  0.1369
 1632TIP3    H126311   5.452   2.191  12.620  0.3975 -0.8283 -0.6524
 1632TIP3    H226312   5.457   2.269  12.490 -1.4814  0.8378  0.2393
 1633TIP3   OH226313   0.023   0.404  13.347 -1.0036  0.3719  0.3619
 1633TIP3    H126314  -0.059   0.445  13.320 -2.2539 -1.1103  1.8307
 1633TIP3    H226315   0.039   0.437  13.435 -1.1001 -0.9466  0.8753
 1634TIP3   OH226316   1.168   4.316   2.270  0.2854 -0.1461 -0.1803
 1634TIP3    H126317   1.080   4.350   2.252  1.0278  0.9940 -1.8289
 1634TIP3    H226318   1.182   4.250   2.202 -0.2441 -2.1721  1.6071
 1635TIP3   OH226319   0.752   3.358  15.374  0.2806 -0.6252  0.3799
 1635TIP3    H126320   0.847   3.354  15.368  0.3149  0.2249  0.3492
 1635TIP3    H226321   0.727   3.275  15.415  0.9596 -1.2774 -0.4894
 1636TIP3   OH226322   2.867   4.486   3.073  0.3225 -0.4892  0.5228
 1636TIP3    H126323   2.848   4.544   3.147 -2.6067 -1.3584  0.4980
 1636TIP3    H226324   2.942   4.434   3.103  0.3197  0.4012  2.1703
 1637TIP3   OH226325   2.779   1.194   3.627 -0.0958 -0.1261 -0.7503
 1637TIP3    H126326   2.791   1.199   3.532  0.2203  2.2205 -0.5972
 1637TIP3    H226327   2.859   1.152   3.659 -0.4099 -1.3593 -1.5559
 1638TIP3   OH226328   3.232   5.139   0.677 -0.2944  0.1104  0.8067
 1638TIP3    H126329   3.178   5.068   0.641  1.6369 -0.0367 -1.9920
 1638TIP3    H226330   3.293   5.095   0.736  0.7812 -0.5968 -0.7827
 1639TIP3   OH226331   4.172   4.392   6.448 -0.6789 -0.1276  0.5965
 1639TIP3    H126332   4.193   4.446   6.372 -0.0532 -2.6453 -1.0310
 1639TIP3    H226333   4.077   4.384   6.445 -0.4599 -2.2866 -1.3722
 1640TIP3   OH226334   5.684   6.059  16.791  0.8298 -0.0498 -0.2228
 1640TIP3    H126335   5.737   6.025  16.863  1.5512 -0.9323 -1.1567
 1640TIP3    H226336   5.623   6.119  16.833  0.9359 -0.8996  1.1877
 1641TIP3   OH226337   0.337   0.108  12.713 -0.6005 -0.1376 -0.1773
 1641TIP3    H126338   0.374   0.131  12.627 -0.8115 -0.3001 -0.3110
 1641TIP3    H226339   0.392   0.155  12.776 -0.0792 -0.4740 -0.3692
 1642TIP3   OH226340   4.201   5.368  16.540 -0.2239  0.2563  0.3920
 1642TIP3    H126341   4.256   5.338  16.468  2.3950  0.3939  2.2841
 1642TIP3    H226342   4.219   5.462  16.547 -0.5310  0.2589  1.1921
 1643TIP3   OH226343   1.446   3.403  11.796  0.0838  0.4369  0.0960
 1643TIP3    H126344   1.399   3.353  11.729  3.5452 -0.2281 -1.9123
 1643TIP3    H226345   1.441   3.493  11.766  1.7480  0.1218 -1.1639
 1644TIP3   OH226346   5.186   1.754  14.085 -0.1026  0.5532  0.2308
 1644TIP3    H126347   5.266   1.729  14.039 -0.9411 -0.9826 -0.4308
 1644TIP3    H226348   5.143   1.671  14.107 -1.9272  1.3413 -0.1935
 1645TIP3   OH226349   2.220   6.217  11.271 -0.2396  0.5946  0.1400
 1645TIP3    H126350   2.242   6.269  11.194  0.8109  0.5976  0.4399
 1645TIP3    H226351   2.203   6.281  11.339  0.3855  0.5653  0.3274
 1646TIP3   OH226352   5.061   5.739  13.593 -0.2023  0.6478  0.8668
 1646TIP3    H126353   4.966   5.727  13.586 -0.4314  2.2313  1.1901
 1646TIP3    H226354   5.072   5.818  13.645  1.3070  0.4741  0.8386
 1647TIP3   OH226355   0.786   6.110   0.704  0.1954 -0.0295  0.0007
 1647TIP3    H126356   0.804   6.070   0.789 -0.2732 -1.6946 -0.6480
 1647TIP3    H226357   0.856   6.174   0.692  1.2474 -0.9851  0.8913
 1648TIP3   OH226358   2.709   6.464   1.716 -0.3817 -0.0625  0.4017
 1648TIP3    H126359   2.690   6.557   1.728  0.6963  0.2007  0.1425
 1648TIP3    H226360   2.670   6.421   1.792 -0.4512  0.6632  0.7745
 1649TIP3   OH226361   2.347   1.058  13.011 -0.0312  0.3967 -0.2641
 1649TIP3    H126362   2.354   1.034  12.918  0.1613 -1.2951  0.1688
 1649TIP3    H226363   2.419   1.120  13.025 -0.9444  1.7960 -1.5739
 1650TIP3   OH226364   2.281   6.396   1.551  0.2682  0.5371 -0.6146
 1650TIP3    H126365   2.214   6.434   1.608  0.9492  0.3961  0.2841
 1650TIP3    H226366   2.311   6.470   1.497  0.1974  0.8447 -0.2333
 1651TIP3   OH226367   1.007   2.003   6.591  0.5535 -0.1116  0.7706
 1651TIP3    H126368   0.973   1.982   6.504 -0.8082 -0.2368  1.3123
 1651TIP3    H226369   0.932   2.043   6.636  1.4121  0.4629  1.6918
 1652TIP3   OH226370   0.834   0.393   5.911 -0.8176  0.2889 -0.0025
 1652TIP3    H126371   0.913   0.378   5.859  0.9289  3.5967  1.5184
 1652TIP3    H226372   0.770   0.330   5.877  1.9877 -1.4344 -2.2934
 1653TIP3   OH226373   2.150   4.003  14.803 -0.1190 -0.2953  0.7155
 1653TIP3    H126374   2.133   3.933  14.866 -1.6978 -1.6989 -1.2053
 1653TIP3    H226375   2.063   4.031  14.775  0.5589  0.5527 -0.5920
 1654TIP3   OH226376   4.273   2.091  15.373 -0.3935 -0.1232 -0.0338
 1654TIP3    H126377   4.300   2.090  15.281 -1.3283 -0.8798 -0.3090
 1654TIP3    H226378   4.282   2.000  15.402  0.2048  0.1720  0.7168
 1655TIP3   OH226379   5.878   1.005  16.118  0.1368  0.3583 -0.6551
 1655TIP3    H126380   5.925   0.997  16.201 -0.7652  0.6580 -0.1140
 1655TIP3    H226381   5.824   0.927  16.113  0.1490  0.3680 -0.9400
 1656TIP3   OH226382   3.125   0.264   5.596  0.0210  0.0444  0.2980
 1656TIP3    H126383   3.071   0.190   5.568  2.6649 -1.1152 -2.0344
 1656TIP3    H226384   3.176   0.230   5.669 -0.1242  0.1671  0.4574
 1657TIP3   OH226385   0.037   6.386   5.405  0.4033  0.2860  0.3455
 1657TIP3    H126386  -0.026   6.315   5.414  1.4886 -0.7237  0.0946
 1657TIP3    H226387   0.080   6.392   5.490  0.6829  0.2959  0.2048
 1658TIP3   OH226388   6.051   0.106   3.526 -0.4351 -0.2384 -0.0682
 1658TIP3    H126389   6.076   0.108   3.619 -1.1128  0.2333  0.1098
 1658TIP3    H226390   5.960   0.136   3.526 -0.9273 -1.7040 -0.7259
 1659TIP3   OH226391   6.292   4.188  11.694  0.4394 -0.0908  0.2262
 1659TIP3    H126392   6.307   4.168  11.602  0.9003 -3.2379  0.9201
 1659TIP3    H226393   6.203   4.223  11.697  0.1440 -0.6923 -1.3169
 1660TIP3   OH226394   6.644   1.314  12.723  0.2316  0.2535  0.2944
 1660TIP3    H126395   6.560   1.349  12.694  0.5760 -0.0230 -1.0865
 1660TIP3    H226396   6.670   1.370  12.797 -0.6494  1.0023  0.0414
 1661TIP3   OH226397   5.550   6.258  12.212  0.2386  0.6303 -0.6199
 1661TIP3    H126398   5.480   6.204  12.175 -0.4166  0.2302  1.1734
 1661TIP3    H226399   5.630   6.225  12.172 -0.2731 -0.9251 -0.3738
 1662TIP3   OH226400   1.086   1.599   6.027  0.3724  0.0344 -0.3032
 1662TIP3    H126401   1.022   1.629   6.092 -0.4937  0.3005 -1.2561
 1662TIP3    H226402   1.153   1.554   6.078 -1.0856 -1.1132  0.6246
 1663TIP3   OH226403   6.403   0.308   2.133 -0.2975 -0.2787  0.5473
 1663TIP3    H126404   6.464   0.257   2.186  1.3309 -0.4392 -1.3991
 1663TIP3    H226405   6.387   0.252   2.056  0.8577  1.7383 -1.2203
 1664TIP3   OH226406   6.543   5.086   1.835  0.4663  0.0336  0.5944
 1664TIP3    H126407   6.469   5.083   1.895  2.3022 -0.0542  2.9639
 1664TIP3    H226408   6.520   5.027   1.764 -1.9824  0.5048  0.9714
 1665TIP3   OH226409   4.500   0.241   4.971 -0.0955 -0.1381  0.0273
 1665TIP3    H126410   4.570   0.269   5.030  0.8535 -1.0181 -0.6438
 1665TIP3    H226411   4.535   0.162   4.929 -1.4832 -0.5597 -0.3542
 1666TIP3   OH226412   3.728   4.831   1.130  0.0171 -0.3976  0.2580
 1666TIP3    H126413   3.764   4.889   1.198 -0.5544  0.3134 -0.0398
 1666TIP3    H226414   3.799   4.822   1.066  0.0039  0.2319  0.1509
 1667TIP3   OH226415   2.821   1.276  16.682  0.1189  0.1139 -0.0964
 1667TIP3    H126416   2.816   1.279  16.586 -1.5784 -0.8055 -0.0579
 1667TIP3    H226417   2.768   1.200  16.706 -0.7626  1.2559  1.6725
 1668TIP3   OH226418   1.301   3.274  16.108  0.2896 -0.0007  0.2378
 1668TIP3    H126419   1.394   3.262  16.089 -0.0906  0.0722 -1.7790
 1668TIP3    H226420   1.293   3.368  16.126  0.7868 -0.1972  1.5216
 1669TIP3   OH226421   2.550   1.972   3.358  0.0179  0.2448 -0.8168
 1669TIP3    H126422   2.596   2.040   3.407 -2.4255  0.2935  1.5174
 1669TIP3    H226423   2.530   2.012   3.274 -1.4958  2.5550  0.5713
 1670TIP3   OH226424   1.447   5.046   5.697  0.0168  0.2661  0.1409
 1670TIP3    H126425   1.449   5.134   5.660  1.1373  0.4333  0.6004
 1670TIP3    H226426   1.364   5.042   5.745 -0.3371  0.8502 -0.4205
 1671TIP3   OH226427   5.786   6.484   1.181  0.2766  0.4216 -0.2253
 1671TIP3    H126428   5.703   6.468   1.137  0.6933  1.3562 -1.3666
 1671TIP3    H226429   5.850   6.431   1.134  0.3571 -0.2012  0.5708
 1672TIP3   OH226430   6.485   4.039   2.086  0.3327  0.2470  0.3059
 1672TIP3    H126431   6.564   4.017   2.037  1.0843 -0.1222  1.6556
 1672TIP3    H226432   6.460   3.957   2.129 -0.9990  0.2723 -0.3914
 1673TIP3   OH226433   5.160   3.610   5.732 -0.0451 -0.3926  0.1523
 1673TIP3    H126434   5.110   3.532   5.707  0.3795 -0.9619  1.0783
 1673TIP3    H226435   5.147   3.670   5.658 -3.2175  0.0135  0.9489
 1674TIP3   OH226436   1.365   4.242   2.697  0.5669  0.0541 -0.3720
 1674TIP3    H126437   1.443   4.224   2.750 -0.4663 -0.1085  1.1393
 1674TIP3    H226438   1.293   4.243   2.761 -0.8559 -1.2329 -1.9308
 1675TIP3   OH226439   3.530   4.373  10.813  0.1173  0.2636  0.2996
 1675TIP3    H126440   3.522   4.414  10.727 -2.0447  0.1885  0.4236
 1675TIP3    H226441   3.527   4.445  10.875  2.0127  0.3452  0.3207
 1676TIP3   OH226442   4.817   3.194   4.629 -0.0553  0.0872 -0.1480
 1676TIP3    H126443   4.724   3.178   4.646 -0.0093 -1.5682 -1.3494
 1676TIP3    H226444   4.861   3.116   4.664  1.2820  2.3792  3.6761
 1677TIP3   OH226445   0.451   2.259   4.679  0.2683  0.0657 -0.3335
 1677TIP3    H126446   0.499   2.301   4.607 -0.7421  0.5619 -0.7212
 1677TIP3    H226447   0.490   2.172   4.685  0.9978  0.3414 -0.8683
 1678TIP3   OH226448   6.086   6.167  11.628 -0.2543 -0.1605 -0.0486
 1678TIP3    H126449   6.025   6.235  11.656  0.3411 -0.0679  1.0542
 1678TIP3    H226450   6.031   6.102  11.584 -1.0003  0.4193  0.0139
 1679TIP3   OH226451   1.013   0.588   3.657  0.4340  0.1896 -0.4075
 1679TIP3    H126452   1.014   0.611   3.750  1.2478  0.9414 -0.5921
 1679TIP3    H226453   0.922   0.601   3.629 -0.1275 -1.4886  0.6363
 1680TIP3   OH226454   0.373   1.856   1.534  0.0118  0.7314 -0.1572
 1680TIP3    H126455   0.376   1.830   1.626  0.4766  0.2592 -0.3057
 1680TIP3    H226456   0.331   1.942   1.535  0.3142  0.8773  0.5321
 1681TIP3   OH226457   4.192   1.245  15.396 -0.0906  0.0298 -0.7577
 1681TIP3    H126458   4.190   1.154  15.426 -0.6790  0.1839 -0.3181
 1681TIP3    H226459   4.254   1.245  15.323  1.0443 -0.4421  0.1785
 1682TIP3   OH226460   1.219   3.596   0.339  0.8469 -0.4334  0.4075
 1682TIP3    H126461   1.214   3.533   0.411  1.4432  1.1183  1.8251
 1682TIP3    H226462   1.129   3.627   0.328  1.1510  1.1589  2.1686
 1683TIP3   OH226463   3.130   1.651  14.398 -0.4477  0.3320 -0.3420
 1683TIP3    H126464   3.167   1.563  14.396  0.6692  0.7944 -0.4819
 1683TIP3    H226465   3.114   1.668  14.491 -0.0704  0.2211 -0.2540
 1684TIP3   OH226466   6.678   1.217   4.122 -0.3744  0.5228  0.5103
 1684TIP3    H126467   6.604   1.157   4.112  1.2058 -1.4600  0.2612
 1684TIP3    H226468   6.649   1.298   4.082 -1.9650 -0.6148 -0.6969
 1685TIP3   OH226469   4.584   5.628  15.186  0.1744 -0.1458 -0.1969
 1685TIP3    H126470   4.671   5.667  15.192  0.5963 -0.9898 -0.8525
 1685TIP3    H226471   4.531   5.695  15.142  0.1841  0.8572  1.2704
 1686TIP3   OH226472   2.857   4.533  16.542  0.1469  0.2753  0.0133
 1686TIP3    H126473   2.832   4.599  16.477 -1.1155  2.1178  2.3140
 1686TIP3    H226474   2.913   4.580  16.604 -0.0564 -1.0205  1.2047
 1687TIP3   OH226475   0.426   3.997  16.984  0.2581  0.3379  0.0895
 1687TIP3    H126476   0.477   4.076  16.997 -0.1555  0.7160 -0.5446
 1687TIP3    H226477   0.451   3.966  16.897  1.0859 -0.7271  0.6946
 1688TIP3   OH226478   2.261   0.106   3.908  0.5645 -0.2208 -0.8384
 1688TIP3    H126479   2.330   0.172   3.902  1.8822 -1.2921  1.6432
 1688TIP3    H226480   2.308   0.023   3.912 -0.8410 -0.9526  1.2696
 1689TIP3   OH226481   6.169   1.076   1.849 -0.3170 -0.0642 -0.1741
 1689TIP3    H126482   6.193   1.157   1.894  0.8662  1.5466 -3.5529
 1689TIP3    H226483   6.237   1.013   1.873 -1.1265 -0.0297  2.3023
 1690TIP3   OH226484   3.442   5.851  12.968 -0.3701  0.5583 -0.1756
 1690TIP3    H126485   3.406   5.851  12.879  1.2000 -0.7922 -0.8469
 1690TIP3    H226486   3.531   5.884  12.958  0.5880 -1.7062  0.5200
 1691TIP3   OH226487   2.956   0.633   2.133 -0.0903  0.1331 -0.7681
 1691TIP3    H126488   2.878   0.595   2.172  0.4746  0.3252  0.5716
 1691TIP3    H226489   2.957   0.600   2.043 -0.9283 -1.0158 -0.3558
 1692TIP3   OH226490   1.577   3.261  16.113  0.1543 -0.2135  0.0871
 1692TIP3    H126491   1.601   3.185  16.165 -1.9992 -0.2811  1.0601
 1692TIP3    H226492   1.653   3.319  16.117  1.2284 -1.6542  0.5940
 1693TIP3   OH226493   6.758   2.902  14.431  0.8454  0.0013  0.0555
 1693TIP3    H126494   6.702   2.919  14.356  1.4211  0.0938 -0.3586
 1693TIP3    H226495   6.700   2.907  14.507  0.8678  3.4568 -0.0812
 1694TIP3   OH226496   3.563   4.493  15.440 -0.1515 -0.0973 -0.5037
 1694TIP3    H126497   3.536   4.456  15.356 -0.8266 -0.3326 -0.1906
 1694TIP3    H226498   3.652   4.525  15.425  0.1201 -1.0795 -1.0119
 1695TIP3   OH226499   4.722   0.092  15.681 -0.4438  0.1921  0.5882
 1695TIP3    H126500   4.801   0.055  15.641 -0.9820  0.1805 -0.4896
 1695TIP3    H226501   4.741   0.094  15.775  1.0082  0.6198  0.2922
 1696TIP3   OH226502   2.181   0.383   1.745 -0.3851  0.1234 -0.2655
 1696TIP3    H126503   2.190   0.377   1.840 -1.2683 -0.9470 -0.2437
 1696TIP3    H226504   2.171   0.477   1.728  1.4066  0.4975  0.5340
 1697TIP3   OH226505   6.617   0.996   5.923 -0.6680  0.2165 -0.7493
 1697TIP3    H126506   6.641   1.082   5.959  1.7829 -0.6025 -0.3422
 1697TIP3    H226507   6.525   0.986   5.946  0.0011  1.0561  2.6399
 1698TIP3   OH226508   3.400   1.470   2.168  0.3297  0.2666  0.2997
 1698TIP3    H126509   3.429   1.391   2.124  0.0866 -0.1160  0.8245
 1698TIP3    H226510   3.467   1.487   2.234  0.0208  0.0987  0.6588
 1699TIP3   OH226511   0.229   3.599  16.939 -0.1227 -0.7040  0.9012
 1699TIP3    H126512   0.167   3.606  16.867  0.7195 -0.4838  0.1946
 1699TIP3    H226513   0.241   3.505  16.953  1.8383 -0.7873 -1.1001
 1700TIP3   OH226514   0.260   4.206  14.285  0.7604  0.7104 -0.5678
 1700TIP3    H126515   0.309   4.197  14.367  0.0531 -0.5372 -0.2658
 1700TIP3    H226516   0.227   4.296  14.287  0.5082  0.6020  0.6659
 1701TIP3   OH226517   3.698   6.365   1.919 -0.2055 -0.1640  0.2216
 1701TIP3    H126518   3.776   6.412   1.891  0.4863 -1.5992 -0.3132
 1701TIP3    H226519   3.653   6.342   1.838  0.4963 -2.1245  0.3546
 1702TIP3   OH226520   2.379   3.235   4.325  0.3120  0.2419 -0.1912
 1702TIP3    H126521   2.415   3.238   4.413 -1.1148  0.5614  0.3948
 1702TIP3    H226522   2.368   3.141   4.307 -1.5966  0.2431  0.8963
 1703TIP3   OH226523   2.008   1.609   5.113  0.2957  0.0413  0.4752
 1703TIP3    H126524   1.970   1.635   5.197  1.0168  0.8997  0.5369
 1703TIP3    H226525   2.024   1.691   5.068  0.9994 -0.3760 -0.0365
 1704TIP3   OH226526   0.953   6.095  13.899 -0.4194  0.6810 -0.7045
 1704TIP3    H126527   0.945   6.119  13.991 -0.2195 -0.8592 -0.2828
 1704TIP3    H226528   1.015   6.158  13.863 -0.1845  1.0308  0.3069
 1705TIP3   OH226529   0.705   0.382  12.289  0.1012 -0.5913 -0.2157
 1705TIP3    H126530   0.785   0.416  12.249 -0.0455  1.0777  0.8557
 1705TIP3    H226531   0.722   0.385  12.383 -0.4766 -2.1409 -0.0537
 1706TIP3   OH226532   0.686   1.235   4.707  0.1211  0.1530 -0.3939
 1706TIP3    H126533   0.654   1.188   4.630 -0.0001  1.4846 -1.1776
 1706TIP3    H226534   0.618   1.221   4.773  0.0794 -0.7406 -0.6148
 1707TIP3   OH226535   3.398   2.500  11.256  0.1745 -0.1655  0.0317
 1707TIP3    H126536   3.488   2.478  11.232 -0.1359 -0.4777 -0.8606
 1707TIP3    H226537   3.367   2.557  11.186 -0.5482 -0.6202 -0.0318
 1708TIP3   OH226538   4.461   5.511  13.707  0.3654  0.4415  0.2031
 1708TIP3    H126539   4.420   5.585  13.662 -0.0248  0.5901  0.7916
 1708TIP3    H226540   4.395   5.442  13.705  1.0389 -0.1784 -1.0779
 1709TIP3   OH226541   2.909   5.323  14.325 -0.1431 -0.8106 -0.1394
 1709TIP3    H126542   2.864   5.265  14.264  0.1410  0.1630 -1.3045
 1709TIP3    H226543   2.998   5.290  14.330  0.5782  0.7006 -2.3965
 1710TIP3   OH226544   5.090   5.282  13.241 -0.4044 -0.4391 -0.1818
 1710TIP3    H126545   5.161   5.298  13.179 -1.2743  2.3849 -0.5119
 1710TIP3    H226546   5.135   5.256  13.322  1.0242  1.0076 -0.4785
 1711TIP3   OH226547   2.090   1.079   5.217  0.1173 -0.3880  0.1743
 1711TIP3    H126548   2.035   1.067   5.139 -0.7636  0.5935  0.6354
 1711TIP3    H226549   2.121   1.170   5.210  2.8688 -1.3691 -0.8389
 1712TIP3   OH226550   3.652   1.592   2.576  0.1665  0.9813 -0.0024
 1712TIP3    H126551   3.661   1.677   2.532  0.3798 -0.0832 -2.0754
 1712TIP3    H226552   3.738   1.576   2.614  0.6900  0.8343 -1.2251
 1713TIP3   OH226553   1.240   2.299   5.400 -0.0650  0.5095 -0.0799
 1713TIP3    H126554   1.240   2.335   5.311  0.1160 -0.1513 -0.3510
 1713TIP3    H226555   1.170   2.233   5.399  0.2347  0.1878  0.1358
 1714TIP3   OH226556   3.614   4.104  16.975  0.0888 -0.0394  0.3823
 1714TIP3    H126557   3.654   4.073  17.057  2.3456  0.4114 -0.4964
 1714TIP3    H226558   3.529   4.060  16.971  1.6697 -3.3001  0.9404
 1715TIP3   OH226559   0.248   1.320   3.486 -0.0944 -0.1131 -0.0151
 1715TIP3    H126560   0.228   1.402   3.531  0.4310  0.0608 -0.0925
 1715TIP3    H226561   0.300   1.270   3.548  3.0520  1.2925 -1.4108
 1716TIP3   OH226562   4.160   5.546   4.313 -0.2385  0.1069  0.4533
 1716TIP3    H126563   4.254   5.562   4.322 -0.0026  0.0842 -1.7509
 1716TIP3    H226564   4.147   5.457   4.348  1.1667 -1.2828 -2.4343
 1717TIP3   OH226565   2.124   1.733  13.691 -0.3661 -0.4027 -0.5304
 1717TIP3    H126566   2.062   1.797  13.657 -0.5102  0.2829  0.9851
 1717TIP3    H226567   2.076   1.687  13.760  0.0348 -1.5174 -0.9797
 1718TIP3   OH226568   4.824   4.010  14.310  0.0977  0.0438  0.1550
 1718TIP3    H126569   4.789   4.033  14.224 -0.8025 -0.1122  0.4693
 1718TIP3    H226570   4.899   3.954  14.291 -0.0274  0.0996 -0.5335
 1719TIP3   OH226571   2.956   4.893  16.545  1.1390  0.3526  0.0717
 1719TIP3    H126572   2.875   4.945  16.548  1.5716  0.9845  1.5538
 1719TIP3    H226573   3.003   4.919  16.625  2.5884 -0.3500 -0.5494
 1720TIP3   OH226574   6.045   2.459   2.773  0.3880 -0.1261 -0.5806
 1720TIP3    H126575   6.121   2.470   2.829  0.1121  0.3540 -0.2930
 1720TIP3    H226576   6.046   2.535   2.716 -0.0368  0.0319 -0.3805
 1721TIP3   OH226577   5.939   5.233  12.637 -0.0018 -0.3391  0.1150
 1721TIP3    H126578   5.951   5.167  12.569  0.4804 -0.6891  0.5393
 1721TIP3    H226579   5.919   5.183  12.716 -1.6569  0.1104  0.0015
 1722TIP3   OH226580   2.777   5.137  16.777  0.2955  0.1959  0.2961
 1722TIP3    H126581   2.814   5.048  16.777  0.9621  0.4642 -0.0100
 1722TIP3    H226582   2.824   5.181  16.706 -0.7041  0.5183 -0.1586
 1723TIP3   OH226583   3.611   5.325   5.111 -0.4401  0.1336 -0.0300
 1723TIP3    H126584   3.536   5.288   5.065 -0.6135  0.4396  0.0025
 1723TIP3    H226585   3.573   5.370   5.187 -0.2390  0.4153 -0.0949
 1724TIP3   OH226586   5.072   4.439   0.371 -1.2317 -0.2574  0.0463
 1724TIP3    H126587   5.100   4.376   0.437 -2.4928 -0.1905  0.6514
 1724TIP3    H226588   5.028   4.508   0.420 -0.3681  0.8307 -0.6709
 1725TIP3   OH226589   1.437   6.198  11.947 -0.7472 -0.4580 -0.3830
 1725TIP3    H126590   1.423   6.284  11.906 -1.9462 -0.2610  0.4035
 1725TIP3    H226591   1.509   6.160  11.898 -2.1353 -0.2148 -2.7210
 1726TIP3   OH226592   6.375   4.853  11.282  0.0172  0.0568 -0.3336
 1726TIP3    H126593   6.436   4.835  11.353 -2.2530 -1.8491  1.2228
 1726TIP3    H226594   6.394   4.943  11.256  1.0946  0.7108  2.5094
 1727TIP3   OH226595   2.486   3.344   3.294  0.2702 -0.4669  0.4088
 1727TIP3    H126596   2.460   3.286   3.222 -1.0565 -0.2134  0.6804
 1727TIP3    H226597   2.582   3.336   3.297  0.1166 -2.6682  0.4633
 1728TIP3   OH226598   0.808   1.204   1.935  0.8386 -0.1611  0.8177
 1728TIP3    H126599   0.863   1.274   1.899  0.3952 -0.5033 -0.5501
 1728TIP3    H226600   0.731   1.249   1.969  0.5645  0.0280 -0.0415
 1729TIP3   OH226601   1.063   0.129   1.001 -0.1764  0.3742  0.7109
 1729TIP3    H126602   1.057   0.137   1.096 -2.4843  1.4376  0.5004
 1729TIP3    H226603   1.028   0.042   0.982 -3.6977  1.7579  0.5349
 1730TIP3   OH226604   5.005   4.998   0.981  0.1916 -0.2897 -0.0891
 1730TIP3    H126605   4.911   5.010   0.963  0.3559  0.1377 -0.6772
 1730TIP3    H226606   5.007   4.950   1.063 -0.5449  3.0235  1.9677
 1731TIP3   OH226607   0.621   1.323   5.917 -0.1866  0.9092  0.2540
 1731TIP3    H126608   0.677   1.401   5.915  2.5648 -1.0428 -0.5964
 1731TIP3    H226609   0.588   1.315   5.827  2.7247 -1.1119 -0.6914
 1732TIP3   OH226610   5.234   1.556   2.619 -0.0553 -0.3239 -0.3511
 1732TIP3    H126611   5.305   1.609   2.583 -0.3990 -0.4981 -1.3107
 1732TIP3    H226612   5.273   1.471   2.637  0.8862  0.6703  2.6572
 1733TIP3   OH226613   1.398   5.034   6.402 -0.0922  0.2309 -0.3759
 1733TIP3    H126614   1.471   5.042   6.463 -0.4274 -0.5285  0.1181
 1733TIP3    H226615   1.335   5.099   6.431 -0.7001 -0.8377  0.7141
 1734TIP3   OH226616   3.141   1.521   5.815 -0.2798 -0.3247  0.2346
 1734TIP3    H126617   3.128   1.468   5.894 -1.3531 -0.6880 -0.1807
 1734TIP3    H226618   3.236   1.526   5.805 -0.1362 -0.3108  1.5264
 1735TIP3   OH226619   5.556   1.116   5.240 -0.5021 -0.2884 -1.1430
 1735TIP3    H126620   5.624   1.051   5.259 -1.8183 -0.9641  1.6205
 1735TIP3    H226621   5.523   1.141   5.327 -3.4097  0.4099 -2.3971
 1736TIP3   OH226622   2.367   4.679  11.061  0.2539  0.5846  0.2508
 1736TIP3    H126623   2.290   4.736  11.062 -3.3890 -4.0418 -1.4916
 1736TIP3    H226624   2.419   4.710  10.987 -0.8611  2.5878  0.2791
 1737TIP3   OH226625   2.496   3.678  16.281 -0.4346 -0.3581  0.5756
 1737TIP3    H126626   2.531   3.591  16.262 -0.9541 -0.6263  0.8163
 1737TIP3    H226627   2.523   3.694  16.372 -0.9518 -0.5788  0.7730
 1738TIP3   OH226628   2.721   4.801   0.411 -0.1273  0.2686 -0.5911
 1738TIP3    H126629   2.631   4.834   0.407  1.1113  3.8634 -0.3601
 1738TIP3    H226630   2.760   4.826   0.327  1.2747  0.6892  0.1652
 1739TIP3   OH226631   5.121   3.469   1.639  0.4761 -0.1943 -0.0368
 1739TIP3    H126632   5.117   3.380   1.676 -1.1851 -0.5685 -1.0688
 1739TIP3    H226633   5.194   3.510   1.685  0.7458 -1.8241  1.0590
 1740TIP3   OH226634   5.239   3.274  13.415 -0.3548  0.1216 -0.4406
 1740TIP3    H126635   5.328   3.281  13.450  0.1448  0.0428 -1.6550
 1740TIP3    H226636   5.229   3.349  13.358 -1.5151  0.7834  0.6053
 1741TIP3   OH226637   4.062   2.270  15.308  0.1860  0.1549 -0.3555
 1741TIP3    H126638   4.137   2.222  15.343  0.6809  1.4854  0.4703
 1741TIP3    H226639   4.100   2.349  15.269 -0.7924  0.9677  0.2874
 1742TIP3   OH226640   2.835   4.728   3.228  0.0695  0.3041 -0.4445
 1742TIP3    H126641   2.840   4.810   3.178 -1.3670  0.6385 -0.0663
 1742TIP3    H226642   2.823   4.756   3.319  3.2344 -0.3005  0.2011
 1743TIP3   OH226643   0.864   5.822  12.634 -0.3154 -0.2416 -0.2085
 1743TIP3    H126644   0.950   5.816  12.592 -1.5087  0.1281 -2.7936
 1743TIP3    H226645   0.850   5.736  12.673  2.1822  0.3937  2.2602
 1744TIP3   OH226646   4.528   1.918   6.216 -0.1268 -0.2584  0.7539
 1744TIP3    H126647   4.570   1.929   6.301  0.5881 -2.6369  0.7414
 1744TIP3    H226648   4.473   1.840   6.226 -2.7193  1.3919  0.0332
 1745TIP3   OH226649   5.575   6.239  15.992  0.9584  0.4254  0.3627
 1745TIP3    H126650   5.640   6.305  16.015  1.0953  0.0049  1.1952
 1745TIP3    H226651   5.560   6.191  16.073 -0.4452  0.5680  0.1893
 1746TIP3   OH226652   2.385   5.997  14.423 -0.2892 -0.1411 -0.2324
 1746TIP3    H126653   2.416   6.026  14.337  2.0534 -1.0133  0.2994
 1746TIP3    H226654   2.295   5.967  14.406 -0.1909  0.5546 -2.1865
 1747TIP3   OH226655   4.051   1.440  10.824  0.2839 -0.1841  0.0461
 1747TIP3    H126656   4.081   1.459  10.913  3.3133  1.4164 -1.2615
 1747TIP3    H226657   4.115   1.483  10.767 -1.8119 -0.8538 -2.9257
 1748TIP3   OH226658   4.016   1.239  16.134 -0.3510 -0.0910  0.2316
 1748TIP3    H126659   4.027   1.325  16.173  0.3077 -0.0548 -0.0314
 1748TIP3    H226660   4.086   1.232  16.069 -0.4308 -0.7999  0.2091
 1749TIP3   OH226661   0.026   4.596   1.470  0.0395  0.4874 -0.7294
 1749TIP3    H126662  -0.060   4.591   1.511  0.5050  0.0712  0.2220
 1749TIP3    H226663   0.048   4.505   1.447 -0.0259  0.6628 -1.5067
 1750TIP3   OH226664   4.440   0.318  15.948 -0.1515 -0.3381  0.2366
 1750TIP3    H126665   4.394   0.322  15.865  0.1633 -2.4046 -0.0777
 1750TIP3    H226666   4.533   0.315  15.924 -0.0506 -0.6980  0.6621
 1751TIP3   OH226667   5.371   2.621   0.393 -0.0763 -0.3739 -0.7439
 1751TIP3    H126668   5.415   2.560   0.335  0.0607 -0.0012 -1.0362
 1751TIP3    H226669   5.330   2.566   0.460  0.5921 -0.7361 -0.6310
 1752TIP3   OH226670   1.782   0.970   6.593  0.0555  0.3312  0.3345
 1752TIP3    H126671   1.831   1.051   6.611 -0.8663  1.1975 -0.9643
 1752TIP3    H226672   1.693   0.990   6.622 -0.2329 -0.1185 -0.2369
 1753TIP3   OH226673   1.180   3.041  17.076 -0.0407 -0.7968 -0.1180
 1753TIP3    H126674   1.178   3.055  16.981  0.7510  1.2472  0.1511
 1753TIP3    H226675   1.273   3.039  17.098 -0.2312  0.6275  0.8720
 1754TIP3   OH226676   6.653   4.804   1.088 -0.5809 -0.3137 -0.3287
 1754TIP3    H126677   6.707   4.730   1.062 -0.7902  0.4070 -3.0090
 1754TIP3    H226678   6.699   4.881   1.053  0.2353  0.9788  3.3656
 1755TIP3   OH226679   5.588   4.853  15.878 -0.1551  0.3536 -0.0657
 1755TIP3    H126680   5.587   4.933  15.930 -2.0315  0.7741 -0.6930
 1755TIP3    H226681   5.501   4.849  15.839  0.9452 -0.2918 -2.6251
 1756TIP3   OH226682   1.767   3.077  12.072  0.0272  0.2613  0.4495
 1756TIP3    H126683   1.799   3.071  11.982  1.8803 -0.0222  1.0904
 1756TIP3    H226684   1.700   3.145  12.070 -0.0083  0.1920 -1.1559
 1757TIP3   OH226685   5.649   3.875  14.296  0.0856  0.2172  0.6911
 1757TIP3    H126686   5.718   3.873  14.230  0.7159 -1.1681  1.3746
 1757TIP3    H226687   5.571   3.842  14.251  0.3381 -0.0345  0.4394
 1758TIP3   OH226688   0.761   3.970   5.568  0.0104 -0.1280 -0.0833
 1758TIP3    H126689   0.670   3.942   5.577  0.0295 -0.4000 -0.7558
 1758TIP3    H226690   0.785   3.999   5.656 -1.2557  1.5933 -0.2801
 1759TIP3   OH226691   6.185   6.017   1.836  0.0724  0.1140  0.3258
 1759TIP3    H126692   6.227   5.939   1.872  3.4443  1.3133 -0.9054
 1759TIP3    H226693   6.222   6.026   1.749 -1.9655  1.8690 -0.4007
 1760TIP3   OH226694   6.277   2.282  13.210 -0.7650 -0.4447  0.0655
 1760TIP3    H126695   6.364   2.283  13.169 -1.1688 -0.5724 -0.8004
 1760TIP3    H226696   6.289   2.330  13.292  0.1727 -0.6478  0.0535
 1761TIP3   OH226697   6.227   5.405   1.614  0.2918 -0.6379 -0.3763
 1761TIP3    H126698   6.312   5.381   1.575  0.4629  1.3708 -1.2830
 1761TIP3    H226699   6.163   5.385   1.546  0.4409  1.4843 -1.1584
 1762TIP3   OH226700   1.035   1.139   0.277  0.4312  0.5632 -0.6198
 1762TIP3    H126701   0.990   1.163   0.196 -0.6047  0.7588  0.0153
 1762TIP3    H226702   1.102   1.206   0.288 -0.9342  1.8619 -0.0912
 1763TIP3   OH226703   6.668   5.637   4.774  0.8476  0.3187  0.0909
 1763TIP3    H126704   6.646   5.634   4.867  0.0910 -1.4951 -0.1425
 1763TIP3    H226705   6.585   5.655   4.730  1.2149  1.2421 -0.2487
 1764TIP3   OH226706   4.576   0.917   4.825 -0.6780 -0.3175  0.1179
 1764TIP3    H126707   4.610   0.914   4.736  1.2724 -1.2815  0.8344
 1764TIP3    H226708   4.543   1.006   4.836  0.0868  0.1457 -1.2110
 1765TIP3   OH226709   3.537   6.282  11.032  0.1231 -0.0936 -0.9552
 1765TIP3    H126710   3.461   6.314  11.080  1.0427 -1.0001  1.1257
 1765TIP3    H226711   3.503   6.214  10.974 -0.8201  0.3217 -0.8920
 1766TIP3   OH226712   3.423   3.015   0.687  0.8527 -0.2257 -0.2570
 1766TIP3    H126713   3.453   2.982   0.771 -0.8525  1.1120  0.8993
 1766TIP3    H226714   3.469   2.961   0.622  2.1109 -1.3154  1.5105
 1767TIP3   OH226715   5.810   6.116  14.195 -0.5051 -0.7493 -0.1946
 1767TIP3    H126716   5.804   6.210  14.206  1.0430 -0.5768 -0.6684
 1767TIP3    H226717   5.839   6.083  14.280 -0.9982 -0.7985 -0.0443
 1768TIP3   OH226718   2.782   6.207  15.976 -0.3548  0.3738  0.2612
 1768TIP3    H126719   2.729   6.180  15.901 -1.4491 -0.1023  1.1915
 1768TIP3    H226720   2.780   6.131  16.034 -1.4099  1.5627  1.7940
 1769TIP3   OH226721   5.514   1.118  10.838  0.5267  0.1379 -0.1209
 1769TIP3    H126722   5.594   1.144  10.792  1.3385  0.1993  1.2684
 1769TIP3    H226723   5.445   1.171  10.799  1.0957 -0.1771 -1.5936
 1770TIP3   OH226724   0.449   5.524   0.235  0.1331 -0.0135  0.6641
 1770TIP3    H126725   0.521   5.563   0.284  1.2859  0.3583 -1.2487
 1770TIP3    H226726   0.492   5.477   0.163 -1.5085  0.0088 -0.3622
 1771TIP3   OH226727   0.798   1.544   1.820  0.5656  0.0310  0.0358
 1771TIP3    H126728   0.744   1.513   1.748  1.8750 -0.4084 -0.7792
 1771TIP3    H226729   0.870   1.481   1.825  0.6560  0.2236  1.5338
 1772TIP3   OH226730   4.353   4.958   6.300 -0.1939  0.2278 -0.6927
 1772TIP3    H126731   4.339   4.866   6.324 -0.4975  0.2355 -0.8460
 1772TIP3    H226732   4.447   4.972   6.317  0.2292 -0.5722 -2.2732
 1773TIP3   OH226733   4.896   5.649   5.603 -0.4764  0.0437 -0.7102
 1773TIP3    H126734   4.819   5.638   5.659  0.4234  2.0522  0.9756
 1773TIP3    H226735   4.881   5.733   5.558  0.3242  0.0155 -1.0373
 1774TIP3   OH226736   6.681   4.188   6.064  0.0286  0.3842  0.5170
 1774TIP3    H126737   6.738   4.201   6.140  0.1095  0.9089  0.3667
 1774TIP3    H226738   6.736   4.142   6.000 -0.2914 -0.8174  1.0879
 1775TIP3   OH226739   4.854   3.459  10.807  0.2865  0.4624  0.6458
 1775TIP3    H126740   4.905   3.427  10.881 -0.5348  3.0728  2.4125
 1775TIP3    H226741   4.768   3.417  10.817 -0.6062  2.6821  2.6211
 1776TIP3   OH226742   6.232   0.036  16.727  0.4926  0.1453 -0.2833
 1776TIP3    H126743   6.314   0.073  16.692  0.8060 -1.2860 -1.0770
 1776TIP3    H226744   6.261  -0.023  16.797  0.0104  1.0864  0.7229
 1777TIP3   OH226745   3.081   2.896  14.208  0.2699  0.0323 -0.1045
 1777TIP3    H126746   3.112   2.838  14.278  0.4722 -1.0437 -1.0796
 1777TIP3    H226747   3.042   2.971  14.255 -0.2560 -1.0130  1.1743
 1778TIP3   OH226748   2.895   6.651  16.700 -0.4703 -0.7361  0.1819
 1778TIP3    H126749   2.918   6.639  16.608  0.4737  0.0341  0.3226
 1778TIP3    H226750   2.828   6.720  16.700  1.0479  0.7542  0.2598
 1779TIP3   OH226751   4.559   4.946  16.931  0.1101  0.0598 -0.0056
 1779TIP3    H126752   4.620   4.962  16.859 -0.7829  0.4373 -0.7001
 1779TIP3    H226753   4.594   4.869  16.976 -0.0029 -0.9714 -1.6275
 1780TIP3   OH226754   5.135   2.565  11.325  0.2613 -0.3486 -0.5334
 1780TIP3    H126755   5.230   2.558  11.337  0.5374  1.2875 -1.6589
 1780TIP3    H226756   5.112   2.648  11.366 -0.7983 -1.0647  0.3330
 1781TIP3   OH226757   6.763   6.155  16.962  0.1153 -0.9084 -0.0124
 1781TIP3    H126758   6.805   6.241  16.958 -2.3310  0.3183  0.0524
 1781TIP3    H226759   6.820   6.098  16.911  1.5682  0.8190 -0.3667
 1782TIP3   OH226760   4.499   6.208  15.322  0.8358  0.5426 -0.1267
 1782TIP3    H126761   4.404   6.205  15.305  0.9966  1.0828 -1.1328
 1782TIP3    H226762   4.512   6.292  15.365  0.6332 -0.2352  1.5263
 1783TIP3   OH226763   0.235   1.839   4.152  0.3874 -0.7439 -0.1330
 1783TIP3    H126764   0.271   1.850   4.240 -1.3527  2.6538  0.2311
 1783TIP3    H226765   0.159   1.783   4.164 -0.2094  0.2205  0.6384
 1784TIP3   OH226766   2.493   6.662   3.936 -0.4539 -0.3386 -0.0246
 1784TIP3    H126767   2.444   6.624   3.863  0.5813 -0.9976 -0.3977
 1784TIP3    H226768   2.483   6.600   4.008 -1.3362  0.2289  0.3486
 1785TIP3   OH226769   5.730   1.216  16.763  0.0644 -0.4444 -0.1437
 1785TIP3    H126770   5.734   1.120  16.771  0.0198 -0.4968 -0.7067
 1785TIP3    H226771   5.814   1.240  16.723  0.5766 -0.1235  1.0910
 1786TIP3   OH226772   0.978   3.762  10.643  0.1036 -0.4065  0.0822
 1786TIP3    H126773   0.913   3.816  10.687  0.6379 -0.5300  1.0361
 1786TIP3    H226774   0.940   3.744  10.557 -0.1966  1.2333 -0.1390
 1787TIP3   OH226775   4.184   5.156  10.590 -0.2744 -0.1772  0.0426
 1787TIP3    H126776   4.270   5.119  10.569  0.3228  0.4752  1.2682
 1787TIP3    H226777   4.161   5.116  10.673 -0.6172  0.5475  0.2995
 1788TIP3   OH226778   3.250   1.986  15.206 -0.3642 -0.0061  0.8133
 1788TIP3    H126779   3.182   2.043  15.242 -0.9018 -1.1049  1.5677
 1788TIP3    H226780   3.296   1.952  15.283  1.4392  1.1953  0.2891
 1789TIP3   OH226781   5.938   0.857  15.277 -0.1614 -0.5292 -0.8707
 1789TIP3    H126782   6.023   0.834  15.313  0.7960  0.2863 -2.5087
 1789TIP3    H226783   5.959   0.899  15.193 -2.1102  0.8566 -0.6873
 1790TIP3   OH226784   4.244   3.064   0.424 -0.2263  0.2764 -0.0887
 1790TIP3    H126785   4.212   3.116   0.498  0.7357 -0.7292  1.0629
 1790TIP3    H226786   4.310   3.120   0.383 -0.1856  0.5213  0.3076
 1791TIP3   OH226787   0.235   6.593  15.860  0.1962  0.3961  0.2560
 1791TIP3    H126788   0.249   6.506  15.897 -0.4833  1.1709  2.4018
 1791TIP3    H226789   0.322   6.620  15.829  0.9845  0.0875  2.1169
 1792TIP3   OH226790   3.595   1.643   0.186 -0.3407 -0.0209 -0.2993
 1792TIP3    H126791   3.585   1.640   0.281 -0.1991 -1.2303 -0.3035
 1792TIP3    H226792   3.668   1.703   0.171  0.6520 -1.0213  0.4566
 1793TIP3   OH226793   0.706   1.416  14.156 -0.6251  0.2789 -0.5015
 1793TIP3    H126794   0.744   1.481  14.097  0.8351 -2.6688 -2.9229
 1793TIP3    H226795   0.765   1.415  14.232 -0.3613  1.3790 -0.6868
 1794TIP3   OH226796   0.814   4.215  14.033 -0.7878 -0.3449 -0.0525
 1794TIP3    H126797   0.748   4.282  14.049 -0.2361  0.0326  0.6421
 1794TIP3    H226798   0.817   4.207  13.938 -1.1793  0.2860 -0.1207
 1795TIP3   OH226799   3.751   3.413   0.614  0.0720 -0.0859 -0.1858
 1795TIP3    H126800   3.678   3.376   0.663 -1.6403  0.8518 -1.9738
 1795TIP3    H226801   3.711   3.449   0.535  2.4821  0.3605 -1.2405
 1796TIP3   OH226802   0.741   0.301  15.442 -0.0637 -0.6189 -0.6334
 1796TIP3    H126803   0.743   0.205  15.432 -0.1724 -0.5641 -1.1748
 1796TIP3    H226804   0.690   0.315  15.522  0.4224 -1.0343 -0.2392
 1797TIP3   OH226805   2.483   1.124  14.489 -0.2049  0.0436  0.3029
 1797TIP3    H126806   2.418   1.085  14.547  0.1467  0.8974  1.3027
 1797TIP3    H226807   2.508   1.054  14.428 -2.9596  0.0618 -0.8863
 1798TIP3   OH226808   5.579   2.920   0.816 -0.3571 -0.4865 -0.1631
 1798TIP3    H126809   5.514   2.849   0.811  0.0390 -0.8291 -0.5660
 1798TIP3    H226810   5.570   2.966   0.733 -1.5112  0.7379  0.6359
 1799TIP3   OH226811   4.973   2.590  13.262  0.0287  0.5114  0.2218
 1799TIP3    H126812   4.945   2.625  13.347  1.2903  2.1731 -0.0135
 1799TIP3    H226813   4.943   2.656  13.199  2.0589  0.9864 -0.2835
 1800TIP3   OH226814   2.829   5.441   4.597  0.5419  0.0869 -0.1766
 1800TIP3    H126815   2.882   5.496   4.540  1.3237  0.8968  1.2861
 1800TIP3    H226816   2.769   5.501   4.641  1.7396 -0.1224  1.8053
 1801TIP3   OH226817   0.947   1.332  12.232  0.0894 -0.0408 -0.7119
 1801TIP3    H126818   0.975   1.349  12.142 -1.6158 -2.1089 -1.6585
 1801TIP3    H226819   0.920   1.241  12.232 -2.0684  0.5566  1.3659
 1802TIP3   OH226820   3.918   5.052   2.035 -0.2999  0.1753  0.5354
 1802TIP3    H126821   3.886   5.103   2.110 -0.3972  0.7465  0.1024
 1802TIP3    H226822   4.013   5.060   2.039 -0.3152  0.3755  0.4730
 1803TIP3   OH226823   4.293   0.224  15.692 -0.1435  0.1705  0.2328
 1803TIP3    H126824   4.287   0.131  15.716 -0.7070  0.6342  1.9874
 1803TIP3    H226825   4.330   0.224  15.604 -1.1981 -1.7781 -0.2464
 1804TIP3   OH226826   5.426   5.761   6.007  0.3423 -0.0836  0.3308
 1804TIP3    H126827   5.429   5.751   6.102  0.3306 -2.1160  0.1562
 1804TIP3    H226828   5.334   5.748   5.984  0.4591 -0.3081 -0.0179
 1805TIP3   OH226829   3.909   6.550  10.915 -0.3021  0.8688  0.0365
 1805TIP3    H126830   3.860   6.612  10.861  1.3208  2.2514  0.1340
 1805TIP3    H226831   3.948   6.489  10.852 -1.1392  0.4756 -0.1133
 1806TIP3   OH226832   0.253   4.538  16.606  0.1751  0.6394 -0.2280
 1806TIP3    H126833   0.167   4.573  16.582  0.6083  3.3003  1.8843
 1806TIP3    H226834   0.234   4.456  16.652 -1.0935  0.1279 -1.6372
 1807TIP3   OH226835   4.697   5.011   4.180 -0.2973 -0.3692 -0.8809
 1807TIP3    H126836   4.663   4.999   4.269  0.8073  0.0175 -0.3992
 1807TIP3    H226837   4.621   5.036   4.128 -1.1027 -1.3600 -0.2045
 1808TIP3   OH226838   1.516   0.976   1.359  0.0674 -0.5439  0.4538
 1808TIP3    H126839   1.461   0.953   1.434 -0.0562 -1.6198  0.0327
 1808TIP3    H226840   1.601   0.998   1.397 -0.2724 -0.1475  0.9913
 1809TIP3   OH226841   0.870   3.436  11.852  0.4297  0.6805  0.1219
 1809TIP3    H126842   0.823   3.485  11.920 -0.3885 -2.4073  1.8679
 1809TIP3    H226843   0.803   3.413  11.788  0.6901  1.3076 -0.3748
 1810TIP3   OH226844   0.502   3.763  15.816 -0.7255 -0.4239  0.2437
 1810TIP3    H126845   0.463   3.792  15.898 -0.7137 -0.1908  0.1698
 1810TIP3    H226846   0.454   3.811  15.748  1.2629  1.7463  0.2728
 1811TIP3   OH226847   4.104   2.532   2.796  0.3936  0.0684  0.0005
 1811TIP3    H126848   4.057   2.535   2.713  0.4590 -0.4494 -0.0543
 1811TIP3    H226849   4.048   2.580   2.857  0.2955  0.3576 -0.3151
 1812TIP3   OH226850   2.531   6.723   1.625 -0.6519  0.2766 -0.6530
 1812TIP3    H126851   2.495   6.799   1.670 -1.6962 -0.4363 -0.2580
 1812TIP3    H226852   2.625   6.731   1.635 -0.8394  0.5890  0.8847
 1813TIP3   OH226853   3.280   0.720   3.634  0.1203  0.0356 -0.3849
 1813TIP3    H126854   3.353   0.718   3.696  0.8330  1.1489 -1.1657
 1813TIP3    H226855   3.268   0.629   3.608  1.6955 -0.0754 -0.7773
 1814TIP3   OH226856   3.852   4.327   0.337 -0.6065 -0.4972 -0.2635
 1814TIP3    H126857   3.942   4.355   0.323 -0.8975  0.5790 -0.0591
 1814TIP3    H226858   3.807   4.347   0.255 -1.3766  1.9853  0.7193
 1815TIP3   OH226859   0.789   1.864   0.413 -0.0654 -0.0538 -0.4510
 1815TIP3    H126860   0.717   1.884   0.473  0.6190  0.9445  0.0673
 1815TIP3    H226861   0.860   1.835   0.470 -0.2411 -1.6147 -1.0090
 1816TIP3   OH226862   5.100   6.225   3.806  0.1769  0.1680 -0.3637
 1816TIP3    H126863   5.013   6.223   3.846 -0.1049  1.1370 -0.8817
 1816TIP3    H226864   5.153   6.166   3.859 -0.6848 -0.0830  0.2316
 1817TIP3   OH226865   4.363   3.892  14.701 -0.1486  0.2193  0.2090
 1817TIP3    H126866   4.400   3.961  14.645  1.2228 -0.2639  0.5113
 1817TIP3    H226867   4.382   3.811  14.655 -1.5978  0.0160 -0.0457
 1818TIP3   OH226868   5.527   4.830   2.454  0.1079  0.1018  0.0452
 1818TIP3    H126869   5.611   4.875   2.458 -0.5384  1.3691 -0.3215
 1818TIP3    H226870   5.472   4.887   2.400 -1.5881  0.3138  1.9459
 1819TIP3   OH226871   3.879   6.441  16.087  0.4996 -0.1241 -0.4370
 1819TIP3    H126872   3.910   6.402  16.169  0.8834  0.3358 -0.3620
 1819TIP3    H226873   3.862   6.366  16.030  3.0757 -0.3532 -0.9549
 1820TIP3   OH226874   1.773   2.282   5.663  0.1289  0.3476  0.5382
 1820TIP3    H126875   1.828   2.327   5.728 -0.7831  1.2988  0.6590
 1820TIP3    H226876   1.727   2.353   5.618  0.5387 -0.3268 -0.9599
 1821TIP3   OH226877   1.959   4.088   0.444 -0.3700  0.3702  0.2074
 1821TIP3    H126878   1.902   4.119   0.514 -0.7075  0.4047 -0.0790
 1821TIP3    H226879   1.903   4.088   0.366 -0.3047 -0.7084  0.1547
 1822TIP3   OH226880   1.020   5.596  14.475  0.3177  0.1828  0.1466
 1822TIP3    H126881   1.086   5.648  14.520  0.7859  0.2224 -0.5842
 1822TIP3    H226882   1.053   5.506  14.480  0.0468  0.0997  0.4553
 1823TIP3   OH226883   4.096   3.744  15.494 -0.3411  0.1849 -0.1874
 1823TIP3    H126884   4.061   3.833  15.500  0.4554  0.4651  0.3336
 1823TIP3    H226885   4.175   3.745  15.549  0.4291 -0.4710 -1.2667
 1824TIP3   OH226886   2.263   5.577   6.443 -0.7145 -0.2814 -0.2179
 1824TIP3    H126887   2.296   5.502   6.493 -0.0874 -0.5549 -1.0339
 1824TIP3    H226888   2.231   5.638   6.510  0.2145 -0.5941  0.5194
 1825TIP3   OH226889   0.552   0.046   0.329  0.0798  0.9467  0.1984
 1825TIP3    H126890   0.608   0.015   0.400  0.4789  2.4214  0.5600
 1825TIP3    H226891   0.614   0.086   0.267 -0.4276  1.1507 -0.1765
 1826TIP3   OH226892   2.751   0.194   1.797  0.5597  0.0959 -0.1359
 1826TIP3    H126893   2.660   0.214   1.817  0.9202 -0.3129  1.9680
 1826TIP3    H226894   2.789   0.165   1.880  2.1286 -1.5453 -1.3889
 1827TIP3   OH226895   4.763   0.377   3.564 -0.6819 -0.0228 -0.7831
 1827TIP3    H126896   4.686   0.341   3.518 -1.7693 -0.2106  1.1357
 1827TIP3    H226897   4.819   0.302   3.580 -0.6868 -0.0858 -1.0537
 1828TIP3   OH226898   4.809   5.448  14.939 -0.4673 -0.3719  0.2817
 1828TIP3    H126899   4.770   5.532  14.915  0.1755  0.4772  2.1619
 1828TIP3    H226900   4.792   5.440  15.033  1.5260 -1.2552  0.5780
 1829TIP3   OH226901   0.578   2.026   2.436 -0.1611 -0.0023  0.2325
 1829TIP3    H126902   0.561   2.078   2.357  0.1528 -0.1912  0.0357
 1829TIP3    H226903   0.555   1.937   2.410 -1.7595  0.1991  0.9174
 1830TIP3   OH226904   4.511   4.656   5.752  0.5369  0.3605  0.0851
 1830TIP3    H126905   4.491   4.652   5.846 -0.5845 -1.5532 -0.2108
 1830TIP3    H226906   4.448   4.596   5.712  0.4358  1.8176 -1.9956
 1831TIP3   OH226907   2.582   0.027  14.124  0.5232 -0.4446 -0.2884
 1831TIP3    H126908   2.496   0.026  14.166  1.1556  3.2791  1.2430
 1831TIP3    H226909   2.618  -0.060  14.140 -1.9555 -1.2230  1.1773
 1832TIP3   OH226910   5.904   0.136   0.443  0.0132 -0.1806  0.5474
 1832TIP3    H126911   5.904   0.230   0.462 -0.3495 -0.2673  0.9932
 1832TIP3    H226912   5.815   0.118   0.415  0.5283 -0.0621 -1.2602
 1833TIP3   OH226913   5.315   2.314   6.982  0.1113  0.6666 -1.0036
 1833TIP3    H126914   5.230   2.357   6.972  0.8100  1.9672 -1.5056
 1833TIP3    H226915   5.367   2.344   6.907  1.7330  1.6889  0.4647
 1834TIP3   OH226916   2.252   4.887  15.958 -0.1622 -0.5652  0.1949
 1834TIP3    H126917   2.180   4.840  15.998 -0.5942  0.3003  0.4550
 1834TIP3    H226918   2.230   4.980  15.969 -0.3073 -0.2922 -2.0919
 1835TIP3   OH226919   5.585   5.101  16.017  0.2736 -0.1366 -0.3838
 1835TIP3    H126920   5.614   5.168  16.079  1.6028 -1.7265  0.7409
 1835TIP3    H226921   5.489   5.104  16.021  0.3391  0.6027  0.8287
 1836TIP3   OH226922   5.836   3.800  13.078 -0.2165 -0.7240 -0.0145
 1836TIP3    H126923   5.752   3.756  13.095 -0.8733  0.5424  0.0278
 1836TIP3    H226924   5.900   3.729  13.079 -1.2737 -1.6922  0.0568
 1837TIP3   OH226925   4.042   0.972  16.468 -0.2426  0.0402  0.4275
 1837TIP3    H126926   4.028   0.959  16.374 -1.3717 -0.0180  0.6022
 1837TIP3    H226927   4.006   1.059  16.486  1.3078  0.6779  0.5330
 1838TIP3   OH226928   4.997   1.533  12.695  0.3637 -0.0891  0.0072
 1838TIP3    H126929   4.917   1.485  12.676  0.7630 -0.2253 -1.4173
 1838TIP3    H226930   4.974   1.625  12.684  1.3973 -0.2804 -4.6069
 1839TIP3   OH226931   5.902   0.928  11.129  0.2368 -0.2793 -0.2780
 1839TIP3    H126932   5.858   1.005  11.094  0.4502 -0.8038 -1.7168
 1839TIP3    H226933   5.939   0.884  11.053  0.6321 -1.4850  0.5894
 1840TIP3   OH226934   0.895   2.067  15.445 -0.2363 -0.8016 -0.3976
 1840TIP3    H126935   0.986   2.095  15.449 -0.4791 -0.2410  1.3285
 1840TIP3    H226936   0.871   2.078  15.352  1.2528 -0.3690 -0.7434
 1841TIP3   OH226937   3.514   1.227   0.202 -0.4144  0.1263  0.7320
 1841TIP3    H126938   3.471   1.283   0.138  0.4099  0.0935  0.1552
 1841TIP3    H226939   3.442   1.179   0.243 -1.0361  0.9374  0.5930
 1842TIP3   OH226940   1.763   5.296   0.307 -0.2233  0.4427 -0.9140
 1842TIP3    H126941   1.772   5.382   0.267  1.8667  0.5937 -0.1914
 1842TIP3    H226942   1.780   5.234   0.236 -2.0105  0.5808 -1.5010
 1843TIP3   OH226943   4.263   5.620   3.048  0.0911 -0.4369 -0.4084
 1843TIP3    H126944   4.283   5.643   2.957  0.6095  0.2037 -0.1330
 1843TIP3    H226945   4.222   5.533   3.042  0.7187 -0.6872 -1.1973
 1844TIP3   OH226946   1.608   4.744   2.186 -0.1573 -0.0577 -0.4970
 1844TIP3    H126947   1.523   4.724   2.148 -0.8295  0.2476  0.8203
 1844TIP3    H226948   1.602   4.835   2.212  0.4512 -0.1343 -0.0714
 1845TIP3   OH226949   2.800   2.606  11.677  0.5018 -0.3918 -0.3077
 1845TIP3    H126950   2.832   2.628  11.764 -0.1842  1.1175 -0.4174
 1845TIP3    H226951   2.728   2.545  11.692  1.2886 -1.2253  0.1008
 1846TIP3   OH226952   2.269   5.828  15.755 -0.2498  0.4784 -0.1775
 1846TIP3    H126953   2.249   5.899  15.695  1.1353  1.2308  0.2299
 1846TIP3    H226954   2.319   5.870  15.826  2.0872 -1.1767 -0.7835
 1847TIP3   OH226955   2.076   6.666   4.166 -0.0164  0.5809  0.2351
 1847TIP3    H126956   2.010   6.605   4.133 -0.4049  2.1144 -1.9237
 1847TIP3    H226957   2.158   6.616   4.161 -0.5062 -0.1830 -0.3494
 1848TIP3   OH226958   1.140   3.981  16.259 -0.5460  0.1943  0.3430
 1848TIP3    H126959   1.218   4.002  16.310 -1.6522  0.8496  1.8000
 1848TIP3    H226960   1.101   3.906  16.304 -0.0260 -1.0056 -1.1779
 1849TIP3   OH226961   5.733   4.756  12.189  0.0809  0.5551 -0.5120
 1849TIP3    H126962   5.711   4.671  12.227  1.3286  0.9725  1.2142
 1849TIP3    H226963   5.656   4.810  12.205 -0.1604  0.1562 -0.3192
 1850TIP3   OH226964   1.560   6.046   3.082 -0.4109 -0.0403 -0.6782
 1850TIP3    H126965   1.608   6.129   3.087 -0.0528 -0.3291  1.0918
 1850TIP3    H226966   1.588   6.007   2.999 -2.7997  2.9076 -3.0117
 1851TIP3   OH226967   1.934   2.006   2.555  0.4125  0.1173  0.0422
 1851TIP3    H126968   1.950   2.100   2.548  0.5938  0.0159 -0.9053
 1851TIP3    H226969   1.962   1.970   2.471  0.4905 -0.8073  0.4529
 1852TIP3   OH226970   4.939   3.577   0.792  0.2895 -0.3269 -0.6617
 1852TIP3    H126971   4.937   3.637   0.717  0.9236 -0.0313 -0.4512
 1852TIP3    H226972   5.014   3.520   0.775  1.7949  1.1460  0.7952
 1853TIP3   OH226973   3.925   0.370   5.613 -0.2052  0.6836  0.1626
 1853TIP3    H126974   4.002   0.347   5.664 -0.1473  0.2021 -0.1335
 1853TIP3    H226975   3.889   0.286   5.585  0.0810  0.9620 -1.0535
 1854TIP3   OH226976   6.222   1.810  15.744 -0.3078 -0.1598  0.1167
 1854TIP3    H126977   6.297   1.858  15.709 -0.2584 -0.7685 -0.6351
 1854TIP3    H226978   6.191   1.864  15.817  1.8780 -0.7474  1.5045
 1855TIP3   OH226979   0.340   0.685  13.344  0.1392  0.0759 -0.2198
 1855TIP3    H126980   0.323   0.747  13.273 -2.0685 -0.4640 -0.2129
 1855TIP3    H226981   0.390   0.615  13.303 -1.3179 -0.3467 -1.3301
 1856TIP3   OH226982   6.335   4.001  11.286  0.4798  0.1474  0.5732
 1856TIP3    H126983   6.282   3.942  11.339  0.2397 -0.7400 -0.6404
 1856TIP3    H226984   6.395   3.943  11.239  1.6515  1.0365  0.9253
 1857TIP3   OH226985   3.934   4.304   0.604 -0.0333 -0.0152 -0.0106
 1857TIP3    H126986   3.907   4.309   0.512 -1.4381  1.9931  0.4880
 1857TIP3    H226987   3.987   4.383   0.618 -1.0625  0.4641  1.2939
 1858TIP3   OH226988   3.910   6.066   2.432  0.1982 -0.1882  0.1905
 1858TIP3    H126989   3.991   6.024   2.461  0.7841 -0.5404 -1.8591
 1858TIP3    H226990   3.891   6.025   2.347 -1.1227  1.2170 -0.2136
 1859TIP3   OH226991   3.207   0.704   4.747 -0.0158  0.0568  0.3355
 1859TIP3    H126992   3.122   0.662   4.759 -1.1040  1.6179 -1.5492
 1859TIP3    H226993   3.197   0.790   4.788  0.8530  0.0163  0.6328
 1860TIP3   OH226994   4.950   6.608   1.678  0.5787  0.6660  0.3633
 1860TIP3    H126995   4.929   6.515   1.687  1.8857  0.2590 -0.6237
 1860TIP3    H226996   5.042   6.610   1.652  0.1161  2.1601 -1.2832
 1861TIP3   OH226997   2.919   6.073  14.019  0.0699 -0.3202  1.0625
 1861TIP3    H126998   2.974   6.094  14.094  1.2524  1.4212 -0.2765
 1861TIP3    H226999   2.866   6.151  14.005 -0.8320 -0.9945  0.6683
 1862TIP3   OH227000   5.992   5.413   6.175  0.3560 -0.0343 -0.1096
 1862TIP3    H127001   5.921   5.428   6.112  0.1162  2.4427  0.6954
 1862TIP3    H227002   6.065   5.385   6.121 -0.7327 -0.9279 -1.1566
 1863TIP3   OH227003   5.084   3.556  16.408 -0.3228 -0.2463 -0.1951
 1863TIP3    H127004   5.047   3.488  16.465 -0.8759  0.5906  0.4690
 1863TIP3    H227005   5.163   3.585  16.453 -0.2850 -0.1905 -0.2973
 1864TIP3   OH227006   2.538   5.576   6.755 -0.3791 -0.6971  0.2008
 1864TIP3    H127007   2.513   5.515   6.685 -0.2882 -1.4292  0.7913
 1864TIP3    H227008   2.568   5.654   6.710  0.9564 -1.6649 -0.6146
 1865TIP3   OH227009   6.537   2.419   1.034 -1.0453 -0.1203  0.0246
 1865TIP3    H127010   6.561   2.368   0.957  0.5631 -0.3473  0.6516
 1865TIP3    H227011   6.442   2.423   1.032 -0.9963  0.4153 -2.3237
 1866TIP3   OH227012   2.041   6.398   5.625 -0.2795  1.3088 -0.4818
 1866TIP3    H127013   2.018   6.377   5.534  1.1883  1.8381 -0.9951
 1866TIP3    H227014   1.994   6.334   5.677  0.0696  0.0145 -1.7161
 1867TIP3   OH227015   4.236   2.557   1.786 -0.0531 -0.1857  0.2789
 1867TIP3    H127016   4.289   2.585   1.711 -0.0375 -0.2187  0.2774
 1867TIP3    H227017   4.283   2.591   1.862  0.2856 -0.7217  0.3126
 1868TIP3   OH227018   4.910   2.746  11.673  0.3492  0.2349  0.6324
 1868TIP3    H127019   4.937   2.749  11.581  0.9471 -3.2148  0.6277
 1868TIP3    H227020   4.817   2.768  11.671 -0.3744 -2.7117 -1.2136
 1869TIP3   OH227021   5.408   1.044   4.887  0.0197 -0.0713  0.0257
 1869TIP3    H127022   5.376   1.050   4.977 -0.5166 -0.3350 -0.1449
 1869TIP3    H227023   5.503   1.041   4.896  0.1261  2.6023  0.4521
 1870TIP3   OH227024   3.797   1.900   5.883 -0.1068 -0.6501 -0.1804
 1870TIP3    H127025   3.701   1.899   5.893 -0.1022 -0.9756 -0.1711
 1870TIP3    H227026   3.824   1.979   5.930 -0.2440 -1.2849  1.0011
 1871TIP3   OH227027   0.064   5.180   6.306  0.0428  0.2561 -0.1034
 1871TIP3    H127028   0.002   5.135   6.363 -1.1971  1.0819 -0.7758
 1871TIP3    H227029   0.100   5.111   6.251 -0.5246 -0.1930  0.0853
 1872TIP3   OH227030   2.913   6.239   5.666  0.0125  0.0475 -0.4498
 1872TIP3    H127031   2.985   6.262   5.725 -0.5983  0.5885  0.0917
 1872TIP3    H227032   2.913   6.308   5.600  1.2393 -1.0166 -1.5897
 1873TIP3   OH227033   4.494   1.782   4.948  0.7123  0.1437 -0.1876
 1873TIP3    H127034   4.505   1.692   4.980 -0.7091 -0.7719 -2.1451
 1873TIP3    H227035   4.568   1.796   4.889  1.4604  0.6148  0.8512
 1874TIP3   OH227036   1.140   5.552  12.950 -0.0992 -0.2938 -0.3102
 1874TIP3    H127037   1.072   5.496  12.989  0.3130 -0.6340 -0.0809
 1874TIP3    H227038   1.110   5.642  12.969 -0.9346 -0.4249 -0.9820
 1875TIP3   OH227039   1.940   0.315  14.615  0.0344 -0.6196 -0.0983
 1875TIP3    H127040   1.905   0.403  14.602 -0.2852 -0.8624 -0.9412
 1875TIP3    H227041   1.977   0.291  14.530  2.0029 -0.4924  0.6939
 1876TIP3   OH227042   5.713   1.947   5.129  0.1753  0.1335  0.1517
 1876TIP3    H127043   5.625   1.964   5.095  0.7475  2.5684 -0.1616
 1876TIP3    H227044   5.766   1.930   5.052  0.1090 -0.7774  0.3021
 1877TIP3   OH227045   4.837   0.170  15.079  0.3747 -0.3599 -0.1406
 1877TIP3    H127046   4.859   0.242  15.138  0.1135 -0.2125 -0.2220
 1877TIP3    H227047   4.922   0.140  15.046  0.4124  0.8443 -1.2020
 1878TIP3   OH227048   6.591   6.161   2.531 -0.4257 -0.2076  0.2172
 1878TIP3    H127049   6.615   6.192   2.443  2.3423 -0.8541  0.6995
 1878TIP3    H227050   6.496   6.161   2.531 -0.4715  2.4473 -1.8521
 1879TIP3   OH227051   5.950   0.433   1.800 -0.0322 -0.1636 -0.0140
 1879TIP3    H127052   6.034   0.447   1.844 -0.0653  0.9974 -0.3116
 1879TIP3    H227053   5.894   0.504   1.830 -1.0458 -1.1740  0.4982
 1880TIP3   OH227054   3.024   5.971  17.143 -0.3398  0.2021 -0.6780
 1880TIP3    H127055   2.972   5.903  17.100 -1.0928 -0.6604  1.5293
 1880TIP3    H227056   3.008   6.049  17.091 -1.2704 -0.8028 -1.9326
 1881TIP3   OH227057   5.853   1.558  13.210  0.9557 -0.7075 -0.2811
 1881TIP3    H127058   5.905   1.489  13.168  2.2798  0.4141 -0.5087
 1881TIP3    H227059   5.912   1.595  13.276  0.3766  0.4602 -0.4167
 1882TIP3   OH227060   6.008   3.572  10.963  0.1488  0.1972  0.1452
 1882TIP3    H127061   6.078   3.546  11.023 -0.1977  1.1681  0.9843
 1882TIP3    H227062   6.022   3.517  10.886  1.4566 -0.0633  0.5457
 1883TIP3   OH227063   1.826   4.031  16.142 -0.5999  0.1547  0.1609
 1883TIP3    H127064   1.896   4.046  16.205  0.7944 -0.2657 -1.2637
 1883TIP3    H227065   1.766   4.104  16.156 -0.0829  0.3262  1.6452
 1884TIP3   OH227066   0.458   2.182   5.273 -0.4892 -0.5638  0.0467
 1884TIP3    H127067   0.510   2.102   5.269 -0.9707 -0.8460 -0.9833
 1884TIP3    H227068   0.464   2.218   5.184 -2.0234 -0.6117 -0.0961
 1885TIP3   OH227069   4.799   3.938   6.360 -0.0152  0.1321 -0.5279
 1885TIP3    H127070   4.715   3.893   6.361  0.2756 -0.4263 -0.8055
 1885TIP3    H227071   4.795   4.000   6.433 -0.6609  0.0987 -0.5381
 1886TIP3   OH227072   6.171   2.496  12.073 -0.0490  0.0878  0.1357
 1886TIP3    H127073   6.157   2.408  12.108  1.9703 -0.3371 -0.0304
 1886TIP3    H227074   6.231   2.537  12.135 -1.1987  1.4450  0.3487
 1887TIP3   OH227075   1.018   4.721   1.916  0.6428 -0.0848 -0.0175
 1887TIP3    H127076   1.081   4.687   1.852  0.9367  0.7427 -0.1764
 1887TIP3    H227077   1.055   4.697   2.001  1.2930  0.5758 -0.1035
 1888TIP3   OH227078   3.615   5.083   5.308  0.2689 -0.2149 -0.7316
 1888TIP3    H127079   3.695   5.108   5.261  0.6765 -1.6807 -0.8197
 1888TIP3    H227080   3.551   5.068   5.239 -0.2355  1.3962 -0.6457
 1889TIP3   OH227081   5.129   0.843  11.839 -0.4579  0.3139  1.0508
 1889TIP3    H127082   5.132   0.748  11.835 -0.0441  0.3762 -0.4446
 1889TIP3    H227083   5.192   0.867  11.907  0.0316 -0.4393  0.8536
 1890TIP3   OH227084   3.832   0.692  11.276 -0.6303  0.5697  0.5397
 1890TIP3    H127085   3.882   0.748  11.215 -2.1795  1.5387  0.1329
 1890TIP3    H227086   3.761   0.748  11.306 -0.8012 -0.4373  2.0236
 1891TIP3   OH227087   4.240   2.552  10.751  0.1109  0.3761  0.5453
 1891TIP3    H127088   4.183   2.620  10.786  0.2541  1.4057 -1.1913
 1891TIP3    H227089   4.298   2.597  10.690 -0.2190 -1.3806 -1.1422
 1892TIP3   OH227090   3.440   4.400  13.178 -0.4913  0.5959 -0.2653
 1892TIP3    H127091   3.364   4.342  13.180  0.0564 -0.1110  3.7657
 1892TIP3    H227092   3.402   4.488  13.181 -1.2432  0.5212 -4.2523
 1893TIP3   OH227093   2.637   2.345   1.129  0.4664 -0.2559 -0.4435
 1893TIP3    H127094   2.578   2.314   1.060  0.8917  2.5392 -2.1556
 1893TIP3    H227095   2.647   2.439   1.112  2.1951  0.1200  2.2473
 1894TIP3   OH227096   0.094   0.867   3.990  0.1455  0.1112  0.5971
 1894TIP3    H127097   0.037   0.914   3.929  0.3877 -0.5364 -0.1255
 1894TIP3    H227098   0.098   0.924   4.067  0.2716  1.1779 -0.1883
 1895TIP3   OH227099   6.041   5.481  11.207 -0.3317 -0.2922 -0.4698
 1895TIP3    H127100   6.004   5.480  11.119  0.2107 -0.0607 -0.7015
 1895TIP3    H227101   6.010   5.400  11.246 -0.0215 -0.7302 -1.1123
 1896TIP3   OH227102   6.117   5.133  13.131  0.3990  0.3419 -0.4417
 1896TIP3    H127103   6.061   5.180  13.192  0.8280 -0.0177  0.2336
 1896TIP3    H227104   6.133   5.195  13.060  1.5268  1.4674  0.7745
 1897TIP3   OH227105   6.473   0.665  16.553  0.0180 -0.1772 -0.5378
 1897TIP3    H127106   6.472   0.642  16.646  1.5682  1.7108 -0.0248
 1897TIP3    H227107   6.390   0.709  16.538  0.8371  1.8238  0.5993
 1898TIP3   OH227108   0.949   4.166   2.497  0.1369  0.2312  0.1871
 1898TIP3    H127109   0.984   4.148   2.409 -0.1829 -0.0202  0.1101
 1898TIP3    H227110   0.952   4.262   2.504 -2.4533  0.4727 -1.2062
 1899TIP3   OH227111   5.613   4.735  11.918  0.0974  0.1093  0.0341
 1899TIP3    H127112   5.671   4.804  11.950  1.0984 -0.9353  0.4923
 1899TIP3    H227113   5.588   4.686  11.997 -1.3189  0.4620 -0.1702
 1900TIP3   OH227114   5.644   6.783  14.509 -0.4020 -0.0830 -0.1371
 1900TIP3    H127115   5.676   6.831  14.433 -1.8237 -0.4041 -0.9650
 1900TIP3    H227116   5.549   6.778  14.496 -0.5662 -0.8882  1.2281
 1901TIP3   OH227117   4.829   2.621  15.333  0.2742  0.1375 -0.2986
 1901TIP3    H127118   4.883   2.558  15.287  1.7201 -0.8514  2.6167
 1901TIP3    H227119   4.751   2.571  15.359  0.3919  0.1459  0.0720
 1902TIP3   OH227120   1.484   1.423   1.501 -0.2259 -0.2719 -0.3750
 1902TIP3    H127121   1.467   1.506   1.456 -1.1940 -0.4671 -0.3775
 1902TIP3    H227122   1.514   1.364   1.432 -0.2999 -0.1483 -0.5129
 1903TIP3   OH227123   1.523   6.468  13.994 -0.8138  0.2490 -0.0542
 1903TIP3    H127124   1.511   6.556  14.031  0.2732 -0.1438  1.2917
 1903TIP3    H227125   1.462   6.464  13.921 -0.6843  2.2280 -0.2914
 1904TIP3   OH227126   5.071   5.266  16.356 -0.6448 -0.0401 -0.1222
 1904TIP3    H127127   5.100   5.292  16.269  1.7458 -1.9662  0.0402
 1904TIP3    H227128   5.132   5.309  16.415 -1.1277 -0.2224  0.5172
 1905TIP3   OH227129   6.062   6.212  13.953  0.2254 -0.2244 -0.0791
 1905TIP3    H127130   6.065   6.298  13.911  2.3198  1.6215  3.6896
 1905TIP3    H227131   5.968   6.195  13.965 -0.2279  1.3188 -1.2202
 1906TIP3   OH227132   6.270   5.133  16.301 -0.2380  0.3068 -0.2165
 1906TIP3    H127133   6.310   5.091  16.376  0.0226 -0.0820 -0.5739
 1906TIP3    H227134   6.227   5.210  16.337 -0.2358  0.0418  0.3504
 1907TIP3   OH227135   4.096   0.204   1.053 -0.0329 -0.3180 -0.4106
 1907TIP3    H127136   4.097   0.270   0.984 -0.5125 -1.0229 -1.0915
 1907TIP3    H227137   4.178   0.155   1.041  0.5168  0.3931  0.3422
 1908TIP3   OH227138   1.417   1.296  14.266 -0.4344 -0.5932 -0.1337
 1908TIP3    H127139   1.339   1.247  14.292 -0.4444 -0.7081 -0.3771
 1908TIP3    H227140   1.384   1.382  14.242 -0.2147  0.0963  1.9445
 1909TIP3   OH227141   3.250   3.567  12.260 -0.3931 -0.7791  0.2684
 1909TIP3    H127142   3.344   3.562  12.276 -0.3958 -3.9373 -0.3615
 1909TIP3    H227143   3.242   3.597  12.170  0.0723 -1.9257 -0.1659
 1910TIP3   OH227144   0.374   0.117   0.540 -0.1100  0.3610 -0.1044
 1910TIP3    H127145   0.410   0.116   0.451  1.7700 -0.6374  0.6581
 1910TIP3    H227146   0.375   0.026   0.568 -1.5658  0.5461  0.6217
 1911TIP3   OH227147   2.889   3.031  11.326 -0.0683  0.4327 -0.0508
 1911TIP3    H127148   2.794   3.019  11.325 -0.1741  1.2378 -0.2196
 1911TIP3    H227149   2.903   3.112  11.277  0.7018  0.3517  0.0318
 1912TIP3   OH227150   3.904   5.683   5.537  0.1101  0.0083 -1.0155
 1912TIP3    H127151   3.939   5.631   5.610 -0.4930  0.6617 -0.2529
 1912TIP3    H227152   3.895   5.620   5.466 -0.1826 -0.8519 -0.2368
 1913TIP3   OH227153   5.187   5.258   2.627 -0.5638  0.1970 -0.3862
 1913TIP3    H127154   5.283   5.256   2.630 -0.5175  1.6761 -0.5025
 1913TIP3    H227155   5.161   5.290   2.714 -0.9020  1.1022 -0.8217
 1914TIP3   OH227156   0.119   5.339   0.658  0.3531  0.3320  0.6412
 1914TIP3    H127157   0.043   5.303   0.614  1.1216 -0.0087 -0.4164
 1914TIP3    H227158   0.083   5.390   0.731 -0.9136  0.7661 -0.2837
 1915TIP3   OH227159   0.247   0.361  11.353 -0.0405 -0.1863  0.3709
 1915TIP3    H127160   0.279   0.340  11.440  1.4620  0.8193  0.0938
 1915TIP3    H227161   0.323   0.348  11.296 -0.4231  1.1419 -0.4782
 1916TIP3   OH227162   5.309   0.405   0.892 -0.0650 -0.5240 -0.3629
 1916TIP3    H127163   5.365   0.461   0.839  0.5545  1.0401  1.8610
 1916TIP3    H227164   5.348   0.409   0.980 -3.0556 -0.2260  0.9920
 1917TIP3   OH227165   1.649   2.242  10.713  0.4600 -0.0914  0.0096
 1917TIP3    H127166   1.611   2.329  10.701 -2.1181 -1.1376  0.0696
 1917TIP3    H227167   1.592   2.184  10.662  2.5466 -1.6691 -0.6226
 1918TIP3   OH227168   0.664   5.991   0.513 -0.5880 -0.5058 -0.1181
 1918TIP3    H127169   0.713   6.039   0.580 -0.6196 -1.4115  0.5704
 1918TIP3    H227170   0.726   5.924   0.483 -1.3487 -1.6027  0.6955
 1919TIP3   OH227171   1.039   2.507  13.507 -0.6462 -0.3016  0.3576
 1919TIP3    H127172   1.074   2.538  13.424  0.5463 -1.2418  0.4901
 1919TIP3    H227173   0.995   2.583  13.545  1.8194  1.1106  0.4732
 1920TIP3   OH227174   5.987   4.090  13.818 -0.5615 -0.1729 -0.0144
 1920TIP3    H127175   6.006   4.027  13.887 -0.4794 -1.6227 -1.3220
 1920TIP3    H227176   6.035   4.169  13.843 -0.0050 -0.8966  1.2352
 1921TIP3   OH227177   3.894   4.343   5.114  0.3612  0.2263 -0.0535
 1921TIP3    H127178   3.913   4.363   5.206 -1.8620 -0.8194  0.6686
 1921TIP3    H227179   3.906   4.426   5.069  0.9983  0.8666  1.2515
 1922TIP3   OH227180   3.384   6.206   6.225 -0.5623  0.5062 -0.2193
 1922TIP3    H127181   3.463   6.245   6.262 -0.1824  0.4877 -0.9990
 1922TIP3    H227182   3.342   6.162   6.299  0.8897 -0.6970 -0.0829
 1923TIP3   OH227183   4.951   5.664  15.358 -0.0668  1.5525  0.3683
 1923TIP3    H127184   5.029   5.694  15.404 -0.6600 -0.5058  2.8316
 1923TIP3    H227185   4.974   5.576  15.327 -0.9180  1.4869 -0.0870
 1924TIP3   OH227186   0.101   1.396   0.146 -0.1735  0.5289 -0.0179
 1924TIP3    H127187   0.015   1.380   0.107  0.4918  1.0053 -1.7273
 1924TIP3    H227188   0.086   1.466   0.209 -1.5759 -1.3185  1.8019
 1925TIP3   OH227189   2.937   4.878   1.620  0.0692  0.0278  0.4649
 1925TIP3    H127190   2.871   4.841   1.561  0.1915 -1.8377  1.4554
 1925TIP3    H227191   3.020   4.862   1.578 -0.0039  1.1827 -0.1471
 1926TIP3   OH227192   0.377   3.374   6.367 -0.2784  0.1244  0.9663
 1926TIP3    H127193   0.354   3.289   6.328  0.7799  0.6287 -0.8446
 1926TIP3    H227194   0.443   3.353   6.432  1.8680 -0.2306 -1.2442
 1927TIP3   OH227195   6.275   1.928   0.398 -0.4707  0.0039  0.1074
 1927TIP3    H127196   6.348   1.976   0.360 -0.0509  0.1858  1.1288
 1927TIP3    H227197   6.199   1.954   0.346 -0.5455  2.9587  1.5682
 1928TIP3   OH227198   0.216   3.460   0.833 -0.0103 -0.4167 -0.4912
 1928TIP3    H127199   0.127   3.475   0.801 -0.4529  0.5537  1.1171
 1928TIP3    H227200   0.222   3.365   0.843  0.0058 -0.6951 -3.0079
 1929TIP3   OH227201   5.385   5.666   5.109  0.3752  0.3893 -0.4779
 1929TIP3    H127202   5.392   5.677   5.204 -0.7529  0.6061 -0.4097
 1929TIP3    H227203   5.411   5.751   5.073  1.5762  0.0623 -0.4050
 1930TIP3   OH227204   0.098   6.360  12.807  0.3123 -0.3955 -0.1182
 1930TIP3    H127205   0.042   6.398  12.740  1.0058  0.1633 -0.3821
 1930TIP3    H227206   0.060   6.273  12.823 -2.0024  0.8475  1.3702
 1931TIP3   OH227207   5.894   2.490  14.091 -0.4013 -0.4418 -0.2668
 1931TIP3    H127208   5.851   2.404  14.091 -0.9865 -0.1660  0.6826
 1931TIP3    H227209   5.985   2.471  14.070 -0.2185 -1.4755  1.3653
 1932TIP3   OH227210   0.636   1.555  17.238 -0.4281 -0.1688  0.4152
 1932TIP3    H127211   0.615   1.512  17.320 -0.7544  0.1592  0.5053
 1932TIP3    H227212   0.551   1.562  17.192 -0.1292 -1.0886 -0.3043
 1933TIP3   OH227213   5.455   3.331  17.068  0.0116 -0.2053  0.0223
 1933TIP3    H127214   5.528   3.269  17.070 -0.8238 -1.1862  0.6080
 1933TIP3    H227215   5.379   3.281  17.098 -1.0605  0.6125 -1.2418
 1934TIP3   OH227216   5.719   3.372  13.299  0.3106  0.5994 -0.2886
 1934TIP3    H127217   5.739   3.324  13.219 -0.0780 -1.1996  0.6847
 1934TIP3    H227218   5.698   3.461  13.268  2.2039  0.4864 -1.9716
 1935TIP3   OH227219   2.278   4.550  16.290 -0.6626  0.1570  0.0142
 1935TIP3    H127220   2.222   4.540  16.367  0.3295 -1.0270  0.5995
 1935TIP3    H227221   2.231   4.505  16.220 -0.3744 -0.9759  0.5416
 1936TIP3   OH227222   0.592   1.812   5.521  0.3354 -0.4232 -0.0985
 1936TIP3    H127223   0.556   1.762   5.448 -2.0720  0.9892  0.0692
 1936TIP3    H227224   0.620   1.895   5.482 -1.4025  0.5295  0.6266
 1937TIP3   OH227225   0.261   6.257  15.703 -0.1395  0.4421  0.1216
 1937TIP3    H127226   0.174   6.293  15.693  0.1839  0.5558 -2.4683
 1937TIP3    H227227   0.315   6.303  15.639  1.5071 -0.6508  0.6650
 1938TIP3   OH227228   1.371   6.641   3.255 -0.3583 -0.2357 -0.2757
 1938TIP3    H127229   1.357   6.553   3.290  0.1383 -0.7926 -1.4516
 1938TIP3    H227230   1.312   6.697   3.306 -2.9500 -1.7011 -1.5829
 1939TIP3   OH227231   6.505   2.266  12.994 -0.2526  0.1664 -0.2567
 1939TIP3    H127232   6.474   2.200  12.933 -2.3053 -0.1791  1.0983
 1939TIP3    H227233   6.510   2.347  12.943  4.1030 -1.3002 -2.4270
 1940TIP3   OH227234   1.703   6.290   3.129 -0.4524 -0.0333  0.8160
 1940TIP3    H127235   1.643   6.365   3.123  0.3420  0.6139  0.8251
 1940TIP3    H227236   1.789   6.326   3.106 -0.2690 -1.2306 -0.4072
 1941TIP3   OH227237   0.061   0.857  11.795 -0.2085 -0.1149  0.5875
 1941TIP3    H127238   0.131   0.806  11.754  0.6697  0.0853  1.8038
 1941TIP3    H227239  -0.017   0.839  11.742  0.8278 -0.1349 -0.9304
 1942TIP3   OH227240   6.204   6.014   0.573  0.2302  0.8303  0.3442
 1942TIP3    H127241   6.137   6.068   0.615  0.0823  0.7935  0.1536
 1942TIP3    H227242   6.270   6.076   0.544 -1.0815  1.1457 -2.0231
 1943TIP3   OH227243   2.893   6.309  15.228 -0.1972  0.2242  0.0183
 1943TIP3    H127244   2.840   6.385  15.202  0.5960  1.2442  1.3006
 1943TIP3    H227245   2.836   6.259  15.287 -0.6997 -0.1522 -0.7772
 1944TIP3   OH227246   5.013   3.179  12.445  0.0566  0.7064 -0.0561
 1944TIP3    H127247   5.038   3.112  12.509 -0.1607 -0.7912 -1.5044
 1944TIP3    H227248   4.919   3.165  12.431  0.3015  0.4018 -1.4225
 1945TIP3   OH227249   0.570   4.143  11.977 -0.6709 -0.1087  0.0117
 1945TIP3    H127250   0.578   4.096  11.893 -2.7020  1.1162 -0.9049
 1945TIP3    H227251   0.480   4.175  11.978 -0.2028  1.2340  1.9786
 1946TIP3   OH227252   0.007   5.025   5.303  0.0989 -0.5498  0.0020
 1946TIP3    H127253  -0.039   4.982   5.375  0.7888 -1.2120  0.0601
 1946TIP3    H227254   0.094   5.045   5.339 -0.1857  0.8026 -0.0624
 1947TIP3   OH227255   2.160   1.715   4.872  0.2559 -0.3487 -0.1497
 1947TIP3    H127256   2.165   1.658   4.796  1.5363 -0.3924 -0.0483
 1947TIP3    H227257   2.221   1.676   4.935 -0.2239  0.1094  0.6075
 1948TIP3   OH227258   1.156   1.970  13.045  0.0295 -0.5682 -0.0279
 1948TIP3    H127259   1.209   1.943  13.120 -1.5595  1.9133  2.0700
 1948TIP3    H227260   1.098   1.895  13.028  1.4286 -1.7247  0.2206
 1949TIP3   OH227261   4.684   6.251   0.526 -0.3665 -0.9398  0.9179
 1949TIP3    H127262   4.604   6.303   0.523 -0.5492 -1.2804 -1.8009
 1949TIP3    H227263   4.751   6.308   0.487 -0.0046 -1.7905  0.2794
 1950TIP3   OH227264   6.479   1.462  13.075  0.2155 -0.4838 -0.2111
 1950TIP3    H127265   6.424   1.393  13.039  0.0174 -0.4051 -0.0663
 1950TIP3    H227266   6.526   1.498  13.000 -0.0227 -0.4709 -0.3556
 1951TIP3   OH227267   1.869   5.821   5.088  0.3648  0.1798  0.2667
 1951TIP3    H127268   1.821   5.764   5.028  2.3697  0.0478 -1.2904
 1951TIP3    H227269   1.838   5.909   5.068 -1.3922 -0.1685  1.3801
 1952TIP3   OH227270   5.143   5.216   4.090 -0.6219  0.3695  0.0743
 1952TIP3    H127271   5.121   5.137   4.139 -0.2418 -1.5685 -2.7604
 1952TIP3    H227272   5.090   5.211   4.010  0.9162  1.9086 -1.0919
 1953TIP3   OH227273   6.646   3.882   1.113 -0.1433  0.1878  0.2339
 1953TIP3    H127274   6.733   3.872   1.075  0.2234  2.3924  0.3967
 1953TIP3    H227275   6.593   3.918   1.042 -0.3771  0.8580  0.7404
 1954TIP3   OH227276   0.571   0.502  14.122  0.0420 -0.0359 -0.2054
 1954TIP3    H127277   0.564   0.586  14.076 -0.5935  1.2360  2.1114
 1954TIP3    H227278   0.663   0.478  14.116  0.7872  2.2380  1.4181
 1955TIP3   OH227279   3.457   1.653   4.347  0.2919  0.6568 -0.2675
 1955TIP3    H127280   3.442   1.740   4.384 -0.4666  0.3267  0.2199
 1955TIP3    H227281   3.463   1.668   4.252 -1.6817  1.0102 -0.3568
 1956TIP3   OH227282   4.475   0.102   5.256  0.3648 -0.6153  0.2756
 1956TIP3    H127283   4.510   0.056   5.179  1.5055  0.8484 -0.1026
 1956TIP3    H227284   4.391   0.137   5.227  2.0366  2.3438 -1.2614
 1957TIP3   OH227285   0.524   3.722   0.125  0.0883 -0.1913  0.4714
 1957TIP3    H127286   0.505   3.814   0.144 -1.3543 -0.8344  2.3338
 1957TIP3    H227287   0.486   3.707   0.038  0.0652  0.8877  0.2874
 1958TIP3   OH227288   0.456   6.748  16.073 -0.6880  1.2616 -0.4104
 1958TIP3    H127289   0.537   6.703  16.094 -1.4394  1.0512  2.2052
 1958TIP3    H227290   0.432   6.716  15.986  0.9835 -0.1787 -0.3593
 1959TIP3   OH227291   4.438   5.108  16.571  0.5790 -0.4037 -0.5013
 1959TIP3    H127292   4.491   5.034  16.600  2.3459  0.0479 -2.4658
 1959TIP3    H227293   4.414   5.153  16.652  1.1236 -2.0248  0.5814
 1960TIP3   OH227294   1.502   2.396  13.354  0.0850  0.5988  0.6532
 1960TIP3    H127295   1.496   2.316  13.405  0.7833  0.2118  0.1451
 1960TIP3    H227296   1.584   2.437  13.383  0.3576  0.5012  0.0231
 1961TIP3   OH227297   4.494   5.607   1.808 -0.2745 -0.2812  0.5582
 1961TIP3    H127298   4.550   5.556   1.867 -1.6964  0.3255  2.4614
 1961TIP3    H227299   4.548   5.621   1.730  1.6621 -0.9975  1.7487
 1962TIP3   OH227300   1.968   5.469   3.423  0.1415 -0.8254 -0.1309
 1962TIP3    H127301   2.053   5.424   3.431  1.2573  1.1010 -0.9070
 1962TIP3    H227302   1.927   5.457   3.508  1.2041 -1.7367  0.2772
 1963TIP3   OH227303   4.972   2.612  13.743  0.0531 -0.5074 -0.0968
 1963TIP3    H127304   4.891   2.593  13.791  0.9536  0.5089  1.9011
 1963TIP3    H227305   5.033   2.545  13.773 -0.3391 -1.9946 -2.4881
 1964TIP3   OH227306   2.627   6.111  15.749  0.1318  0.0690  0.3043
 1964TIP3    H127307   2.638   6.206  15.738 -0.0720 -0.0122 -0.6310
 1964TIP3    H227308   2.547   6.091  15.701 -0.1940 -0.4793  1.0644
 1965TIP3   OH227309   5.477   1.193   2.785  0.3697  0.4142  0.1300
 1965TIP3    H127310   5.426   1.223   2.861  0.0978  0.0989  0.0771
 1965TIP3    H227311   5.498   1.273   2.737  1.3211  0.7090  1.0135
 1966TIP3   OH227312   6.457   2.906   2.805 -0.2598 -0.4656  0.0606
 1966TIP3    H127313   6.398   2.847   2.851  0.8474 -2.7000 -1.2545
 1966TIP3    H227314   6.538   2.855   2.795  0.5676  1.1094 -1.5313
 1967TIP3   OH227315   4.328   6.194   1.095 -0.2591  0.1638 -0.5140
 1967TIP3    H127316   4.256   6.182   1.156  0.6731  0.2859  0.6216
 1967TIP3    H227317   4.340   6.288   1.089  1.3953  0.0872  1.2066
 1968TIP3   OH227318   0.454   5.178  11.015  0.0053 -0.2822  0.4693
 1968TIP3    H127319   0.480   5.116  11.083 -0.2528 -1.5516 -0.5653
 1968TIP3    H227320   0.374   5.218  11.049  0.2067 -0.4657  1.1783
 1969TIP3   OH227321   5.666   4.819   3.372  0.1299  0.1013 -0.7871
 1969TIP3    H127322   5.671   4.724   3.386 -2.0182  0.2928  1.7057
 1969TIP3    H227323   5.633   4.829   3.283  0.0604 -1.5105 -0.9482
 1970TIP3   OH227324   1.861   3.834  15.866 -0.3652  0.1392 -0.2231
 1970TIP3    H127325   1.882   3.861  15.777 -0.1690 -0.6063 -0.4041
 1970TIP3    H227326   1.933   3.870  15.919 -0.3688  0.3991 -0.3958
 1971TIP3   OH227327   4.014   0.020  12.518 -0.1024 -0.6057 -0.8273
 1971TIP3    H127328   4.028   0.031  12.612 -1.7012 -3.2136 -0.2430
 1971TIP3    H227329   3.986   0.106  12.487  0.4327  0.2624  1.0665
 1972TIP3   OH227330   6.199   0.218  11.766 -0.2286  0.0188 -0.0552
 1972TIP3    H127331   6.115   0.172  11.760  0.2068 -1.0535  1.7205
 1972TIP3    H227332   6.182   0.292  11.823 -0.2021  0.3804 -0.5142
 1973TIP3   OH227333   1.325   1.262  13.171  0.2776 -0.2215  0.2521
 1973TIP3    H127334   1.291   1.240  13.258  0.0602  0.1425  0.2575
 1973TIP3    H227335   1.350   1.177  13.134  2.8463 -0.1674  1.7000
 1974TIP3   OH227336   0.238   0.578   1.292 -0.2544 -0.1818 -0.2821
 1974TIP3    H127337   0.269   0.488   1.281  0.0252 -0.0432 -0.6530
 1974TIP3    H227338   0.142   0.570   1.292 -0.2295 -0.7144  1.8196
 1975TIP3   OH227339   6.684   0.571  14.074  0.7647 -0.0201 -0.5187
 1975TIP3    H127340   6.684   0.559  14.169  0.1042 -0.6323 -0.5962
 1975TIP3    H227341   6.673   0.665  14.062 -0.2278 -0.0680 -0.0011
 1976TIP3   OH227342   3.120   4.510   3.534  0.0537 -0.2022 -0.2452
 1976TIP3    H127343   3.112   4.604   3.549 -2.9785 -0.5994  1.1347
 1976TIP3    H227344   3.029   4.479   3.527  0.9379 -3.2720  0.9822
 1977TIP3   OH227345   0.399   5.866  13.583  0.0848  0.0223 -0.2536
 1977TIP3    H127346   0.401   5.773  13.606 -3.4192 -0.7625 -2.7553
 1977TIP3    H227347   0.407   5.911  13.667 -0.2091 -2.5752  1.2298
 1978TIP3   OH227348   0.549   6.517   5.423  0.5261  0.0276  0.0657
 1978TIP3    H127349   0.613   6.534   5.492 -0.9844 -0.8025  1.7314
 1978TIP3    H227350   0.554   6.593   5.366  2.6158  0.2014  0.4590
 1979TIP3   OH227351   3.693   4.838   1.983 -0.6870  0.5278 -0.2068
 1979TIP3    H127352   3.652   4.823   2.069  0.5794  0.4897  0.3989
 1979TIP3    H227353   3.775   4.883   2.003  0.4103 -0.9482 -1.2633
 1980TIP3   OH227354   4.654   4.508   3.042  0.3706 -0.2634  0.4369
 1980TIP3    H127355   4.617   4.430   2.999  0.7747 -0.6265  0.7561
 1980TIP3    H227356   4.745   4.510   3.015  0.5585 -0.3390  1.0689
 1981TIP3   OH227357   2.231   0.644   0.581  0.0178  0.5967  0.6605
 1981TIP3    H127358   2.311   0.696   0.576 -0.4177  1.1192 -1.2450
 1981TIP3    H227359   2.200   0.639   0.491 -2.4975  1.0240  1.4568
 1982TIP3   OH227360   5.093   0.437   3.891  0.2475  0.7496  0.0738
 1982TIP3    H127361   5.178   0.429   3.849  0.7918  0.6803  1.1783
 1982TIP3    H227362   5.112   0.437   3.985 -1.0974 -1.0325  0.3716
 1983TIP3   OH227363   5.626   5.849   2.558 -0.5243 -0.0979  0.5692
 1983TIP3    H127364   5.549   5.906   2.554  0.0193  0.5347 -1.0598
 1983TIP3    H227365   5.700   5.907   2.543  0.2511 -0.7881  1.6916
 1984TIP3   OH227366   0.103   0.691   2.072  0.2924  0.6021 -0.2124
 1984TIP3    H127367   0.176   0.729   2.022  1.4233  1.0350  1.7402
 1984TIP3    H227368   0.031   0.755   2.061 -0.6802 -1.0357 -4.2151
 1985TIP3   OH227369   0.732   1.545   5.832 -0.4917  0.3467 -0.2871
 1985TIP3    H127370   0.770   1.586   5.910 -0.2588  1.2530 -0.8739
 1985TIP3    H227371   0.664   1.606   5.803  1.4796  1.5219 -2.5672
 1986TIP3   OH227372   2.314   4.761  14.182 -0.3150  0.5661  0.5338
 1986TIP3    H127373   2.373   4.832  14.209 -0.8395  0.7841  1.1308
 1986TIP3    H227374   2.233   4.778  14.231 -0.6095 -0.1661  0.3027
 1987TIP3   OH227375   4.162   4.330   4.459  0.3509  0.2247  0.0464
 1987TIP3    H127376   4.231   4.279   4.416  1.3096  0.9948  0.6613
 1987TIP3    H227377   4.151   4.289   4.544 -0.3513 -0.2444 -0.2659
 1988TIP3   OH227378   5.563   2.305  14.355  0.1816 -0.4521 -0.0481
 1988TIP3    H127379   5.512   2.323  14.276  0.8869 -0.1935 -0.4502
 1988TIP3    H227380   5.522   2.357  14.423  0.3498  0.3203 -0.5317
 1989TIP3   OH227381   6.726   6.084   1.835  0.1689 -0.3464 -0.3224
 1989TIP3    H127382   6.644   6.035   1.836 -1.1639  1.8084 -1.4209
 1989TIP3    H227383   6.700   6.175   1.850  2.5570  0.1291  1.3715
 1990TIP3   OH227384   6.746   2.027  14.810  0.3879 -0.8556  0.3776
 1990TIP3    H127385   6.666   2.057  14.767  0.5651  0.2066  0.7781
 1990TIP3    H227386   6.805   2.101  14.804  1.0685 -1.3636  0.7934
 1991TIP3   OH227387   0.161   5.506  11.059 -0.6191 -0.5530 -0.2622
 1991TIP3    H127388   0.230   5.457  11.105  0.1412  0.2596 -0.5077
 1991TIP3    H227389   0.203   5.534  10.977 -1.6644 -1.1833 -1.0060
 1992TIP3   OH227390   6.338   2.640   2.154 -0.3925  0.6002 -0.0854
 1992TIP3    H127391   6.337   2.700   2.080  0.0752  2.3251  1.2677
 1992TIP3    H227392   6.249   2.604   2.157 -1.0739  2.2402 -0.1196
 1993TIP3   OH227393   4.247   6.018  11.583  0.7011  0.0063 -0.1389
 1993TIP3    H127394   4.233   6.092  11.524 -1.9592 -1.1434 -1.0260
 1993TIP3    H227395   4.297   6.054  11.656 -1.7378  2.9934  0.1067
 1994TIP3   OH227396   5.754   0.694   1.009  0.2364 -0.0608  0.3084
 1994TIP3    H127397   5.842   0.679   0.974  0.2800  0.0443  0.3721
 1994TIP3    H227398   5.769   0.730   1.096  0.1296 -0.1176  0.3502
 1995TIP3   OH227399   4.910   1.408   1.177 -0.2399 -0.0259  0.0520
 1995TIP3    H127400   4.815   1.397   1.174  0.0070 -2.1588 -1.5705
 1995TIP3    H227401   4.936   1.366   1.259 -0.6384 -0.0867  0.1502
 1996TIP3   OH227402   2.420   0.415   2.774  0.0363  0.2733 -0.5497
 1996TIP3    H127403   2.458   0.454   2.695 -1.3208 -0.4687 -1.5883
 1996TIP3    H227404   2.331   0.450   2.778 -0.6438 -1.3688 -0.5788
 1997TIP3   OH227405   6.542   6.525  15.221  0.2943  0.0063  0.5293
 1997TIP3    H127406   6.524   6.612  15.187 -0.6180 -0.1152  0.6903
 1997TIP3    H227407   6.565   6.474  15.144 -1.0464 -0.0815  0.1662
 1998TIP3   OH227408   5.246   0.266  11.488 -0.2841 -0.1131 -0.3078
 1998TIP3    H127409   5.210   0.352  11.466 -0.3963  0.1473  0.8607
 1998TIP3    H227410   5.199   0.240  11.567  0.5589 -0.7348 -0.0034
 1999TIP3   OH227411   0.832   0.855   0.819 -0.1142  0.0823  0.4249
 1999TIP3    H127412   0.840   0.777   0.874  0.4542 -1.0365 -1.1982
 1999TIP3    H227413   0.765   0.831   0.755 -1.3768  1.6736  1.1136
 2000TIP3   OH227414   1.343   3.876   3.340 -0.1874  0.2485  0.0460
 2000TIP3    H127415   1.295   3.807   3.294  1.6576 -2.0297  1.3795
 2000TIP3    H227416   1.419   3.894   3.285 -1.8068  2.9028 -1.4138
 2001TIP3   OH227417   6.652   0.931   4.702  0.1703  0.2869  0.3134
 2001TIP3    H127418   6.561   0.910   4.682  0.6537 -1.8308  0.2808
 2001TIP3    H227419   6.670   0.887   4.786  1.7524 -1.0590 -0.6876
 2002TIP3   OH227420   6.021   4.365   2.749  0.0351  0.4005  1.0457
 2002TIP3    H127421   5.999   4.282   2.707 -0.8820  0.4583  1.3912
 2002TIP3    H227422   6.112   4.382   2.723 -0.4665  0.3865 -0.8120
 2003TIP3   OH227423   1.009   6.551  15.831 -0.0448 -0.1080  0.5815
 2003TIP3    H127424   1.064   6.569  15.908 -1.2142 -0.4727  1.5181
 2003TIP3    H227425   1.071   6.518  15.765  0.8972 -0.3444  1.5583
 2004TIP3   OH227426   0.788   1.894   4.738 -0.0665  0.3563 -0.7205
 2004TIP3    H127427   0.845   1.964   4.706 -0.7167  0.7866 -0.9526
 2004TIP3    H227428   0.843   1.816   4.737  0.6292  0.8414 -0.5823
 2005TIP3   OH227429   5.820   4.247   3.413  0.0448 -0.2279  0.4113
 2005TIP3    H127430   5.818   4.151   3.423  0.4263 -0.4718 -1.5262
 2005TIP3    H227431   5.867   4.261   3.331  1.2403  1.6985  1.3888
 2006TIP3   OH227432   6.616   4.751   4.344 -0.2496 -0.1123 -0.3921
 2006TIP3    H127433   6.564   4.675   4.369 -0.6186 -0.5741 -2.4681
 2006TIP3    H227434   6.697   4.743   4.395 -0.9476 -0.9989  0.6050
 2007TIP3   OH227435   3.895   1.945   3.848 -0.7776  0.0973 -0.0435
 2007TIP3    H127436   3.811   1.902   3.833 -0.7222  0.4295 -1.3201
 2007TIP3    H227437   3.871   2.030   3.887 -1.0222  0.0473 -0.0811
 2008TIP3   OH227438   1.558   3.413   1.647 -0.6600 -0.8637 -0.4005
 2008TIP3    H127439   1.647   3.389   1.673 -0.7410 -0.9555 -0.2035
 2008TIP3    H227440   1.570   3.480   1.580 -0.4611  1.7896  2.2046
 2009TIP3   OH227441   6.164   5.288  11.838  0.8538 -0.7401 -0.3652
 2009TIP3    H127442   6.196   5.292  11.928 -0.9397 -1.7227  0.3395
 2009TIP3    H227443   6.230   5.336  11.787  0.5525  2.1740  1.8210
 2010TIP3   OH227444   3.042   3.908  12.969 -0.3552  0.4197  0.0817
 2010TIP3    H127445   3.039   3.891  13.063 -0.7546 -0.8153 -0.1412
 2010TIP3    H227446   2.951   3.917  12.943 -0.6678 -4.1835 -0.9924
 2011TIP3   OH227447   5.030   5.651   0.598 -0.2031 -0.0272  0.3611
 2011TIP3    H127448   5.014   5.562   0.567 -0.4118 -0.6353  2.1464
 2011TIP3    H227449   5.066   5.697   0.523 -0.4239 -1.5266 -0.6792
 2012TIP3   OH227450   3.975   1.262   6.293  0.2896 -0.0276 -0.0589
 2012TIP3    H127451   3.906   1.196   6.279 -0.1572  0.5215 -0.4709
 2012TIP3    H227452   3.996   1.255   6.386 -1.5520  0.9843  0.4642
 2013TIP3   OH227453   4.611   2.438   3.087  0.0169 -0.1079 -0.0812
 2013TIP3    H127454   4.570   2.498   3.151 -1.1122  0.3397 -1.2079
 2013TIP3    H227455   4.547   2.431   3.017  1.2218 -0.6786 -1.1316
 2014TIP3   OH227456   3.184   2.457   5.115 -0.3688  0.0877 -0.3641
 2014TIP3    H127457   3.228   2.485   5.195 -0.8940 -0.1547  0.0145
 2014TIP3    H227458   3.240   2.489   5.044  1.2372 -1.5238  0.1238
 2015TIP3   OH227459   4.145   0.297   3.337  0.3499 -0.1073 -0.4829
 2015TIP3    H127460   4.186   0.358   3.398  1.0172 -0.0429 -0.9984
 2015TIP3    H227461   4.057   0.334   3.322  0.2176 -0.0829  0.3725
 2016TIP3   OH227462   3.976   1.002  15.238  0.5801 -0.5744 -0.2871
 2016TIP3    H127463   4.049   0.986  15.299  0.6205 -0.8962 -0.4182
 2016TIP3    H227464   3.933   1.080  15.272  0.6144 -0.7443  0.1466
 2017TIP3   OH227465   4.905   5.337   4.181  0.5042  0.0160  0.3659
 2017TIP3    H127466   4.969   5.390   4.230  0.5722 -1.1451  1.5849
 2017TIP3    H227467   4.958   5.270   4.138  0.2410 -0.2395  0.4342
 2018TIP3   OH227468   0.741   2.910  14.180  0.3060  0.0810  0.1367
 2018TIP3    H127469   0.720   2.989  14.130 -0.0617  1.1381  1.9111
 2018TIP3    H227470   0.670   2.849  14.159 -1.5520  1.6349  1.7301
 2019TIP3   OH227471   5.164   0.561   2.250  0.1562 -0.0813  0.7389
 2019TIP3    H127472   5.071   0.543   2.264  0.0675 -0.2058 -0.0060
 2019TIP3    H227473   5.176   0.554   2.156  0.9319 -0.0986  0.8375
 2020TIP3   OH227474   4.508   1.354   1.994  1.0572  0.0019  0.0600
 2020TIP3    H127475   4.492   1.361   1.900  3.1754  0.8849 -0.2780
 2020TIP3    H227476   4.423   1.372   2.034  0.5632  1.7416 -1.6334
 2021TIP3   OH227477   4.710   1.962  13.936 -0.2138 -0.0264  0.1297
 2021TIP3    H127478   4.640   1.985  13.998 -0.3012  2.2201 -0.7406
 2021TIP3    H227479   4.693   1.871  13.914 -3.3234  0.6488 -0.5811
 2022TIP3   OH227480   1.070   6.235   0.358 -0.1309 -0.1833  0.3630
 2022TIP3    H127481   1.021   6.160   0.325 -0.4533 -0.9888  2.5697
 2022TIP3    H227482   1.065   6.227   0.454  1.9248  1.2716  0.6363
 2023TIP3   OH227483   0.664   0.836   0.149  0.0196 -0.7326  0.0261
 2023TIP3    H127484   0.683   0.918   0.104 -1.3891 -1.6789 -2.3655
 2023TIP3    H227485   0.727   0.833   0.221  0.1037  2.4297  0.1597
 2024TIP3   OH227486   1.996   3.547  14.582  0.5282 -0.4812 -0.5533
 2024TIP3    H127487   1.911   3.504  14.577  0.4781 -0.3754 -0.6070
 2024TIP3    H227488   2.021   3.562  14.491 -1.1744  2.9945 -0.5292
 2025TIP3   OH227489   5.085   4.547  13.173  0.6631  0.1177  0.1020
 2025TIP3    H127490   4.994   4.521  13.161  0.8319 -0.7729  0.6919
 2025TIP3    H227491   5.081   4.621  13.233  0.2830  0.5414 -0.4367
 2026TIP3   OH227492   1.401   4.722   4.713  0.0025  0.2699 -0.5235
 2026TIP3    H127493   1.367   4.746   4.799 -1.0557  0.4197 -0.9734
 2026TIP3    H227494   1.370   4.633   4.699  0.7931 -0.0250 -0.4466
 2027TIP3   OH227495   6.616   3.129   1.977 -0.4958  0.1378 -0.2913
 2027TIP3    H127496   6.609   3.128   2.073 -3.4721  1.5520 -0.4126
 2027TIP3    H227497   6.578   3.046   1.949  2.5996 -1.3558 -0.1919
 2028TIP3   OH227498   5.197   3.996  12.090  0.5159 -0.4923  0.2222
 2028TIP3    H127499   5.174   4.089  12.093  1.1013 -0.3378 -0.0472
 2028TIP3    H227500   5.113   3.951  12.100 -0.0446  0.0665 -1.6887
 2029TIP3   OH227501   6.008   2.387  14.556 -0.4573 -0.0685 -0.3336
 2029TIP3    H127502   6.027   2.481  14.566 -1.0002 -0.0771  0.9010
 2029TIP3    H227503   6.016   2.352  14.645  0.7625 -1.3907 -0.9609
 2030TIP3   OH227504   4.604   4.505  12.231 -0.0890 -0.1717 -0.3476
 2030TIP3    H127505   4.545   4.534  12.300  1.8062 -0.7546  1.5799
 2030TIP3    H227506   4.574   4.417  12.209 -0.7247  0.0298 -0.2846
 2031TIP3   OH227507   6.686   1.178  16.054 -0.4294  0.0203 -0.3598
 2031TIP3    H127508   6.733   1.253  16.019  0.4925 -0.2162  0.3564
 2031TIP3    H227509   6.601   1.180  16.010 -0.1411  1.0598 -0.8743
 2032TIP3   OH227510   1.687   1.988   4.733  0.3635  0.1440 -0.2686
 2032TIP3    H127511   1.772   1.987   4.690  0.8665  1.2291  0.6877
 2032TIP3    H227512   1.657   2.079   4.725 -0.4829 -0.1207 -0.1681
 2033TIP3   OH227513   0.964   0.081  14.718 -0.0811  0.1608  0.5964
 2033TIP3    H127514   0.949   0.174  14.733  1.2644  0.4324  0.2967
 2033TIP3    H227515   0.908   0.059  14.644  2.3964  1.6254 -1.8212
 2034TIP3   OH227516   6.724   1.514  16.889 -0.3020 -0.0880 -0.4913
 2034TIP3    H127517   6.770   1.459  16.953  0.7597  1.0921 -0.2244
 2034TIP3    H227518   6.704   1.595  16.937  0.2735  0.7037 -1.5633
 2035TIP3   OH227519   6.123   2.559   3.415  0.2529  0.5918  0.4134
 2035TIP3    H127520   6.053   2.521   3.363 -0.4934  1.6304  0.6510
 2035TIP3    H227521   6.101   2.652   3.422  2.4265  1.2262 -0.7662
 2036TIP3   OH227522   4.613   2.019  14.197 -0.5875 -0.3194 -0.1366
 2036TIP3    H127523   4.642   2.009  14.288 -0.7515  0.1917 -0.0240
 2036TIP3    H227524   4.669   2.088  14.161 -0.4047 -0.6428 -0.4801
 2037TIP3   OH227525   0.813   0.611  15.782  0.0303 -0.4059 -0.1565
 2037TIP3    H127526   0.742   0.660  15.824  0.3257  2.1093 -2.4413
 2037TIP3    H227527   0.882   0.605  15.848 -0.2135  1.8869  0.3263
 2038TIP3   OH227528   1.810   4.670  13.491 -0.4926 -0.2417 -1.0669
 2038TIP3    H127529   1.774   4.751  13.529 -1.3924 -0.8296 -0.6390
 2038TIP3    H227530   1.744   4.643  13.427  0.1296 -0.2763 -1.7011
 2039TIP3   OH227531   2.389   1.359   6.053  0.4030  0.0828 -0.4246
 2039TIP3    H127532   2.313   1.351   5.996  1.6467 -1.3088 -1.9716
 2039TIP3    H227533   2.353   1.362   6.141 -1.4364 -1.0291 -1.0982
 2040TIP3   OH227534   6.100   6.346   2.528  0.2514 -0.0506  1.2178
 2040TIP3    H127535   6.053   6.353   2.445  2.0765  0.9976  0.2595
 2040TIP3    H227536   6.030   6.344   2.594 -1.1538  1.4653 -0.1673
 2041TIP3   OH227537   2.303   3.958   2.532  0.4826  0.0031  0.4457
 2041TIP3    H127538   2.251   3.953   2.612  0.6305  0.6207  0.5852
 2041TIP3    H227539   2.299   4.050   2.507 -1.6421 -0.6068 -1.6613
 2042TIP3   OH227540   6.118   1.745  15.418 -0.0454  0.0265 -0.2089
 2042TIP3    H127541   6.134   1.753  15.512  1.0588 -1.8835 -0.2212
 2042TIP3    H227542   6.192   1.790  15.378 -0.3184  0.5111 -0.1721
 2043TIP3   OH227543   2.559   4.904   0.820  0.1220 -0.4557  0.7298
 2043TIP3    H127544   2.646   4.931   0.791  0.5389 -1.1957  1.2785
 2043TIP3    H227545   2.543   4.953   0.901 -0.5439  0.7050 -0.0891
 2044TIP3   OH227546   4.657   2.019   4.140 -0.4326  0.3220  0.0603
 2044TIP3    H127547   4.566   2.049   4.145 -0.3154  0.9218 -1.1624
 2044TIP3    H227548   4.661   1.946   4.201 -1.5209  0.8330  0.7597
 2045TIP3   OH227549   5.345   2.534   2.946  0.3463 -0.1195  0.1449
 2045TIP3    H127550   5.251   2.518   2.959  0.8403 -1.1509  2.8574
 2045TIP3    H227551   5.380   2.448   2.922  0.6789  0.1306 -0.2599
 2046TIP3   OH227552   2.004   2.649   5.445 -0.1657  0.5894 -0.0641
 2046TIP3    H127553   1.915   2.615   5.457  0.0042  0.1671  0.0147
 2046TIP3    H227554   2.000   2.696   5.362 -0.8890  2.0054  0.7510
 2047TIP3   OH227555   5.677   1.279   1.945  0.2568  0.3552  0.5535
 2047TIP3    H127556   5.668   1.347   2.011 -0.9454 -0.0245  0.7762
 2047TIP3    H227557   5.744   1.220   1.981  0.9864  1.1660  0.5541
 2048TIP3   OH227558   3.131   3.842  11.692  0.1435 -0.2791 -0.1566
 2048TIP3    H127559   3.171   3.926  11.716 -0.6502  0.1575 -0.3542
 2048TIP3    H227560   3.037   3.859  11.694 -0.0700 -1.5588  1.2635
 2049TIP3   OH227561   3.917   1.908  13.320  0.6861  0.2203 -0.1953
 2049TIP3    H127562   3.968   1.833  13.291  0.3622 -0.1430  0.1873
 2049TIP3    H227563   3.901   1.957  13.239  0.8599 -0.1385 -0.4504
 2050TIP3   OH227564   1.909   2.107  11.380  0.1494 -0.0752  0.4034
 2050TIP3    H127565   1.953   2.186  11.412  0.9715 -0.4188  0.1319
 2050TIP3    H227566   1.836   2.095  11.440  1.6958 -0.7380  2.1953
 2051TIP3   OH227567   1.220   5.607  12.049 -0.1592  0.1724 -0.3452
 2051TIP3    H127568   1.259   5.686  12.088 -0.8798  0.3544  0.0121
 2051TIP3    H227569   1.220   5.625  11.955  0.2175  0.3516 -0.3117
 2052TIP3   OH227570   2.658   0.745  12.200 -0.2126  0.1277 -0.0932
 2052TIP3    H127571   2.746   0.740  12.238 -0.3175  1.1599  0.3176
 2052TIP3    H227572   2.661   0.822  12.144 -1.4835  1.5072  1.6677
 2053TIP3   OH227573   5.753   6.692  16.760 -0.2281  0.4846 -0.3421
 2053TIP3    H127574   5.728   6.784  16.768  1.8513  0.9644  1.1090
 2053TIP3    H227575   5.761   6.661  16.850  0.0944 -0.8304 -0.8059
 2054TIP3   OH227576   4.753   1.873  12.434 -0.5050 -0.9735  0.2558
 2054TIP3    H127577   4.730   1.894  12.525  0.5011 -2.1544  0.7923
 2054TIP3    H227578   4.785   1.955  12.398 -2.9837  0.0643  0.2912
 2055TIP3   OH227579   4.150   5.027   2.792  0.3354 -0.1981  0.5769
 2055TIP3    H127580   4.079   4.989   2.740 -0.6832 -0.6169  2.2147
 2055TIP3    H227581   4.223   4.967   2.781 -0.4635 -1.2849  1.1134
 2056TIP3   OH227582   3.031   1.819   0.961 -0.0792  0.2160 -0.4570
 2056TIP3    H127583   3.104   1.779   1.010 -1.3950 -0.4369  1.0023
 2056TIP3    H227584   3.062   1.821   0.870  1.7738 -0.0200  0.1413
 2057TIP3   OH227585   4.137   3.060   2.294 -0.1978 -0.2372  0.2460
 2057TIP3    H127586   4.166   3.012   2.217  1.6988  2.1854 -0.6098
 2057TIP3    H227587   4.051   3.095   2.270 -0.3702 -0.9079 -0.1203
 2058TIP3   OH227588   0.225   4.927   5.098 -0.4663  0.9071 -0.0366
 2058TIP3    H127589   0.193   4.837   5.100  0.6332  0.5208  1.9229
 2058TIP3    H227590   0.157   4.977   5.144 -0.0996  0.7193  0.7220
 2059TIP3   OH227591   3.736   0.371  15.805 -0.3834  0.3497  0.4194
 2059TIP3    H127592   3.799   0.419  15.859 -1.0157  2.0966 -0.3581
 2059TIP3    H227593   3.779   0.287  15.788  0.0019 -0.0416  3.2186
 2060TIP3   OH227594   6.462   4.818  15.309 -0.1276 -0.0821  0.1122
 2060TIP3    H127595   6.481   4.893  15.366  0.0433  0.9773 -1.3124
 2060TIP3    H227596   6.379   4.784  15.341 -1.1827  1.9002 -0.4124
 2061TIP3   OH227597   4.957   2.496  15.135  0.0416 -0.6684  0.4529
 2061TIP3    H127598   4.918   2.511  15.050 -0.4694 -1.5992  0.5239
 2061TIP3    H227599   5.031   2.438  15.118  2.5157  2.4334  0.0704
 2062TIP3   OH227600   4.206   2.085  11.453  0.2387  0.4126 -0.3167
 2062TIP3    H127601   4.187   2.152  11.387 -0.6541  0.8197  0.3542
 2062TIP3    H227602   4.132   2.025  11.449  0.1480  0.4776  0.3708
 2063TIP3   OH227603   2.572   1.720  14.462  0.3960 -0.0111 -0.0272
 2063TIP3    H127604   2.631   1.652  14.428  1.0355  1.3445 -1.6861
 2063TIP3    H227605   2.588   1.720  14.556  2.8151  0.0674 -0.4033
 2064TIP3   OH227606   4.888   0.278  16.064 -0.2319  0.1852  0.1477
 2064TIP3    H127607   4.825   0.207  16.053 -0.6872  0.7111 -0.6017
 2064TIP3    H227608   4.960   0.256  16.005 -0.2894  0.2578  0.0514
 2065TIP3   OH227609   1.388   6.272   4.321 -0.3848 -0.0956  0.6446
 2065TIP3    H127610   1.454   6.282   4.252 -0.0369 -1.5825  0.7479
 2065TIP3    H227611   1.306   6.295   4.278 -0.0858 -0.3683 -0.0885
 2066TIP3   OH227612   6.090   3.623   4.875 -0.7571 -0.5333  0.5205
 2066TIP3    H127613   6.174   3.623   4.829 -1.0955 -1.1544 -0.1047
 2066TIP3    H227614   6.103   3.684   4.948 -0.1384  0.2479 -0.2330
 2067TIP3   OH227615   3.422   3.707  15.485  0.0592  0.3497  0.6251
 2067TIP3    H127616   3.429   3.733  15.577  0.4067  1.1570  0.3722
 2067TIP3    H227617   3.373   3.778  15.444  1.4853  0.8881 -0.1840
 2068TIP3   OH227618   1.288   6.251  14.035 -0.0787  0.0072 -0.1483
 2068TIP3    H127619   1.374   6.293  14.042 -0.2179  0.2904 -0.1298
 2068TIP3    H227620   1.229   6.322  14.010 -0.2858 -0.2134 -0.2891
 2069TIP3   OH227621   6.685   1.226   3.498  0.8161  0.3728  0.1805
 2069TIP3    H127622   6.780   1.213   3.498  1.1681  2.4743 -1.9045
 2069TIP3    H227623   6.674   1.316   3.528 -0.3292  0.9222 -1.7893
 2070TIP3   OH227624   1.014   1.389   1.848 -0.5942  0.0289  0.0729
 2070TIP3    H127625   1.061   1.319   1.802 -2.3066 -0.7626 -0.5037
 2070TIP3    H227626   1.081   1.430   1.903  1.0145 -0.3647 -1.5379
 2071TIP3   OH227627   0.295   5.949   5.978  0.5263  0.0567  0.3476
 2071TIP3    H127628   0.319   5.960   6.070 -0.0846  2.1661  0.2849
 2071TIP3    H227629   0.210   5.905   5.981  1.6834 -2.1988  0.7103
 2072TIP3   OH227630   5.920   1.396   3.535  0.4408 -0.1016 -0.5920
 2072TIP3    H127631   5.828   1.389   3.508 -0.5350  2.9257  1.7011
 2072TIP3    H227632   5.962   1.445   3.464 -0.3457  0.9166 -0.3625
 2073TIP3   OH227633   3.131   2.789   5.802 -0.2136 -0.2701 -0.0759
 2073TIP3    H127634   3.212   2.739   5.815  1.3937  2.6203  1.5077
 2073TIP3    H227635   3.126   2.847   5.877 -2.8237  0.9087 -1.1038
 2074TIP3   OH227636   6.049   5.391  16.174  0.2026  0.9775 -0.2567
 2074TIP3    H127637   6.102   5.435  16.108 -1.8839  3.5173 -0.3044
 2074TIP3    H227638   6.095   5.405  16.256  1.5992 -0.2073 -0.8204
 2075TIP3   OH227639   6.468   5.161  15.896 -0.3901  0.7491 -0.2221
 2075TIP3    H127640   6.468   5.224  15.969 -0.5536  1.4337 -0.8037
 2075TIP3    H227641   6.554   5.120  15.899 -0.9375 -0.3136  1.2801
 2076TIP3   OH227642   3.493   5.237  14.425 -1.3667 -0.1536 -0.0606
 2076TIP3    H127643   3.520   5.147  14.407  1.5247  0.5143  0.7141
 2076TIP3    H227644   3.488   5.278  14.339 -1.3144 -0.6823 -0.3197
 2077TIP3   OH227645   6.228   5.391  16.400  0.2032  0.2674  0.2782
 2077TIP3    H127646   6.291   5.445  16.352  1.4244 -1.4518 -0.1000
 2077TIP3    H227647   6.231   5.424  16.489 -1.3094  2.8019 -0.5488
 2078TIP3   OH227648   4.086   2.415   1.181 -0.4511 -0.0734 -0.0642
 2078TIP3    H127649   4.008   2.403   1.127  0.6476 -0.8869 -1.4979
 2078TIP3    H227650   4.084   2.341   1.243 -0.4203 -0.5274 -0.6020
 2079TIP3   OH227651   5.532   2.572  13.011 -0.3773 -0.9349 -0.2162
 2079TIP3    H127652   5.455   2.629  13.013  0.1865 -0.1200 -1.3934
 2079TIP3    H227653   5.545   2.546  13.102  0.4703  2.3317  0.6794
 2080TIP3   OH227654   4.161   6.590  11.430 -0.0892 -0.1545 -0.5681
 2080TIP3    H127655   4.197   6.509  11.393  1.8064  0.8003 -0.8365
 2080TIP3    H227656   4.091   6.615  11.368 -1.5549 -2.2416  0.2003
 2081TIP3   OH227657   4.376   0.856  14.414 -0.3742 -0.6787 -0.3438
 2081TIP3    H127658   4.377   0.835  14.321  0.0245 -0.5419 -0.3686
 2081TIP3    H227659   4.334   0.780  14.455 -3.0035  0.4036 -0.9099
 2082TIP3   OH227660   6.033   0.631  12.103  0.2888 -0.1548  0.2477
 2082TIP3    H127661   6.087   0.709  12.090  0.1631 -0.3495 -1.4867
 2082TIP3    H227662   5.956   0.663  12.149 -0.2318  0.9328 -1.3681
 2083TIP3   OH227663   5.881   2.707   3.907 -0.2768 -0.0174 -0.5637
 2083TIP3    H127664   5.881   2.666   3.821 -0.9868 -1.9288  0.3186
 2083TIP3    H227665   5.808   2.769   3.905  0.4114  0.7539 -1.7041
 2084TIP3   OH227666   5.821   1.468   0.166 -0.1306  0.1788 -0.3516
 2084TIP3    H127667   5.894   1.464   0.104 -0.9911 -2.4579 -1.2585
 2084TIP3    H227668   5.811   1.378   0.197 -1.4524  0.9692  1.6115
 2085TIP3   OH227669   2.469   2.628  11.878 -0.8022  0.3141 -0.4829
 2085TIP3    H127670   2.543   2.575  11.850 -1.2368 -0.5525 -0.0246
 2085TIP3    H227671   2.406   2.621  11.806 -1.2390 -0.5612 -0.0267
 2086TIP3   OH227672   0.433   0.024  12.008 -0.1504 -0.3182 -0.0435
 2086TIP3    H127673   0.471  -0.030  12.077  1.4610 -0.5316 -1.0856
 2086TIP3    H227674   0.442   0.114  12.039 -0.1969 -0.4648  0.3962
 2087TIP3   OH227675   3.747   6.577  12.877  0.4275  0.5991  0.2970
 2087TIP3    H127676   3.793   6.492  12.873  0.2325  0.5433 -0.8830
 2087TIP3    H227677   3.702   6.584  12.793 -1.1896  0.9752  1.1750
 2088TIP3   OH227678   6.632   2.726  16.741 -0.3466 -0.3295 -0.1520
 2088TIP3    H127679   6.536   2.720  16.737 -0.3979  1.4290 -2.7011
 2088TIP3    H227680   6.650   2.752  16.831 -2.5428  2.8923 -0.5382
 2089TIP3   OH227681   1.354   2.308   3.476 -0.3355  0.1326 -0.4279
 2089TIP3    H127682   1.400   2.239   3.428  0.0792  1.6263 -2.2235
 2089TIP3    H227683   1.263   2.280   3.477 -0.1414 -0.5300 -0.9983
 2090TIP3   OH227684   0.138   2.810  12.002  0.0207  0.0904  0.4086
 2090TIP3    H127685   0.071   2.752  11.966 -0.3836  0.9492 -0.2493
 2090TIP3    H227686   0.219   2.760  11.996 -0.7794 -1.6126  2.7430
 2091TIP3   OH227687   4.388   2.402   6.666 -0.5514 -0.0892  0.1916
 2091TIP3    H127688   4.447   2.345   6.616 -0.4346  1.0747 -1.0128
 2091TIP3    H227689   4.446   2.467   6.706 -0.6977 -0.7489  1.5044
 2092TIP3   OH227690   0.357   1.430  13.861  0.0386 -0.1749 -0.0603
 2092TIP3    H127691   0.261   1.425  13.861  0.0730 -0.8886 -0.1231
 2092TIP3    H227692   0.377   1.511  13.908 -0.6884  1.6871 -2.8380
 2093TIP3   OH227693   3.779   5.422  16.197  0.5440 -0.1284 -0.3390
 2093TIP3    H127694   3.834   5.493  16.232  0.8717 -1.0654  1.1220
 2093TIP3    H227695   3.817   5.402  16.111  0.5961  1.2942 -0.6530
 2094TIP3   OH227696   0.948   5.490   3.156  0.0091 -0.2694  0.7543
 2094TIP3    H127697   0.899   5.420   3.113 -2.2307  1.0845  1.0602
 2094TIP3    H227698   0.943   5.564   3.095  2.0606 -0.2112  0.6005
 2095TIP3   OH227699   0.812   0.444  16.982 -0.1186  0.0313  0.0283
 2095TIP3    H127700   0.886   0.486  17.027 -0.3734  0.0870  0.4036
 2095TIP3    H227701   0.812   0.482  16.895 -0.0008  0.3874  0.1840
 2096TIP3   OH227702   3.893   4.522   5.633 -0.0027  0.6216  0.2004
 2096TIP3    H127703   3.932   4.538   5.547 -0.7458 -0.0810 -0.2681
 2096TIP3    H227704   3.872   4.429   5.634  0.5987  0.4805  1.3929
 2097TIP3   OH227705   4.029   1.046  15.720  0.1755  0.2801  0.4879
 2097TIP3    H127706   4.093   0.982  15.751  0.4752  0.4375  0.2019
 2097TIP3    H227707   3.992   1.006  15.641  0.4921  0.5341  0.2072
 2098TIP3   OH227708   0.045   1.145   0.786 -0.2141 -0.6226 -0.7126
 2098TIP3    H127709   0.073   1.130   0.696 -1.2942 -1.1570 -0.9651
 2098TIP3    H227710   0.082   1.230   0.809 -1.9560  0.6575 -2.4802
 2099TIP3   OH227711   5.799   5.725  14.363  0.2003 -0.6511  0.8396
 2099TIP3    H127712   5.800   5.670  14.284  2.6315  0.8264 -0.2393
 2099TIP3    H227713   5.716   5.772  14.360 -0.3536 -1.6861 -0.0755
 2100TIP3   OH227714   5.949   5.467   0.002 -0.2590 -0.1032 -0.4282
 2100TIP3    H127715   5.889   5.463  -0.072  2.1081 -0.9957 -2.3726
 2100TIP3    H227716   5.964   5.560   0.017  0.1585  0.0580 -1.8409
 2101TIP3   OH227717   1.090   0.261   5.918  0.5696  0.0942 -0.6260
 2101TIP3    H127718   1.110   0.231   6.006 -1.6505 -0.5905 -0.3200
 2101TIP3    H227719   1.132   0.196   5.861  1.4021  0.1459 -0.0834
 2102TIP3   OH227720   0.494   0.885   5.668 -0.0079  0.3690  0.0564
 2102TIP3    H127721   0.443   0.966   5.672 -1.6690 -0.5534 -1.9047
 2102TIP3    H227722   0.495   0.861   5.576  1.5056 -1.2124  0.4529
 2103TIP3   OH227723   2.447   5.131   5.998 -0.3902 -0.2553 -0.6436
 2103TIP3    H127724   2.428   5.049   5.953  0.4157 -0.4755 -0.5922
 2103TIP3    H227725   2.447   5.108   6.091 -0.4627 -0.1382 -0.6160
 2104TIP3   OH227726   2.110   6.000  13.622  0.3777  0.3149  0.0336
 2104TIP3    H127727   2.125   6.094  13.636  1.8062  0.3200 -1.4531
 2104TIP3    H227728   2.116   5.962  13.710  0.5285  1.5037  0.5529
 2105TIP3   OH227729   2.398   2.160   4.032  0.0085 -0.0481 -0.0418
 2105TIP3    H127730   2.467   2.097   4.054 -0.2733 -0.5471 -0.5499
 2105TIP3    H227731   2.329   2.106   3.993 -0.1428  0.6181 -0.6992
 2106TIP3   OH227732   6.771   1.740  11.743 -0.1691 -0.2659  1.0603
 2106TIP3    H127733   6.856   1.699  11.760 -0.8470 -2.2359 -0.0995
 2106TIP3    H227734   6.748   1.782  11.825  1.5912 -0.3422  1.6145
 2107TIP3   OH227735   5.172   2.888  11.224  0.0295 -0.5216 -0.3537
 2107TIP3    H127736   5.244   2.950  11.242  0.3910 -0.3187 -2.4093
 2107TIP3    H227737   5.137   2.916  11.140 -0.0717 -2.8829 -1.1296
 2108TIP3   OH227738   4.583   3.440   3.186 -0.6310  0.4930 -0.5400
 2108TIP3    H127739   4.641   3.515   3.198  0.2407 -0.1225 -0.8252
 2108TIP3    H227740   4.508   3.458   3.242 -0.8030  1.9607 -1.2296
 2109TIP3   OH227741   1.157   4.742  12.251 -0.6540  0.1061  0.2312
 2109TIP3    H127742   1.098   4.699  12.189 -0.1878  1.8662 -1.4783
 2109TIP3    H227743   1.221   4.675  12.275 -0.9929 -0.6608 -1.0171
 2110TIP3   OH227744   2.158   4.253   4.540  0.1396  0.2591  0.5492
 2110TIP3    H127745   2.230   4.257   4.477 -0.7253  0.8892 -0.3999
 2110TIP3    H227746   2.202   4.255   4.625  1.3853 -1.9810 -0.0092
 2111TIP3   OH227747   2.761   5.129  14.182  0.2646 -0.3812 -0.5518
 2111TIP3    H127748   2.820   5.084  14.242 -0.6618 -0.6537  0.1828
 2111TIP3    H227749   2.769   5.081  14.100 -1.5003 -2.6310  0.5139
 2112TIP3   OH227750   0.785   1.007  14.355 -0.1043 -0.0094 -0.0836
 2112TIP3    H127751   0.767   1.072  14.424  1.3309 -0.7530  1.0197
 2112TIP3    H227752   0.734   1.037  14.280 -2.7129  0.1306  1.6821
 2113TIP3   OH227753   1.734   1.232  12.367  0.8284  0.4702 -0.2577
 2113TIP3    H127754   1.792   1.261  12.297  1.5940 -0.7468 -0.1233
 2113TIP3    H227755   1.739   1.302  12.433  2.4831  0.1648 -0.0497
 2114TIP3   OH227756   0.200   6.043   0.859  0.7885 -0.8747 -0.1559
 2114TIP3    H127757   0.273   6.013   0.805 -0.9194 -2.3722 -1.6772
 2114TIP3    H227758   0.182   5.971   0.919  1.4908  0.0730  1.2320
 2115TIP3   OH227759   1.193   0.042  16.990  0.0914  0.0904  0.2999
 2115TIP3    H127760   1.268   0.024  17.047  1.3619  1.5458 -0.8597
 2115TIP3    H227761   1.122   0.064  17.051  1.0737  0.3787  1.3630
 2116TIP3   OH227762   4.786   4.649   4.193 -0.1635 -0.4413 -0.0647
 2116TIP3    H127763   4.818   4.659   4.283  1.8311 -2.4556 -0.5162
 2116TIP3    H227764   4.831   4.718   4.144  1.1702 -1.3295 -0.1051
 2117TIP3   OH227765   5.803   6.355  13.923  0.0750 -0.0865  0.2334
 2117TIP3    H127766   5.732   6.307  13.881 -0.3801 -1.3822  2.3870
 2117TIP3    H227767   5.818   6.430  13.867 -2.1408 -0.4723 -0.9338
 2118TIP3   OH227768   2.399   2.781   3.004  0.2696 -0.1131 -0.4055
 2118TIP3    H127769   2.466   2.721   2.972 -0.8679 -0.2170 -2.6633
 2118TIP3    H227770   2.430   2.867   2.978 -0.4219 -0.1554 -1.3887
 2119TIP3   OH227771   4.043   5.182  12.358 -0.0891  0.1026  0.0049
 2119TIP3    H127772   4.028   5.098  12.400  1.6048 -0.6522 -0.8722
 2119TIP3    H227773   4.088   5.161  12.276 -1.1654  1.7350 -1.0337
 2120TIP3   OH227774   2.589   2.019  15.683  0.6457  0.0831 -0.4936
 2120TIP3    H127775   2.551   1.939  15.647  0.9337  0.3216 -1.3375
 2120TIP3    H227776   2.516   2.081  15.685  0.3283 -0.3239  0.5403
 2121TIP3   OH227777   3.936   6.307   4.901  0.1259  0.2586 -0.3278
 2121TIP3    H127778   4.004   6.358   4.943  1.1251 -1.9214  0.7888
 2121TIP3    H227779   3.858   6.323   4.953  0.3225  0.9756 -0.2546
 2122TIP3   OH227780   3.664   2.709   6.231  0.4545 -0.1176  0.4700
 2122TIP3    H127781   3.743   2.685   6.182  1.3283  2.1843  0.6979
 2122TIP3    H227782   3.684   2.686   6.322  1.3052  1.4855  0.6967
 2123TIP3   OH227783   0.937   1.164   3.701 -0.2813 -0.4715  0.2953
 2123TIP3    H127784   0.946   1.259   3.710  0.5116 -0.6809  1.9939
 2123TIP3    H227785   0.859   1.152   3.647 -0.1728  1.1491 -0.2522
 2124TIP3   OH227786   5.462   4.010  10.633 -0.1999 -0.4131 -0.4336
 2124TIP3    H127787   5.542   4.019  10.581  1.1309 -0.5178  1.5730
 2124TIP3    H227788   5.449   4.096  10.673 -0.9872 -0.4578 -0.5749
 2125TIP3   OH227789   4.159   2.342  14.444  0.1585  0.5170 -0.6498
 2125TIP3    H127790   4.103   2.413  14.415 -1.7884 -1.2353 -1.3557
 2125TIP3    H227791   4.100   2.268  14.455  1.8181 -0.4920  1.9579
 2126TIP3   OH227792   5.295   0.817  15.795  0.3274 -0.1647  0.1249
 2126TIP3    H127793   5.316   0.895  15.744  1.9948  0.7272  2.1013
 2126TIP3    H227794   5.288   0.747  15.730  1.5691  1.0903 -1.4035
 2127TIP3   OH227795   3.530   2.258   2.860 -0.5963 -0.2347 -0.5891
 2127TIP3    H127796   3.532   2.340   2.909 -0.2436 -0.9001  0.5296
 2127TIP3    H227797   3.470   2.202   2.909  0.3478 -1.1684 -0.4757
 2128TIP3   OH227798   6.309   5.626   1.417 -0.5939  0.0275 -0.2135
 2128TIP3    H127799   6.298   5.693   1.484 -0.6062  0.8618 -1.0360
 2128TIP3    H227800   6.360   5.558   1.460 -1.0137  0.3256  0.7888
 2129TIP3   OH227801   2.181   2.059   1.978  0.5123  0.3197  0.3860
 2129TIP3    H127802   2.274   2.038   1.985  0.0474 -1.3155  2.0529
 2129TIP3    H227803   2.164   2.117   2.052 -0.3299 -1.4821  1.6343
 2130TIP3   OH227804   0.253   2.467  12.677 -0.0581  0.2259  0.6228
 2130TIP3    H127805   0.320   2.403  12.652 -0.4881 -0.0925  0.2674
 2130TIP3    H227806   0.189   2.416  12.727  0.0787  0.5740  1.1472
 2131TIP3   OH227807   2.059   6.645   2.199 -0.7539 -0.0420  0.2697
 2131TIP3    H127808   2.029   6.732   2.171 -0.7555  0.9252  3.1209
 2131TIP3    H227809   1.986   6.587   2.179 -1.3798  0.8955 -0.2070
 2132TIP3   OH227810   3.268   4.879  16.664 -0.6020 -0.2615  0.0394
 2132TIP3    H127811   3.207   4.809  16.641 -1.1317  0.1567  0.1714
 2132TIP3    H227812   3.351   4.851  16.626 -0.0912 -2.4217  2.6013
 2133TIP3   OH227813   1.494   0.809  12.752 -0.0605 -0.0607 -0.3733
 2133TIP3    H127814   1.501   0.748  12.825 -1.7054  0.4019  0.1873
 2133TIP3    H227815   1.431   0.768  12.692 -0.1478  0.4520 -0.6342
 2134TIP3   OH227816   3.823   3.191  15.931  0.0685 -0.0755  0.8801
 2134TIP3    H127817   3.854   3.194  15.840  0.8052 -1.5445  1.0737
 2134TIP3    H227818   3.785   3.278  15.946 -0.5933 -0.0091 -1.0194
 2135TIP3   OH227819   1.042   2.382   1.061 -0.1932 -0.0209  0.4269
 2135TIP3    H127820   0.978   2.426   1.119 -0.1451  1.5819 -0.6917
 2135TIP3    H227821   0.991   2.315   1.016 -0.9189  0.6734  0.1871
 2136TIP3   OH227822   5.785   4.095  11.800 -0.0788 -0.4515  0.1563
 2136TIP3    H127823   5.797   4.052  11.885  0.7315  0.6880  0.6229
 2136TIP3    H227824   5.691   4.110  11.794 -0.1145 -0.3576  0.9309
 2137TIP3   OH227825   4.014   1.058   4.867 -0.6325 -0.2471 -0.4779
 2137TIP3    H127826   4.005   1.083   4.959 -1.3207 -0.0480 -0.5914
 2137TIP3    H227827   4.106   1.071   4.847 -0.2438 -1.4677  0.5185
 2138TIP3   OH227828   3.062   2.057   3.699 -0.3061  0.1257  0.5280
 2138TIP3    H127829   3.012   1.998   3.756 -0.2706  0.3359  0.7760
 2138TIP3    H227830   3.055   2.017   3.612 -4.2101  2.2061 -0.2182
 2139TIP3   OH227831   4.599   5.569   5.300  0.2938  0.0908 -0.4690
 2139TIP3    H127832   4.524   5.544   5.247  1.0915  1.0765 -2.1004
 2139TIP3    H227833   4.572   5.552   5.390 -2.7421  2.5995 -0.8381
 2140TIP3   OH227834   2.038   1.862   3.258  0.1750 -0.3875  0.5012
 2140TIP3    H127835   2.117   1.890   3.304  1.1570  0.1627 -1.4659
 2140TIP3    H227836   2.056   1.880   3.166 -2.5984  0.5796  0.0967
 2141TIP3   OH227837   4.497   4.965  12.616 -0.1059 -0.1483 -0.3847
 2141TIP3    H127838   4.499   4.873  12.642 -2.5127 -0.3077 -0.6298
 2141TIP3    H227839   4.406   4.992  12.631  0.5565  2.1743 -0.3788
 2142TIP3   OH227840   3.307   1.064   3.600 -0.2616 -0.1337  0.4027
 2142TIP3    H127841   3.229   1.117   3.583  0.0940  0.8368  1.6587
 2142TIP3    H227842   3.320   1.013   3.520 -3.0124 -1.3901  0.6891
 2143TIP3   OH227843   1.311   2.778  14.659 -0.3260 -0.9373 -0.0285
 2143TIP3    H127844   1.295   2.869  14.636 -1.8542 -1.1438  0.1694
 2143TIP3    H227845   1.387   2.780  14.716 -0.2123  0.1844 -0.2186
 2144TIP3   OH227846   0.305   3.934  14.472 -0.6646  0.3744 -0.4907
 2144TIP3    H127847   0.360   3.960  14.398  0.8827  1.3081  0.9582
 2144TIP3    H227848   0.281   3.843  14.452  1.0057  0.0975 -1.4012
 2145TIP3   OH227849   2.019   3.308  12.140  1.1125 -0.0670  0.3535
 2145TIP3    H127850   1.963   3.330  12.066  1.3073 -0.4126  0.1029
 2145TIP3    H227851   1.996   3.372  12.207  0.3466 -0.2677  0.2856
 2146TIP3   OH227852   4.125   1.949   4.212 -0.7372 -0.5647 -0.2026
 2146TIP3    H127853   4.118   2.023   4.272  0.5641 -0.9615  0.4603
 2146TIP3    H227854   4.037   1.911   4.210 -1.1292  0.3074  0.3529
 2147TIP3   OH227855   2.853   3.231  15.124  0.0302 -0.2416  0.0571
 2147TIP3    H127856   2.772   3.279  15.136  1.3277  1.2179  3.4727
 2147TIP3    H227857   2.829   3.139  15.140 -0.8421  0.2423  1.5859
 2148TIP3   OH227858   2.142   1.499  16.016 -0.2479  0.1407 -0.0041
 2148TIP3    H127859   2.126   1.583  15.974 -0.7239  0.1203  0.1301
 2148TIP3    H227860   2.185   1.521  16.099  0.0491  0.2222 -0.1793
 2149TIP3   OH227861   1.363   2.773   4.125 -0.2977 -0.1224 -0.4184
 2149TIP3    H127862   1.381   2.866   4.112  1.3105 -0.5048 -0.9571
 2149TIP3    H227863   1.321   2.746   4.043 -0.4091  0.0224 -0.4111
 2150TIP3   OH227864   6.198   6.451   1.704  0.2092  0.3286 -0.4323
 2150TIP3    H127865   6.183   6.387   1.774 -0.2747  0.1459 -0.7014
 2150TIP3    H227866   6.264   6.409   1.648 -0.5160 -0.1873 -0.9173
 2151TIP3   OH227867   4.594   4.011   3.739  0.3189 -0.2535  0.5385
 2151TIP3    H127868   4.623   4.023   3.829 -2.0742 -0.4129  1.3454
 2151TIP3    H227869   4.603   3.916   3.724  2.2436 -0.0248  0.0347
 2152TIP3   OH227870   1.812   2.406   1.743 -0.2713  0.0629  0.1627
 2152TIP3    H127871   1.897   2.361   1.745  0.2297  0.9965  0.3986
 2152TIP3    H227872   1.804   2.436   1.652 -0.8316 -0.9087 -0.1177
 2153TIP3   OH227873   4.857   2.686  13.494  0.3714 -0.1976  0.1125
 2153TIP3    H127874   4.917   2.677  13.568  2.6099  2.5453 -1.2760
 2153TIP3    H227875   4.815   2.771  13.507 -0.4319 -0.4206 -0.9191
 2154TIP3   OH227876   5.365   2.521   4.745 -0.0288  0.0739  0.0127
 2154TIP3    H127877   5.454   2.501   4.775  0.2601 -0.7704 -1.3844
 2154TIP3    H227878   5.373   2.532   4.651 -1.8019 -2.4965 -0.5024
 2155TIP3   OH227879   4.122   1.608   2.085  0.6554 -0.7665 -0.0694
 2155TIP3    H127880   4.132   1.596   1.990  2.1582 -1.7244  0.1832
 2155TIP3    H227881   4.077   1.692   2.094 -0.5066 -1.1964 -1.6605
 2156TIP3   OH227882   6.258   0.700  15.859  0.9447 -0.3049  0.1428
 2156TIP3    H127883   6.229   0.617  15.821 -0.2016 -0.7326  1.8543
 2156TIP3    H227884   6.179   0.752  15.867  1.2491  0.0131  1.2946
 2157TIP3   OH227885   0.118   4.924  13.034  0.6653 -0.5576  0.0980
 2157TIP3    H127886   0.114   4.860  13.105  1.7239  0.7150  1.3199
 2157TIP3    H227887   0.197   4.974  13.051  0.5974  0.1708 -1.6439
 2158TIP3   OH227888   5.174   0.593   1.740  0.0830 -0.5312  0.2695
 2158TIP3    H127889   5.204   0.504   1.757  0.7789 -0.1088  1.2471
 2158TIP3    H227890   5.252   0.647   1.746 -0.2891  0.1229 -0.5893
 2159TIP3   OH227891   4.712   1.344  16.441 -0.7566 -0.0457 -0.1913
 2159TIP3    H127892   4.747   1.306  16.361 -1.7950 -1.9267  0.2064
 2159TIP3    H227893   4.739   1.436  16.438  1.0186 -0.5809 -1.6427
 2160TIP3   OH227894   5.871   3.269   1.656 -0.3887 -0.4558  0.3932
 2160TIP3    H127895   5.878   3.349   1.708 -0.1192  0.5235 -1.1276
 2160TIP3    H227896   5.939   3.212   1.691 -0.7691 -0.1351  1.6743
 2161TIP3   OH227897   5.454   1.677  13.154 -0.4480  0.1234 -0.1513
 2161TIP3    H127898   5.386   1.610  13.150  0.1076 -0.5124  0.8862
 2161TIP3    H227899   5.406   1.759  13.166 -1.1002 -0.1465 -0.8745
 2162TIP3   OH227900   5.822   5.008  15.578 -0.0066  0.4927 -0.4221
 2162TIP3    H127901   5.741   4.969  15.545  0.7352  0.3401 -2.1264
 2162TIP3    H227902   5.848   5.070  15.511  0.6568  1.4283  0.6806
 2163TIP3   OH227903   3.013   2.012   2.550  0.2930  0.6705 -0.3797
 2163TIP3    H127904   3.022   2.088   2.493  1.5150  2.6398  2.3677
 2163TIP3    H227905   2.928   1.974   2.526 -0.3769  2.9387 -1.7181
 2164TIP3   OH227906   6.231   6.701  15.732 -0.4153 -0.1660  0.2762
 2164TIP3    H127907   6.141   6.730  15.721 -0.5715 -0.5396  0.5779
 2164TIP3    H227908   6.246   6.639  15.661 -0.5283 -0.4207  0.4744
 2165TIP3   OH227909   1.396   2.139   2.105  0.0365  0.1629  0.4753
 2165TIP3    H127910   1.378   2.139   2.199 -1.3351  0.0813  0.2214
 2165TIP3    H227911   1.348   2.215   2.072  1.4242  0.8500  0.0006
 2166TIP3   OH227912   1.415   2.091  13.416  0.3486 -0.1454  0.5827
 2166TIP3    H127913   1.333   2.124  13.452  0.3276  1.4734 -0.8949
 2166TIP3    H227914   1.418   1.999  13.444 -1.6251 -0.0433  1.2285
 2167TIP3   OH227915   3.455   3.426   5.528 -0.1724  0.5170  0.0135
 2167TIP3    H127916   3.466   3.337   5.561 -1.1906 -0.0420 -1.1344
 2167TIP3    H227917   3.361   3.444   5.536 -0.0671  1.2534 -0.3317
 2168TIP3   OH227918   4.641   4.906   4.623 -0.3122  0.3764 -0.0178
 2168TIP3    H127919   4.573   4.865   4.569 -0.4976 -0.3742  0.7739
 2168TIP3    H227920   4.715   4.919   4.564 -0.9251  0.6401 -0.7364
 2169TIP3   OH227921   3.400   0.244   3.707  0.4312 -0.6460  0.7527
 2169TIP3    H127922   3.418   0.209   3.794  1.5578  1.0645  1.2518
 2169TIP3    H227923   3.477   0.219   3.655  0.1855 -0.8795  0.5025
 2170TIP3   OH227924   0.824   2.116   5.449 -0.4127  0.1601  0.4227
 2170TIP3    H127925   0.835   2.126   5.355  0.2785 -0.4596  0.4342
 2170TIP3    H227926   0.735   2.145   5.466 -0.5323  0.2930 -0.4220
 2171TIP3   OH227927   5.885   0.286  13.968  0.3297 -0.1988  0.0239
 2171TIP3    H127928   5.910   0.330  13.886 -0.1382  0.5734  0.2976
 2171TIP3    H227929   5.870   0.357  14.030  0.4785 -0.7800  0.7297
 2172TIP3   OH227930   2.345   1.130   3.095 -0.5263  0.4538 -0.9063
 2172TIP3    H127931   2.416   1.068   3.111  1.8999  3.2894 -0.1882
 2172TIP3    H227932   2.301   1.097   3.016  0.4426 -2.3399 -0.3180
 2173TIP3   OH227933   4.387   3.898   4.995  0.1401  0.5964  0.1239
 2173TIP3    H127934   4.449   3.955   4.948 -0.1100  0.8564  0.1077
 2173TIP3    H227935   4.309   3.953   5.006  0.1044  0.4419  0.6122
 2174TIP3   OH227936   6.336   0.865  14.097  0.6111 -0.3915  0.0475
 2174TIP3    H127937   6.422   0.844  14.058  1.9602  2.0662  1.5665
 2174TIP3    H227938   6.338   0.823  14.183 -0.3686 -1.6630 -0.5449
 2175TIP3   OH227939   4.454   3.348   6.015 -0.5272 -0.1950  0.4744
 2175TIP3    H127940   4.545   3.325   5.997 -0.8302  0.1924 -1.7164
 2175TIP3    H227941   4.403   3.286   5.964 -1.4753  0.2798  0.8326
 2176TIP3   OH227942   0.046   6.665   5.348 -0.1542  0.0922 -0.0575
 2176TIP3    H127943   0.132   6.689   5.314 -0.3872 -0.4675 -1.0795
 2176TIP3    H227944   0.060   6.580   5.391 -0.5333 -0.9049 -1.8297
 2177TIP3   OH227945   3.270   1.892  13.061 -0.7198 -0.1538  0.1816
 2177TIP3    H127946   3.186   1.919  13.098 -1.1941 -0.1584 -0.8684
 2177TIP3    H227947   3.314   1.974  13.039  0.2034 -0.1096  2.1296
 2178TIP3   OH227948   3.188   5.618  15.774 -0.5864 -0.0137 -0.2223
 2178TIP3    H127949   3.283   5.623  15.777 -0.7220  1.9562  1.6146
 2178TIP3    H227950   3.167   5.529  15.802  0.6187  0.3005  1.7043
 2179TIP3   OH227951   6.431   4.145   6.178 -0.1212 -0.1087 -0.5982
 2179TIP3    H127952   6.358   4.113   6.124 -0.6190 -2.1599  1.2240
 2179TIP3    H227953   6.506   4.143   6.118 -1.0497 -0.4035 -1.7879
 2180TIP3   OH227954   5.135   0.159  11.707  0.1235  0.5748  0.0646
 2180TIP3    H127955   5.044   0.150  11.734  0.1725  0.0814  0.0726
 2180TIP3    H227956   5.186   0.129  11.783  0.2517 -1.4528 -0.7991
 2181TIP3   OH227957   2.562   0.100   4.110 -0.0286 -0.0667 -0.0636
 2181TIP3    H127958   2.567   0.065   4.021 -0.4647  0.0532 -0.1388
 2181TIP3    H227959   2.493   0.167   4.105  1.4742  1.4994 -0.1714
 2182TIP3   OH227960   5.517   4.678   6.064 -0.1947  0.0912 -0.4708
 2182TIP3    H127961   5.548   4.747   6.123  0.0736 -1.1536  0.8741
 2182TIP3    H227962   5.578   4.605   6.078 -1.7784 -1.2032 -0.2394
 2183TIP3   OH227963   3.420   0.964   0.869  0.7510  0.5398  0.6328
 2183TIP3    H127964   3.349   1.017   0.831  1.7860  1.9997  0.6770
 2183TIP3    H227965   3.381   0.878   0.884 -0.6217  0.9219 -0.6243
 2184TIP3   OH227966   0.393   2.586  16.390  0.1556 -0.5245  0.2569
 2184TIP3    H127967   0.306   2.619  16.367  0.9137 -0.3527 -2.4506
 2184TIP3    H227968   0.448   2.664  16.396  0.4835 -0.7689  0.4344
 2185TIP3   OH227969   3.893   4.058  15.853  0.7348  0.2588  0.5135
 2185TIP3    H127970   3.879   4.126  15.787 -1.2567  0.1956  0.8169
 2185TIP3    H227971   3.916   4.106  15.932  1.5090  0.4344  0.1863
 2186TIP3   OH227972   1.645   1.695  11.742  0.7158 -0.6476  0.1086
 2186TIP3    H127973   1.735   1.663  11.742  0.4922 -1.2942  0.4903
 2186TIP3    H227974   1.653   1.790  11.727  1.4539 -0.7054  0.1136
 2187TIP3   OH227975   5.828   0.638   4.382  0.5548  0.5553  0.1990
 2187TIP3    H127976   5.897   0.623   4.447  0.8664  0.4803 -0.1460
 2187TIP3    H227977   5.870   0.692   4.315  0.6668 -0.5754 -0.6630
 2188TIP3   OH227978   4.055   2.178  13.143  0.0855  0.0565 -0.4537
 2188TIP3    H127979   4.044   2.270  13.118  0.5062  0.3005  0.2430
 2188TIP3    H227980   3.992   2.131  13.090  0.4785  0.6524 -1.4579
 2189TIP3   OH227981   1.736   4.851   5.332  0.0384  0.3138 -0.6352
 2189TIP3    H127982   1.827   4.829   5.313  0.0889  0.4254 -0.5249
 2189TIP3    H227983   1.722   4.821   5.421 -0.1265  0.0103 -0.7615
 2190TIP3   OH227984   1.570   6.695   1.342  0.5608  0.1827  0.2106
 2190TIP3    H127985   1.482   6.665   1.318  0.6222 -0.4960  0.8450
 2190TIP3    H227986   1.592   6.760   1.274 -1.4320  2.2227  1.4509
 2191TIP3   OH227987   4.427   4.089  16.221 -0.3995  0.0075 -0.3020
 2191TIP3    H127988   4.339   4.070  16.189 -0.1922 -0.8869 -0.3705
 2191TIP3    H227989   4.448   4.014  16.277  1.3118 -1.0814 -2.3194
 2192TIP3   OH227990   3.267   5.594   3.072  0.5829 -0.1828 -0.2819
 2192TIP3    H127991   3.228   5.594   3.160  1.8215  0.5738  0.2713
 2192TIP3    H227992   3.346   5.646   3.081  0.2003  0.7359 -2.0960
 2193TIP3   OH227993   3.673   1.044   3.039  0.1747  0.1411 -0.2490
 2193TIP3    H127994   3.757   1.082   3.067 -0.4334  1.3538 -0.0355
 2193TIP3    H227995   3.651   1.092   2.960 -1.3916  1.3514  0.9055
 2194TIP3   OH227996   5.315   3.810   3.427 -0.1247 -0.2728  0.0270
 2194TIP3    H127997   5.379   3.781   3.492  0.0423 -0.0372 -0.0329
 2194TIP3    H227998   5.357   3.883   3.381  0.3088 -1.3483 -1.3048
 2195TIP3   OH227999   3.849   4.730   1.660 -0.1476  0.8939 -0.6540
 2195TIP3    H128000   3.864   4.683   1.578  1.6551 -0.0178  0.1546
 2195TIP3    H228001   3.894   4.814   1.648  1.4404  0.1499 -0.0647
 2196TIP3   OH228002   5.529   6.159   3.752 -0.4251 -0.2974  0.3255
 2196TIP3    H128003   5.452   6.216   3.754 -0.5633 -0.4371 -0.5071
 2196TIP3    H228004   5.603   6.218   3.764 -0.7085 -0.2681  1.9732
 2197TIP3   OH228005   6.290   2.548   5.192  0.0413  0.3234  0.1214
 2197TIP3    H128006   6.204   2.537   5.152  1.0562 -0.2641 -1.9788
 2197TIP3    H228007   6.337   2.468   5.170  2.2348  2.0552 -1.6952
 2198TIP3   OH228008   6.786   3.126  15.108 -0.3089 -0.1436 -1.3453
 2198TIP3    H128009   6.813   3.094  15.022  0.1687 -0.8473 -0.9308
 2198TIP3    H228010   6.795   3.221  15.101 -1.0858 -0.1309 -2.3520
 2199TIP3   OH228011   5.489   1.139  12.539  0.6253 -0.3536 -0.1801
 2199TIP3    H128012   5.516   1.152  12.631 -0.4278 -0.0241  0.0853
 2199TIP3    H228013   5.449   1.052  12.538 -1.2840  0.5037  0.1288
 2200TIP3   OH228014   2.935   6.003  15.392  0.1568 -0.2326 -0.3705
 2200TIP3    H128015   2.951   5.909  15.402 -1.6411 -0.3975  1.1153
 2200TIP3    H228016   2.901   6.013  15.304  0.4254 -0.9540 -0.5577
 2201TIP3   OH228017   0.302   4.319  15.001 -0.1303 -0.0587  0.5055
 2201TIP3    H128018   0.274   4.332  15.092 -1.9831 -0.3586 -0.0003
 2201TIP3    H228019   0.379   4.263  15.007 -0.1300  0.0793  1.9050
 2202TIP3   OH228020   0.194   4.301   0.505  0.1930  0.1836 -0.7703
 2202TIP3    H128021   0.125   4.248   0.544 -0.9032  2.6839  0.8351
 2202TIP3    H228022   0.274   4.250   0.516 -0.3334  0.1345  3.4552
 2203TIP3   OH228023   3.408   4.236  15.947  0.3357 -0.4766  0.8819
 2203TIP3    H128024   3.433   4.180  15.873  1.6655 -2.8127  3.0389
 2203TIP3    H228025   3.481   4.298  15.955 -0.1041  0.1903 -0.1288
 2204TIP3   OH228026   0.949   2.294   4.902 -0.1427 -0.7063  0.3335
 2204TIP3    H128027   1.040   2.313   4.928 -0.6057  0.2435  1.3087
 2204TIP3    H228028   0.915   2.378   4.871 -1.0215 -0.8051  1.0123
 2205TIP3   OH228029   1.552   1.945  16.351 -0.0661 -0.5018 -0.9228
 2205TIP3    H128030   1.551   1.862  16.399  1.2874  0.5335  0.9816
 2205TIP3    H228031   1.468   1.986  16.372  0.1054 -0.5043 -0.2044
 2206TIP3   OH228032   3.513   5.162  11.558  0.9560 -0.5072 -0.6709
 2206TIP3    H128033   3.551   5.150  11.470 -1.9861  1.0181 -2.2092
 2206TIP3    H228034   3.419   5.165  11.543  0.4365  0.3932  2.5107
 2207TIP3   OH228035   2.826   1.954  17.158 -0.0650  0.3215 -0.1088
 2207TIP3    H128036   2.730   1.953  17.158 -0.1192  2.5874  0.5787
 2207TIP3    H228037   2.849   1.994  17.074  0.2202  1.8891  0.7112
 2208TIP3   OH228038   1.682   1.502   4.078 -0.0970  0.2618  0.4164
 2208TIP3    H128039   1.707   1.463   3.994 -1.3129 -0.1359  0.2273
 2208TIP3    H228040   1.760   1.493   4.133  0.0434 -1.3341 -0.0246
 2209TIP3   OH228041   0.389   4.270   1.785  0.3712  0.2001 -0.0484
 2209TIP3    H128042   0.300   4.256   1.817 -0.3500 -0.5744 -2.2665
 2209TIP3    H228043   0.434   4.314   1.857 -2.0097  1.3050  0.8226
 2210TIP3   OH228044   6.379   4.285  11.111 -0.1579 -0.3534  0.0888
 2210TIP3    H128045   6.405   4.303  11.202 -0.7809 -1.1277  0.4151
 2210TIP3    H228046   6.299   4.336  11.099 -0.0199 -0.1715 -0.0651
 2211TIP3   OH228047   6.043   5.936   1.513 -0.1900  0.1577 -0.0706
 2211TIP3    H128048   6.106   5.984   1.460  0.3477 -0.7857 -0.2958
 2211TIP3    H228049   6.070   5.844   1.506 -1.3268 -0.2042  0.1844
 2212TIP3   OH228050   0.760   0.382  14.379  0.5301  0.2655 -0.4129
 2212TIP3    H128051   0.759   0.409  14.287 -1.4249 -1.3244 -0.8857
 2212TIP3    H228052   0.756   0.287  14.377 -0.0693  0.2297  1.3449
 2213TIP3   OH228053   2.866   4.881   2.534  0.8095  0.1478 -0.0537
 2213TIP3    H128054   2.896   4.965   2.501  0.6131 -0.5790 -2.1385
 2213TIP3    H228055   2.908   4.816   2.477  2.4149 -1.2865  2.6012
 2214TIP3   OH228056   6.740   1.451  15.927  0.2790 -0.2504 -0.2929
 2214TIP3    H128057   6.719   1.442  15.834  1.3266 -0.8696 -0.4794
 2214TIP3    H228058   6.687   1.526  15.956  0.3275  0.2715 -1.4969
 2215TIP3   OH228059   1.640   5.277   4.749 -0.0066 -0.8521 -0.6172
 2215TIP3    H128060   1.714   5.258   4.807  0.9211  0.8119 -1.2033
 2215TIP3    H228061   1.654   5.220   4.673  0.5372 -0.7364 -0.6069
 2216TIP3   OH228062   4.796   2.271  12.473 -0.2212 -0.5033  0.1143
 2216TIP3    H128063   4.740   2.304  12.543 -0.5210  0.6174 -0.6301
 2216TIP3    H228064   4.737   2.257  12.399  0.4224  0.4980 -0.6133
 2217TIP3   OH228065   1.821   4.272   5.771 -0.0901  0.1366  0.3937
 2217TIP3    H128066   1.807   4.285   5.865 -0.8681  1.3246  0.1308
 2217TIP3    H228067   1.905   4.315   5.753 -0.8181  1.5467  0.2345
 2218TIP3   OH228068   4.151   0.269  16.480 -0.8285  0.4359 -0.3236
 2218TIP3    H128069   4.073   0.258  16.535  0.2654  0.2895  1.2134
 2218TIP3    H228070   4.157   0.188  16.430 -0.7709 -0.2005  0.7146
 2219TIP3   OH228071   4.733   5.388  15.188 -0.0410 -0.5424  0.4116
 2219TIP3    H128072   4.646   5.425  15.204  0.1671 -0.0176  0.3310
 2219TIP3    H228073   4.760   5.354  15.273 -1.1615 -2.4940 -0.0042
 2220TIP3   OH228074   0.999   2.826   5.506  0.2565  0.2473  0.0536
 2220TIP3    H128075   1.035   2.738   5.520 -0.9569 -0.1429  0.9151
 2220TIP3    H228076   1.005   2.840   5.412 -1.1267 -1.4798 -0.3197
 2221TIP3   OH228077   3.734   0.917  12.579 -0.0734  0.0670 -0.5650
 2221TIP3    H128078   3.670   0.908  12.509 -0.1125 -0.6875 -0.4342
 2221TIP3    H228079   3.772   1.004  12.566  0.1009 -0.1702 -1.6741
 2222TIP3   OH228080   4.280   5.226  14.191 -0.5078 -0.0935 -0.4631
 2222TIP3    H128081   4.206   5.175  14.160 -0.2141  0.4922 -2.2181
 2222TIP3    H228082   4.354   5.197  14.137  0.2706  0.1838  0.4391
 2223TIP3   OH228083   2.307   3.788   0.955  0.1598  0.9413 -0.5641
 2223TIP3    H128084   2.318   3.795   1.050  2.3148  0.6652 -0.7763
 2223TIP3    H228085   2.368   3.852   0.919 -0.5604  0.9571 -1.7776
 2224TIP3   OH228086   5.046   4.070  11.798  0.0433 -0.0869 -0.0170
 2224TIP3    H128087   5.001   4.105  11.721  1.2527  2.0220  0.1689
 2224TIP3    H228088   4.992   3.997  11.827 -1.5302  0.3857 -1.6534
 2225TIP3   OH228089   5.173   2.726   0.212  0.1140  0.3764 -0.3554
 2225TIP3    H128090   5.224   2.701   0.289  1.9998  2.9983 -0.6860
 2225TIP3    H228091   5.220   2.690   0.138 -1.2424 -1.4175 -0.3770
 2226TIP3   OH228092   4.610   4.307  13.051  0.2937 -0.1427  0.0065
 2226TIP3    H128093   4.545   4.274  12.989  0.6581  0.6164 -0.7853
 2226TIP3    H228094   4.564   4.310  13.135  0.4606 -3.3799  0.2757
 2227TIP3   OH228095   6.708   6.564   5.853  0.4819 -0.5063 -0.1182
 2227TIP3    H128096   6.641   6.536   5.791  0.8361 -0.9986 -0.2870
 2227TIP3    H228097   6.661   6.581   5.935  0.1776 -1.0105 -0.1888
 2228TIP3   OH228098   4.552   2.359   5.519  0.5382 -0.0726  0.4418
 2228TIP3    H128099   4.619   2.427   5.530 -0.7932  1.2983  0.1039
 2228TIP3    H228100   4.561   2.304   5.597  2.2404 -0.0544  0.2771
 2229TIP3   OH228101   4.671   6.310  15.127 -0.0744 -0.0863  0.6391
 2229TIP3    H128102   4.617   6.308  15.206 -0.0969 -1.5889  0.6126
 2229TIP3    H228103   4.635   6.381  15.075 -0.0396  0.9443  1.9918
 2230TIP3   OH228104   5.962   2.105   5.504  0.1452 -0.1867  0.0874
 2230TIP3    H128105   5.964   2.027   5.559 -0.9283  0.1243  0.5751
 2230TIP3    H228106   6.052   2.114   5.473  0.0617 -2.2033 -0.8128
 2231TIP3   OH228107   6.113   3.626  12.428 -0.3631 -0.0004 -0.1626
 2231TIP3    H128108   6.047   3.597  12.366 -1.9440  0.3338  1.3420
 2231TIP3    H228109   6.166   3.689  12.378 -1.0642 -0.3994 -1.4300
 2232TIP3   OH228110   6.443   1.161  11.217 -0.2477  0.3269  0.6156
 2232TIP3    H128111   6.353   1.138  11.238 -0.4004  0.8373  0.5344
 2232TIP3    H228112   6.496   1.098  11.264 -0.6915 -0.8764 -0.4824
 2233TIP3   OH228113   5.954   5.243   0.481  0.1358  0.0895 -0.1790
 2233TIP3    H128114   6.045   5.265   0.503 -0.2577  1.9594 -0.2954
 2233TIP3    H228115   5.902   5.287   0.548 -0.6911 -1.1604  0.0182
 2234TIP3   OH228116   0.957   1.906   6.336  0.0155  0.0632  0.5747
 2234TIP3    H128117   0.979   1.813   6.329 -0.0398  0.1558 -1.0269
 2234TIP3    H228118   0.862   1.908   6.323  0.1923  0.4665 -0.6755
 2235TIP3   OH228119   5.724   5.841   5.815  0.1727 -0.1637  0.6470
 2235TIP3    H128120   5.742   5.747   5.820  2.4296  0.1942 -0.2319
 2235TIP3    H228121   5.804   5.879   5.779 -1.4743  1.8481 -1.0165
 2236TIP3   OH228122   0.299   6.332   1.461 -0.4149 -0.0067  0.6860
 2236TIP3    H128123   0.336   6.361   1.377 -0.7151  0.5469  0.7399
 2236TIP3    H228124   0.242   6.259   1.437  0.7371 -0.8939  0.6111
 2237TIP3   OH228125   0.011   4.346   2.805  0.2760 -0.0540 -0.4914
 2237TIP3    H128126  -0.012   4.379   2.892 -0.2038  0.4218 -0.7923
 2237TIP3    H228127   0.008   4.424   2.748  1.4106 -0.2077 -0.7816
 2238TIP3   OH228128   2.318   2.197  17.032 -0.0853 -0.0184  0.2142
 2238TIP3    H128129   2.381   2.207  16.961  0.2281 -1.4996  0.2834
 2238TIP3    H228130   2.288   2.287  17.050  0.1851  0.4103 -1.4510
 2239TIP3   OH228131   1.773   3.937   3.052 -0.8210 -0.4018  0.7686
 2239TIP3    H128132   1.822   3.870   3.099 -0.5914 -0.3581  0.5941
 2239TIP3    H228133   1.789   3.918   2.960 -0.9660 -0.2634  0.7149
 2240TIP3   OH228134   3.924   6.722  15.600 -0.4518 -0.0019 -0.0645
 2240TIP3    H128135   4.005   6.671  15.603  0.0949  0.9331  3.4868
 2240TIP3    H228136   3.951   6.813  15.612 -1.9223  0.4675 -0.1625
 2241TIP3   OH228137   0.116   3.377  11.752  0.0080  0.1694 -0.0614
 2241TIP3    H128138   0.142   3.342  11.667  0.1361  1.4322 -0.5482
 2241TIP3    H228139   0.167   3.457  11.761 -0.9826  0.7247  0.6358
 2242TIP3   OH228140   4.788   6.619   3.875 -0.0509 -0.4390  0.8435
 2242TIP3    H128141   4.746   6.633   3.790  1.5850  0.8027  0.2090
 2242TIP3    H228142   4.734   6.552   3.918 -0.8784 -1.1165 -1.1892
 2243TIP3   OH228143   1.984   3.644   0.366  0.0723  0.3919  0.1532
 2243TIP3    H128144   1.988   3.717   0.304  1.5918  2.1894  2.3088
 2243TIP3    H228145   1.903   3.598   0.344 -1.4842  3.3582 -0.5550
 2244TIP3   OH228146   1.544   0.177  11.404 -0.6526 -0.0241 -0.4681
 2244TIP3    H128147   1.479   0.182  11.334  0.1862  0.6906 -1.2021
 2244TIP3    H228148   1.560   0.268  11.429  1.4359 -0.0422 -1.5840
 2245TIP3   OH228149   5.325   3.069  13.589 -0.2300  0.4141  0.2478
 2245TIP3    H128150   5.375   3.146  13.564  0.3321 -0.0420 -0.0442
 2245TIP3    H228151   5.294   3.088  13.678  1.7042  0.0834  1.0150
 2246TIP3   OH228152   4.080   6.019   4.930  0.5808  0.4428 -0.8874
 2246TIP3    H128153   4.150   5.969   4.889  1.2456  2.0733 -1.7891
 2246TIP3    H228154   4.124   6.090   4.976 -0.4069  0.8802 -0.5888
 2247TIP3   OH228155   4.642   3.648  15.939  0.0683 -0.4117  0.2998
 2247TIP3    H128156   4.659   3.697  16.019  0.3632 -0.1642  0.0863
 2247TIP3    H228157   4.716   3.587  15.932 -0.1014 -0.6286  0.3598
 2248TIP3   OH228158   1.175   4.145   5.310  0.6821  0.4784  0.3321
 2248TIP3    H128159   1.208   4.185   5.391 -0.3088  2.4835 -0.2119
 2248TIP3    H228160   1.086   4.117   5.332  0.4169  1.0140 -0.0336
 2249TIP3   OH228161   5.562   4.878  12.777 -0.5482  0.8340 -0.8008
 2249TIP3    H128162   5.562   4.897  12.870  0.2666 -0.4733 -0.5254
 2249TIP3    H228163   5.578   4.963  12.735 -0.4548  1.3404  0.2538
 2250TIP3   OH228164   4.877   0.511  12.234  0.1715 -0.2269 -0.1117
 2250TIP3    H128165   4.972   0.505  12.223  0.4856  0.0078  2.2028
 2250TIP3    H228166   4.859   0.605  12.232 -0.1195 -0.3008 -1.2593
 2251TIP3   OH228167   2.633   5.557   4.345  0.1234  0.8516 -0.0234
 2251TIP3    H128168   2.632   5.518   4.257  0.4631  0.1209  0.2953
 2251TIP3    H228169   2.724   5.582   4.359  0.0187  1.2153  0.0177
 2252TIP3   OH228170   6.028   4.925  14.851 -0.1113 -0.1946 -0.1236
 2252TIP3    H128171   6.105   4.923  14.909  0.4676 -0.1577 -0.8851
 2252TIP3    H228172   6.040   5.003  14.798 -0.2105 -0.6913 -0.8788
 2253TIP3   OH228173   6.779   2.876   0.704  0.7028  0.0077  0.0394
 2253TIP3    H128174   6.774   2.911   0.793 -1.9832  0.4242 -0.2388
 2253TIP3    H228175   6.730   2.938   0.651 -1.3055 -2.4326 -1.0372
 2254TIP3   OH228176   3.200   0.985   3.856  0.1533  0.1294  0.3564
 2254TIP3    H128177   3.279   0.948   3.815 -0.2837 -1.2299  0.7208
 2254TIP3    H228178   3.230   1.022   3.939  0.3771 -0.5661  0.5865
 2255TIP3   OH228179   5.848   1.858   1.998  0.3714 -0.3207 -0.2638
 2255TIP3    H128180   5.811   1.887   2.081 -0.6198 -1.7699 -0.1765
 2255TIP3    H228181   5.934   1.900   1.993 -0.2164  1.0212  0.7504
 2256TIP3   OH228182   4.444   1.727  16.285  0.1088  0.0848 -0.2546
 2256TIP3    H128183   4.534   1.708  16.257 -0.4183 -0.4326 -1.6798
 2256TIP3    H228184   4.430   1.673  16.362  0.3718 -1.3365 -1.1939
 2257TIP3   OH228185   1.347   1.524  14.081  0.3775 -0.3623 -0.3308
 2257TIP3    H128186   1.400   1.575  14.142 -0.1274 -1.0057  0.6793
 2257TIP3    H228187   1.347   1.574  14.000  1.0902  0.5015  0.1979
 2258TIP3   OH228188   4.487   3.479   5.179  0.5735 -0.0298 -0.5142
 2258TIP3    H128189   4.405   3.434   5.203  0.6095  0.8654  1.3379
 2258TIP3    H228190   4.538   3.412   5.133 -0.2462 -1.2803  0.3609
 2259TIP3   OH228191   0.959   0.102   3.879  0.0093  0.1229  0.1286
 2259TIP3    H128192   0.903   0.113   3.956  0.4191 -2.0211  0.7818
 2259TIP3    H228193   0.930   0.020   3.840  0.9730  0.3069 -1.0052
 2260TIP3   OH228194   4.066   0.944   3.299 -0.1310 -0.3337  0.0873
 2260TIP3    H128195   4.044   1.008   3.368  3.3226  1.4787 -0.3423
 2260TIP3    H228196   4.089   0.865   3.347 -0.9391 -0.1217  0.8445
 2261TIP3   OH228197   0.616   0.935  10.647  0.2910 -0.6215  0.4303
 2261TIP3    H128198   0.705   0.955  10.618  1.7399 -1.9518  3.7085
 2261TIP3    H228199   0.559   0.976  10.581  3.2927 -2.0693 -3.2618
 2262TIP3   OH228200   3.573   1.440   3.980 -0.0539 -0.4332  1.0759
 2262TIP3    H128201   3.524   1.361   3.959 -0.2269 -0.1195  0.3004
 2262TIP3    H228202   3.511   1.511   3.968  1.2392  0.1910 -2.3699
 2263TIP3   OH228203   1.083   1.816   2.757  0.8192 -0.3858 -0.4380
 2263TIP3    H128204   1.083   1.827   2.662 -0.9147 -0.5579 -0.4757
 2263TIP3    H228205   1.046   1.898   2.790  2.9220  0.3316  0.1890
 2264TIP3   OH228206   4.600   3.763   3.161 -0.0835 -0.1036 -0.2542
 2264TIP3    H128207   4.681   3.715   3.145  1.7824  2.6381  0.6144
 2264TIP3    H228208   4.568   3.730   3.245  2.3686  1.6842  1.4345
 2265TIP3   OH228209   5.370   2.529   3.280  0.0606  0.0269 -0.2488
 2265TIP3    H128210   5.434   2.491   3.219  0.5222 -0.3355  0.4577
 2265TIP3    H228211   5.419   2.598   3.326 -0.0593 -0.2420  0.2856
 2266TIP3   OH228212   4.721   5.906   3.401 -0.3526 -0.1902 -0.2399
 2266TIP3    H128213   4.637   5.948   3.422 -0.6619  0.0270 -1.8102
 2266TIP3    H228214   4.759   5.884   3.486 -2.1352 -0.5470  0.4829
 2267TIP3   OH228215   0.860   1.365  16.207 -0.1025  0.0316  0.4599
 2267TIP3    H128216   0.947   1.401  16.221  1.1048 -2.3214 -0.6542
 2267TIP3    H228217   0.859   1.283  16.257 -1.3829 -0.3526 -0.1729
 2268TIP3   OH228218   1.603   0.723   1.096 -0.0224 -0.2259 -0.0286
 2268TIP3    H128219   1.552   0.656   1.050 -0.4635  0.5931 -0.7480
 2268TIP3    H228220   1.688   0.682   1.111 -0.3769 -1.0453 -0.2243
 2269TIP3   OH228221   1.527   5.448  13.297 -0.1065 -0.1855  0.2899
 2269TIP3    H128222   1.568   5.534  13.293  0.5032 -0.4726  0.2967
 2269TIP3    H228223   1.581   5.399  13.359 -0.4600 -0.5650  0.2980
 2270TIP3   OH228224   2.318   2.168   1.723 -0.0498  0.2112 -0.0882
 2270TIP3    H128225   2.277   2.089   1.687 -0.5793  0.6157 -0.3809
 2270TIP3    H228226   2.258   2.197   1.791 -1.1805  1.8236 -1.7335
 2271TIP3   OH228227   3.204   0.417   5.307 -0.2093  0.0551  0.5180
 2271TIP3    H128228   3.192   0.454   5.220 -0.8870 -0.4012  0.4205
 2271TIP3    H228229   3.145   0.342   5.311  1.5888 -1.4170  0.5029
 2272TIP3   OH228230   5.838   5.334   3.004 -0.3292  0.0905 -0.1865
 2272TIP3    H128231   5.839   5.413   2.951  1.4265 -0.1071 -0.4760
 2272TIP3    H228232   5.864   5.363   3.091  1.0999 -0.2812 -0.4783
 2273TIP3   OH228233   4.699   5.524  13.830  0.0081  0.4592  0.4452
 2273TIP3    H128234   4.711   5.438  13.870  1.1363  1.0226  1.3199
 2273TIP3    H228235   4.630   5.510  13.765 -1.4421 -0.5766  2.1666
 2274TIP3   OH228236   6.706   0.318  11.631 -0.0293  0.3079  0.0108
 2274TIP3    H128237   6.765   0.284  11.698  2.0193  1.9333 -0.9050
 2274TIP3    H228238   6.686   0.407  11.659 -1.3869  0.0516 -0.1279
 2275TIP3   OH228239   2.023   3.030   1.260  0.0572  0.5456  0.8353
 2275TIP3    H128240   1.977   3.021   1.344 -2.0108  0.4866 -0.2781
 2275TIP3    H228241   2.114   3.007   1.280 -0.2067  1.4778  3.2647
 2276TIP3   OH228242   2.870   1.939   2.830  0.2819  0.5309  0.2086
 2276TIP3    H128243   2.799   1.931   2.895  1.5761 -1.3359  1.4394
 2276TIP3    H228244   2.877   1.851   2.792  0.7594  1.1575 -1.1706
 2277TIP3   OH228245   1.121   5.121   4.653 -0.1416 -0.7919  0.1510
 2277TIP3    H128246   1.193   5.174   4.619  0.1062 -1.0223  0.3137
 2277TIP3    H228247   1.043   5.153   4.607  0.2238 -1.2623 -0.7790
 2278TIP3   OH228248   5.954   2.777   4.274 -0.0118 -0.1853 -0.3561
 2278TIP3    H128249   5.860   2.787   4.289  0.3894  0.8684  1.6999
 2278TIP3    H228250   5.963   2.692   4.230 -1.8978 -0.3946 -0.3684
 2279TIP3   OH228251   4.210   4.870   2.322  0.5605  0.0394 -0.5067
 2279TIP3    H128252   4.130   4.819   2.334 -0.5604  1.7050 -0.6712
 2279TIP3    H228253   4.224   4.914   2.406  1.2964 -0.2321 -0.4841
 2280TIP3   OH228254   3.867   2.570  15.642  0.0272  0.2081 -0.0099
 2280TIP3    H128255   3.882   2.665  15.642  1.2000  0.0350 -0.7955
 2280TIP3    H228256   3.773   2.561  15.628  0.0120  1.2520 -0.6619
 2281TIP3   OH228257   5.535   1.123   1.010  0.3151  0.2059 -0.6350
 2281TIP3    H128258   5.547   1.048   0.951  1.9293  1.5758 -2.0828
 2281TIP3    H228259   5.441   1.138   1.011  0.2079 -0.2735 -2.3201
 2282TIP3   OH228260   0.093   0.024  11.971 -0.8472  0.1759  0.5199
 2282TIP3    H128261   0.024  -0.036  11.998 -1.9030  1.3670  0.5396
 2282TIP3    H228262   0.162  -0.032  11.935 -2.4857 -0.9507 -0.9496
 2283TIP3   OH228263   3.357   0.079   1.186 -0.1619  0.2087  0.3045
 2283TIP3    H128264   3.374   0.002   1.241  0.1493 -0.2809 -0.4754
 2283TIP3    H228265   3.418   0.145   1.219  0.4784 -0.2891  0.1387
 2284TIP3   OH228266   0.630   6.205   1.170  0.4818  0.3075  0.0316
 2284TIP3    H128267   0.633   6.139   1.239 -0.1095  1.0948  0.8167
 2284TIP3    H228268   0.537   6.223   1.157  0.5910  0.2031 -0.9324
 2285TIP3   OH228269   4.859   0.118   3.552 -0.0927 -0.3299  0.2265
 2285TIP3    H128270   4.938   0.135   3.604 -0.6998 -1.8069  1.7047
 2285TIP3    H228271   4.880   0.038   3.503 -0.2199 -0.0199 -0.3340
 2286TIP3   OH228272   1.946   4.838   2.873  0.5809 -0.2536 -0.0835
 2286TIP3    H128273   1.993   4.788   2.807  0.8165  0.0893 -0.1810
 2286TIP3    H228274   1.854   4.813   2.863  0.6746 -0.5227 -0.2539
 2287TIP3   OH228275   5.794   4.477  10.866 -0.7454 -0.4507 -0.8179
 2287TIP3    H128276   5.734   4.405  10.849 -1.5776  0.2498 -0.8874
 2287TIP3    H228277   5.881   4.438  10.860 -1.2281 -1.8726  1.1914
 2288TIP3   OH228278   3.670   1.925  17.126 -0.4202 -0.1332  0.2962
 2288TIP3    H128279   3.680   1.996  17.063  1.1032  0.3885  1.0842
 2288TIP3    H228280   3.755   1.921  17.170 -0.7222 -1.9647  0.7641
 2289TIP3   OH228281   2.701   1.481  16.872  0.1256  0.1574 -0.0772
 2289TIP3    H128282   2.747   1.429  16.806 -0.9859  0.6743 -1.2883
 2289TIP3    H228283   2.749   1.564  16.874  0.5420 -0.0896  0.2259
 2290TIP3   OH228284   3.762   6.127   2.048  0.2506  0.1764 -0.1442
 2290TIP3    H128285   3.726   6.198   1.995 -1.8237  0.1714  1.2171
 2290TIP3    H228286   3.702   6.053   2.033  1.0339 -0.5588  0.3046
 2291TIP3   OH228287   0.221   2.962  16.816 -0.2039  0.1090 -0.7258
 2291TIP3    H128288   0.248   2.895  16.753  0.6304  1.3639 -1.7313
 2291TIP3    H228289   0.126   2.972  16.802 -0.5428 -1.6449  0.2190
 2292TIP3   OH228290   0.082   0.925   1.754  0.3751 -0.1246  0.1127
 2292TIP3    H128291   0.062   0.872   1.677 -1.0186  0.1806  0.2634
 2292TIP3    H228292   0.162   0.885   1.790  2.1099  0.8332 -2.5049
 2293TIP3   OH228293   5.325   4.158   0.316  0.1569 -0.1629  0.3552
 2293TIP3    H128294   5.324   4.064   0.296 -0.7800  0.1340 -1.0419
 2293TIP3    H228295   5.362   4.199   0.237 -2.9923  0.9698 -0.6087
 2294TIP3   OH228296   1.746   2.336   3.168  0.1709 -0.7901 -0.0964
 2294TIP3    H128297   1.716   2.371   3.084  2.7190  1.5404 -0.1078
 2294TIP3    H228298   1.815   2.274   3.144  1.0631  0.0539  0.2591
 2295TIP3   OH228299   6.166   5.024   0.833 -0.0429  0.3335 -0.5421
 2295TIP3    H128300   6.119   5.063   0.907 -0.9383  0.3230 -1.1082
 2295TIP3    H228301   6.214   4.951   0.871  1.1255  1.5489  0.4135
 2296TIP3   OH228302   5.047   4.116   0.345  0.2632  0.3209  1.0160
 2296TIP3    H128303   4.995   4.082   0.272 -0.7794  2.2695  0.8206
 2296TIP3    H228304   5.136   4.124   0.310 -0.8006  4.0767 -1.0354
 2297TIP3   OH228305   1.585   4.747   0.822 -0.6558 -0.4686  0.2397
 2297TIP3    H128306   1.528   4.722   0.749 -1.6307  0.6649  0.5934
 2297TIP3    H228307   1.612   4.837   0.801  0.8698 -0.9386  0.1613
 2298TIP3   OH228308   3.529   4.773   1.684  0.0410  0.7453 -0.3676
 2298TIP3    H128309   3.590   4.829   1.637  0.5390  2.4825  2.2372
 2298TIP3    H228310   3.585   4.712   1.732 -0.4047  0.1566 -0.5873
 2299TIP3   OH228311   2.151   6.360  12.331  0.0448  0.0703  0.1048
 2299TIP3    H128312   2.108   6.312  12.401  0.6395  0.2642  0.6091
 2299TIP3    H228313   2.082   6.413  12.292  0.1675  1.7342  2.0716
 2300TIP3   OH228314   3.778   3.308   3.051  0.1233  0.2629  0.1247
 2300TIP3    H128315   3.845   3.326   3.116 -0.3886 -1.1254  1.0530
 2300TIP3    H228316   3.794   3.372   2.982  2.6968 -0.3537  0.0972
 2301TIP3   OH228317   1.526   5.478   3.748  0.0388  0.1583 -0.2388
 2301TIP3    H128318   1.475   5.544   3.796  0.1822  0.2018 -0.1453
 2301TIP3    H228319   1.580   5.528   3.688  1.0618  0.2099  0.7012
 2302TIP3   OH228320   0.376   1.937  13.571  0.3761  0.6173 -0.0164
 2302TIP3    H128321   0.464   1.945  13.609  0.2794  0.2851  0.2741
 2302TIP3    H228322   0.320   1.986  13.631  0.0876 -0.6135  0.7332
 2303TIP3   OH228323   0.350   6.774  13.424  0.2301 -0.5490  0.4454
 2303TIP3    H128324   0.272   6.735  13.462  0.0560 -0.2831  0.3588
 2303TIP3    H228325   0.415   6.771  13.495  0.0330 -0.4346  0.6293
 2304TIP3   OH228326   2.363   2.714  11.040  0.1957  0.0704 -0.5840
 2304TIP3    H128327   2.317   2.797  11.056 -3.0990 -1.7133 -0.5244
 2304TIP3    H228328   2.393   2.721  10.950  0.7457  1.6723 -0.3039
 2305TIP3   OH228329   1.483   5.805   1.793 -0.0496  1.0523  0.2336
 2305TIP3    H128330   1.481   5.714   1.763  1.8792  0.9669  0.3222
 2305TIP3    H228331   1.392   5.824   1.817 -0.1726 -1.3653  1.7951
 2306TIP3   OH228332   2.490   6.556  12.675  0.0200  0.1122  0.2604
 2306TIP3    H128333   2.479   6.479  12.619 -2.3849  0.6914 -0.1017
 2306TIP3    H228334   2.522   6.624  12.616 -0.0451  0.0157  0.1127
 2307TIP3   OH228335   0.561   5.117   4.608 -0.3415  0.2429 -0.2040
 2307TIP3    H128336   0.531   5.203   4.638  0.0743 -0.3661  2.1331
 2307TIP3    H228337   0.629   5.093   4.671 -0.8070 -1.9953 -0.5063
 2308TIP3   OH228338   5.739   4.164   0.318 -0.6500  0.1642  0.5857
 2308TIP3    H128339   5.782   4.249   0.312  1.0570 -0.7766 -0.8376
 2308TIP3    H228340   5.660   4.173   0.265  1.4024 -0.2324 -2.6630
 2309TIP3   OH228341   0.892   1.854  13.102 -0.6317 -0.2187  0.5234
 2309TIP3    H128342   0.856   1.834  13.015  0.9631  0.5627 -0.3290
 2309TIP3    H228343   0.869   1.945  13.117  0.1843  0.0162  0.3663
 2310TIP3   OH228344   1.850   1.466  14.852 -0.0403  0.4339  0.4690
 2310TIP3    H128345   1.860   1.382  14.898  3.5831  1.1364  1.1070
 2310TIP3    H228346   1.829   1.442  14.762  3.5672 -1.3152  0.0111
 2311TIP3   OH228347   3.985   1.661  11.774  0.2461  0.0661 -0.3568
 2311TIP3    H128348   4.010   1.630  11.687 -1.4058  1.2858 -1.2957
 2311TIP3    H228349   3.961   1.582  11.823 -0.0738 -0.5035 -1.4294
 2312TIP3   OH228350   4.060   0.139  10.864  0.0464 -0.3132 -0.0194
 2312TIP3    H128351   4.108   0.221  10.854 -0.1110 -0.3980 -1.5288
 2312TIP3    H228352   4.041   0.134  10.958 -2.6952  2.9430 -0.3142
 2313TIP3   OH228353   6.453   3.374   1.517 -0.2833  0.2210 -0.8853
 2313TIP3    H128354   6.528   3.421   1.553 -0.1050 -1.1250  0.5377
 2313TIP3    H228355   6.465   3.378   1.422  1.1713  0.6884 -0.6831
 2314TIP3   OH228356   3.113   5.349   2.807  0.6385  0.8924  0.2187
 2314TIP3    H128357   3.069   5.265   2.796  1.0290  0.9777 -2.2768
 2314TIP3    H228358   3.041   5.411   2.821  0.3047  0.2594  1.3407
 2315TIP3   OH228359   6.343   5.609   3.937  0.4508 -0.1828  0.0487
 2315TIP3    H128360   6.282   5.564   3.995  2.8666 -2.0660  1.2258
 2315TIP3    H228361   6.410   5.543   3.917  2.2337  1.8755 -0.9902
 2316TIP3   OH228362   6.535   3.232  16.575 -0.1327 -0.2213 -1.0196
 2316TIP3    H128363   6.461   3.274  16.530  0.0061 -0.1591 -1.1926
 2316TIP3    H228364   6.558   3.293  16.645  0.6676  0.4402 -1.8424
 2317TIP3   OH228365   2.696   2.653   0.477 -0.0914  0.1156 -0.1643
 2317TIP3    H128366   2.724   2.576   0.526 -2.1020 -0.7070 -0.2935
 2317TIP3    H228367   2.616   2.626   0.432 -0.8940  2.3110 -0.1194
 2318TIP3   OH228368   3.191   3.455   5.428  0.2680  0.5870 -0.3902
 2318TIP3    H128369   3.103   3.492   5.421  0.4537  1.1386  0.1297
 2318TIP3    H228370   3.177   3.366   5.461 -0.2496 -0.2236 -2.7017
 2319TIP3   OH228371   5.629   5.581   5.891  0.9603 -0.5226  0.2244
 2319TIP3    H128372   5.700   5.575   5.954  1.1353 -0.4057  0.0396
 2319TIP3    H228373   5.573   5.652   5.924 -0.0208 -1.7744  1.3210
 2320TIP3   OH228374   2.604   3.986   3.800  0.7934 -0.2596 -0.0049
 2320TIP3    H128375   2.570   3.907   3.840 -0.5425  0.3516  0.1162
 2320TIP3    H228376   2.654   4.030   3.869  0.3454 -0.2951  0.3375
 2321TIP3   OH228377   0.031   3.372  11.410  0.4394  0.2333 -0.3722
 2321TIP3    H128378   0.096   3.440  11.429  1.6120 -1.6565  2.9649
 2321TIP3    H228379   0.079   3.290  11.421 -2.3892 -1.2098  1.9003
 2322TIP3   OH228380   3.687   0.414  14.555 -0.6072  0.5231 -0.8961
 2322TIP3    H128381   3.613   0.391  14.612 -1.1502  1.0812 -1.3709
 2322TIP3    H228382   3.729   0.330  14.535 -0.5532  0.2919  0.1238
 2323TIP3   OH228383   0.806   6.207  17.134 -0.1344 -0.1872 -0.1541
 2323TIP3    H128384   0.739   6.174  17.075  0.6775 -0.5897 -0.8644
 2323TIP3    H228385   0.763   6.279  17.180 -0.6626  0.4151 -1.5385
 2324TIP3   OH228386   3.560   0.710  12.465 -0.4354  0.2278  0.2925
 2324TIP3    H128387   3.571   0.637  12.404 -1.7501  0.1284  0.1511
 2324TIP3    H228388   3.542   0.667  12.549  0.1714  0.3755  0.4972
 2325TIP3   OH228389   5.497   5.951   5.733 -0.3065 -0.0043  0.2464
 2325TIP3    H128390   5.571   5.921   5.786  0.3621 -0.7978 -1.1046
 2325TIP3    H228391   5.426   5.890   5.755  0.2460 -0.9195 -0.4538
 2326TIP3   OH228392   0.828   1.264   1.468  0.5299  0.7201 -0.9800
 2326TIP3    H128393   0.741   1.224   1.466  0.8613  0.0423 -2.7823
 2326TIP3    H228394   0.813   1.354   1.438  0.6127  0.2411 -2.4999
 2327TIP3   OH228395   1.373   1.336   5.510 -0.4131  0.0520  0.1981
 2327TIP3    H128396   1.447   1.280   5.486 -0.7494  0.1908 -1.2290
 2327TIP3    H228397   1.319   1.281   5.566 -0.2331 -0.7173 -0.3725
 2328TIP3   OH228398   0.324   1.015   3.443 -0.0409  0.0561 -0.1857
 2328TIP3    H128399   0.395   1.007   3.507 -1.0100  0.2133  0.9248
 2328TIP3    H228400   0.268   0.939   3.460 -1.2204  1.0255  0.3008
 2329TIP3   OH228401   5.717   1.178  16.412 -0.0581  0.5503 -0.4430
 2329TIP3    H128402   5.661   1.128  16.471  1.2792 -1.5396 -0.9156
 2329TIP3    H228403   5.689   1.269  16.424 -0.8215 -0.0012  2.2893
 2330TIP3   OH228404   4.524   2.921  14.760  0.8802 -0.4918  0.9306
 2330TIP3    H128405   4.506   2.997  14.705  3.6848 -0.7927 -0.4904
 2330TIP3    H228406   4.448   2.864  14.749 -1.5403  2.2898  2.4596
 2331TIP3   OH228407   2.727   4.893   3.445 -0.2977 -0.0892 -0.4398
 2331TIP3    H128408   2.655   4.846   3.487 -0.5556  1.9080  1.4233
 2331TIP3    H228409   2.692   4.981   3.430  2.2767  1.4133  1.9847
 2332TIP3   OH228410   6.185   6.220  12.162  0.5739  0.1633 -0.0627
 2332TIP3    H128411   6.112   6.207  12.101  0.9687  0.3000 -0.5653
 2332TIP3    H228412   6.256   6.255  12.108  0.8919  0.3900  0.4969
 2333TIP3   OH228413   0.240   3.115   2.031 -0.0273  0.1727 -0.8260
 2333TIP3    H128414   0.250   3.050   2.100 -2.7671 -0.0186 -0.5469
 2333TIP3    H228415   0.205   3.065   1.957  0.1728  0.8848 -1.3963
 2334TIP3   OH228416   6.481   0.290   3.223  0.2729 -0.1755 -0.3558
 2334TIP3    H128417   6.575   0.270   3.228  0.3809 -0.5839 -3.0559
 2334TIP3    H228418   6.477   0.385   3.213  0.3921 -0.1343 -0.0073
 2335TIP3   OH228419   5.484   1.342  12.350 -0.2491  0.1687  0.3314
 2335TIP3    H128420   5.413   1.355  12.287 -1.7500  0.2199  2.0258
 2335TIP3    H228421   5.459   1.265  12.400  1.4980 -0.5438  0.1551
 2336TIP3   OH228422   6.675   0.757   3.600  0.1934 -0.1660  0.0881
 2336TIP3    H128423   6.761   0.769   3.558 -0.1617  0.7402 -0.3862
 2336TIP3    H228424   6.627   0.701   3.539 -0.1225  0.6790 -0.4418
 2337TIP3   OH228425   1.720   6.099   0.772 -0.7099  0.2188  0.1745
 2337TIP3    H128426   1.805   6.139   0.755 -0.7117  0.5115  0.8229
 2337TIP3    H228427   1.706   6.040   0.698  0.4549 -0.4909  0.5006
 2338TIP3   OH228428   1.303   5.059   4.344  0.2148 -0.1043  0.2702
 2338TIP3    H128429   1.334   5.044   4.433 -0.4921  0.3625  0.6025
 2338TIP3    H228430   1.382   5.071   4.292  0.5899  1.0227  1.0872
 2339TIP3   OH228431   0.434   3.727  11.471  0.1704 -0.1243  0.3430
 2339TIP3    H128432   0.438   3.789  11.544 -0.6758 -1.8035  1.8657
 2339TIP3    H228433   0.405   3.779  11.397  2.3462  1.9140  0.8500
 2340TIP3   OH228434   1.499   2.696   5.680 -0.8071 -0.3076 -0.1150
 2340TIP3    H128435   1.453   2.650   5.750 -0.8701  0.1954  0.1779
 2340TIP3    H228436   1.543   2.627   5.630 -0.7879 -0.6676  0.4032
 2341TIP3   OH228437   6.621   2.483  13.752 -0.4681 -0.0023  0.2384
 2341TIP3    H128438   6.648   2.574  13.761  0.9070 -0.2958 -0.7302
 2341TIP3    H228439   6.526   2.487  13.739 -0.2643  1.3752 -0.9839
 2342TIP3   OH228440   4.205   2.259   5.278  0.1813  0.1897 -0.1400
 2342TIP3    H128441   4.159   2.186   5.238  1.1976  0.2147 -1.4060
 2342TIP3    H228442   4.257   2.220   5.348  0.3701 -0.2406 -0.5175
 2343TIP3   OH228443   5.429   1.716   2.481 -0.4849  0.1624 -0.2842
 2343TIP3    H128444   5.385   1.785   2.432 -0.7965 -1.2587 -2.0705
 2343TIP3    H228445   5.513   1.755   2.508 -2.0374  2.3044  1.6397
 2344TIP3   OH228446   0.401   6.284   5.484 -0.0913  0.0410  0.5586
 2344TIP3    H128447   0.416   6.301   5.577  1.3498 -0.7451  0.4839
 2344TIP3    H228448   0.433   6.362   5.439 -1.2412  0.6313  0.7368
 2345TIP3   OH228449   3.509   3.945  13.982 -0.4129  0.4868 -0.3158
 2345TIP3    H128450   3.449   3.905  14.045 -0.7893  0.6114 -0.5996
 2345TIP3    H228451   3.485   4.037  13.981  1.6042  1.0834  1.6680
 2346TIP3   OH228452   0.314   3.461  10.954 -0.2591 -0.2555  0.1826
 2346TIP3    H128453   0.377   3.464  10.882 -0.0121  0.3921  0.4267
 2346TIP3    H228454   0.328   3.375  10.995  0.9254  0.1621  0.6585
 2347TIP3   OH228455   4.972   1.121   1.000  0.5636 -0.8120 -0.2272
 2347TIP3    H128456   4.906   1.108   1.067 -0.2721  0.6410 -0.7439
 2347TIP3    H228457   4.959   1.212   0.971  0.5365 -1.5864 -2.7285
 2348TIP3   OH228458   1.532   5.829   5.475  0.1467 -0.6915 -0.0023
 2348TIP3    H128459   1.502   5.855   5.388 -0.0609 -1.4323 -0.1571
 2348TIP3    H228460   1.617   5.872   5.485  0.6857 -1.4947 -1.0236
 2349TIP3   OH228461   2.709   3.900  14.165  0.2150 -0.1599  0.4197
 2349TIP3    H128462   2.776   3.850  14.211 -0.6518 -1.6070  0.1304
 2349TIP3    H228463   2.645   3.921  14.233  0.8689  1.1046  0.6674
 2350TIP3   OH228464   1.034   1.570  10.889  0.0041 -0.5369  0.0399
 2350TIP3    H128465   1.046   1.592  10.981  5.4759  0.7792 -0.7850
 2350TIP3    H228466   1.030   1.475  10.887  1.5249 -0.6558  1.5202
 2351TIP3   OH228467   1.359   3.419   5.118  0.6857 -0.6147  0.3107
 2351TIP3    H128468   1.450   3.438   5.095  0.1033  0.8975 -0.7907
 2351TIP3    H228469   1.312   3.420   5.035 -0.4486 -0.7866  0.9358
 2352TIP3   OH228470   4.885   0.677  16.836 -0.1690 -0.2378  1.0273
 2352TIP3    H128471   4.915   0.587  16.822 -1.6050 -0.6478  0.4765
 2352TIP3    H228472   4.912   0.697  16.926 -0.6613 -1.5735  1.4955
 2353TIP3   OH228473   0.035   3.936  14.561  0.2803  0.1688 -0.6466
 2353TIP3    H128474   0.131   3.936  14.558  0.3465  0.8611  1.0029
 2353TIP3    H228475   0.013   3.852  14.600  0.3479  1.1775  1.6495
 2354TIP3   OH228476   5.619   0.003   2.931 -0.5337  0.7798  0.1505
 2354TIP3    H128477   5.600  -0.075   2.983  0.0500  1.4910  1.4395
 2354TIP3    H228478   5.566   0.072   2.972 -0.7949  1.1408 -0.7804
 2355TIP3   OH228479   2.798   1.659   0.304  0.4713 -0.3764  0.1436
 2355TIP3    H128480   2.834   1.580   0.343  2.0276  0.4347  0.3683
 2355TIP3    H228481   2.725   1.628   0.250  0.9278 -1.9327  0.4060
 2356TIP3   OH228482   6.028   6.486   3.399  0.2346  0.5417  0.2025
 2356TIP3    H128483   6.066   6.572   3.384 -0.4418  0.7345 -0.4381
 2356TIP3    H228484   5.947   6.486   3.348  0.3775 -0.5740 -0.0455
 2357TIP3   OH228485   6.064   5.993   3.330  0.2429  0.5850  0.0926
 2357TIP3    H128486   6.097   6.077   3.299 -1.7038  1.7909  1.2418
 2357TIP3    H228487   6.099   5.983   3.418  1.5960 -0.4815 -0.5376
 2358TIP3   OH228488   0.410   5.386   3.622 -0.0245  0.1754  0.2815
 2358TIP3    H128489   0.504   5.366   3.628 -0.0707  0.2456  1.3122
 2358TIP3    H228490   0.371   5.304   3.593  0.3174  0.0419  0.1902
 2359TIP3   OH228491   4.297   4.536  12.985 -0.1774  0.5465 -0.6440
 2359TIP3    H128492   4.246   4.459  12.960 -0.8271  0.9392 -0.5397
 2359TIP3    H228493   4.304   4.530  13.080 -1.2856  1.2676 -0.5115
 2360TIP3   OH228494   1.840   0.545   1.145 -0.4692  0.4888 -0.2338
 2360TIP3    H128495   1.856   0.567   1.237  0.0737 -1.3422  0.1367
 2360TIP3    H228496   1.905   0.595   1.096 -1.4925  2.3550  0.2656
 2361TIP3   OH228497   0.239   4.758  13.513  0.2553 -0.6084  0.5552
 2361TIP3    H128498   0.243   4.813  13.591  0.8468  0.0457  0.0745
 2361TIP3    H228499   0.203   4.815  13.445 -0.0580 -1.1105  0.2967
 2362TIP3   OH228500   2.105   6.520  16.530  0.0784 -0.6072 -0.0535
 2362TIP3    H128501   2.145   6.472  16.602 -1.4166  0.8929  1.8289
 2362TIP3    H228502   2.127   6.612  16.547 -2.1994 -0.0075 -0.2476
 2363TIP3   OH228503   3.495   2.523   1.717 -0.2517 -0.1575  0.1600
 2363TIP3    H128504   3.547   2.519   1.636 -1.6092  1.2883 -0.8136
 2363TIP3    H228505   3.540   2.463   1.777  0.2273 -1.9973 -1.9624
 2364TIP3   OH228506   1.221   6.245  15.497 -0.1146 -0.1038 -0.8689
 2364TIP3    H128507   1.237   6.160  15.536  0.0235 -0.0958 -0.9078
 2364TIP3    H228508   1.155   6.228  15.429  0.9551 -0.4273 -1.8438
 2365TIP3   OH228509   5.637   2.850  15.047 -0.1586  0.3396 -0.0851
 2365TIP3    H128510   5.588   2.813  15.121 -0.3381  0.0373 -0.3555
 2365TIP3    H228511   5.571   2.860  14.978  0.0364  0.5066 -0.2466
 2366TIP3   OH228512   1.300   1.193   2.388 -0.1082 -0.2221  0.5818
 2366TIP3    H128513   1.231   1.169   2.327 -0.2408  0.7168  0.3600
 2366TIP3    H228514   1.309   1.117   2.445  1.1637 -1.7704 -1.6067
 2367TIP3   OH228515   4.276   1.047   2.164 -0.6145  0.0062 -0.3259
 2367TIP3    H128516   4.200   0.999   2.132 -0.9033  0.2030  0.0640
 2367TIP3    H228517   4.254   1.139   2.149 -0.4848  0.0660 -0.1475
 2368TIP3   OH228518   6.465   5.072   4.495 -0.0095  0.6935  0.1528
 2368TIP3    H128519   6.395   5.008   4.506 -0.7925  1.2665 -1.2779
 2368TIP3    H228520   6.455   5.132   4.569 -1.5330  1.2016 -0.4369
 2369TIP3   OH228521   1.057   5.184  13.885 -0.2142  0.0246  0.3695
 2369TIP3    H128522   1.094   5.112  13.833  0.3929 -0.0995  0.9698
 2369TIP3    H228523   1.007   5.141  13.954 -1.1014  0.1908 -0.1633
 2370TIP3   OH228524   4.736   1.394   4.464 -0.0662 -0.1694 -0.0172
 2370TIP3    H128525   4.829   1.419   4.461 -0.0002 -0.5565 -1.7624
 2370TIP3    H228526   4.705   1.428   4.548  1.2803  1.2900 -0.0816
 2371TIP3   OH228527   6.356   3.941   3.867  0.0069  0.1293  0.2284
 2371TIP3    H128528   6.449   3.960   3.873  0.1127 -0.7238  1.4887
 2371TIP3    H228529   6.314   4.025   3.852  0.8598  0.6885  0.9859
 2372TIP3   OH228530   4.095   6.610   1.010  0.1410 -0.1430 -0.2494
 2372TIP3    H128531   4.022   6.549   1.005  1.7023 -1.9638 -2.0480
 2372TIP3    H228532   4.069   6.684   0.955  0.0302 -1.2374 -1.6971
 2373TIP3   OH228533   4.549   5.850  14.036 -0.4095  0.2583 -0.1482
 2373TIP3    H128534   4.615   5.784  14.060 -1.8397 -1.2949 -0.3683
 2373TIP3    H228535   4.543   5.845  13.941 -2.6426 -1.4482  0.0351
 2374TIP3   OH228536   3.130   2.476  16.424  0.5339  0.1027 -0.4197
 2374TIP3    H128537   3.209   2.441  16.383  0.9360  2.8389 -2.1712
 2374TIP3    H228538   3.159   2.504  16.511  1.0496 -0.6026 -0.3606
 2375TIP3   OH228539   4.456   6.482   0.370  0.4409 -0.5901  0.2745
 2375TIP3    H128540   4.432   6.459   0.459 -1.9917  0.2280 -0.1137
 2375TIP3    H228541   4.435   6.404   0.318 -0.9279 -0.0620  0.0130
 2376TIP3   OH228542   6.186   0.792  15.059 -0.6292  0.0290 -0.3133
 2376TIP3    H128543   6.269   0.756  15.027 -0.2522 -0.5490  1.2630
 2376TIP3    H228544   6.121   0.724  15.039 -0.7692  0.5731 -1.7407
 2377TIP3   OH228545   2.772   3.443   6.495  0.2756  0.4392 -0.2034
 2377TIP3    H128546   2.799   3.453   6.586 -3.0591 -0.3021  0.9180
 2377TIP3    H228547   2.684   3.480   6.492  0.0892 -0.1377 -3.0043
 2378TIP3   OH228548   1.400   6.442  11.816  0.5851 -0.0837 -0.5968
 2378TIP3    H128549   1.457   6.518  11.816  0.6580 -0.0243  3.6724
 2378TIP3    H228550   1.330   6.464  11.754  0.9768  3.1763  0.0530
 2379TIP3   OH228551   1.348   2.376   2.498 -0.1504  0.0465 -0.1027
 2379TIP3    H128552   1.423   2.330   2.536 -0.4282 -0.2600  0.0826
 2379TIP3    H228553   1.279   2.365   2.563 -0.2419  0.6582 -0.1002
 2380TIP3   OH228554   4.600   1.169  13.956  0.0912  0.8600 -0.2695
 2380TIP3    H128555   4.590   1.199  13.866 -0.1139 -1.2402 -0.9615
 2380TIP3    H228556   4.545   1.229  14.007 -0.3472  1.6243 -1.6125
 2381TIP3   OH228557   5.974   3.580  14.937  0.1285  0.0188  0.0995
 2381TIP3    H128558   5.908   3.553  15.002  1.2503 -0.2271  1.1588
 2381TIP3    H228559   5.923   3.601  14.859 -1.0093 -2.6970  0.0497
 2382TIP3   OH228560   3.537   1.973   4.626 -0.3354 -1.2100 -0.8729
 2382TIP3    H128561   3.509   2.011   4.709 -1.6630 -0.9689 -1.4232
 2382TIP3    H228562   3.526   1.878   4.638  0.2797 -1.2349 -0.4852
 2383TIP3   OH228563   6.240   1.063   2.641 -0.4773  0.1093 -0.1618
 2383TIP3    H128564   6.275   1.034   2.557  1.8454  0.7573  0.5379
 2383TIP3    H228565   6.198   1.147   2.622 -1.8228 -0.7361 -1.0371
 2384TIP3   OH228566   2.867   6.718   5.849  0.0532 -0.1789  0.2369
 2384TIP3    H128567   2.837   6.707   5.939 -2.0414 -0.3619 -0.4499
 2384TIP3    H228568   2.955   6.681   5.848 -0.2068 -0.8782  2.0387
 2385TIP3   OH228569   3.310   5.317   1.587  0.1974 -0.6548  0.5083
 2385TIP3    H128570   3.257   5.395   1.570 -2.1975 -2.2846  0.1773
 2385TIP3    H228571   3.392   5.333   1.539 -0.3608  1.5128  0.2140
 2386TIP3   OH228572   2.367   2.938   4.319  0.0766 -0.6417  0.2915
 2386TIP3    H128573   2.458   2.943   4.288  0.3242 -0.9821  0.9419
 2386TIP3    H228574   2.375   2.915   4.412 -0.5211  3.2760  1.4244
 2387TIP3   OH228575   5.005   2.583   5.175  0.1064  0.8369  0.2470
 2387TIP3    H128576   5.079   2.555   5.121 -0.5404  0.1849 -0.3037
 2387TIP3    H228577   4.995   2.677   5.155  1.4279  1.1766  1.1048
 2388TIP3   OH228578   4.113   6.591  14.639 -0.2117 -0.0961 -0.1821
 2388TIP3    H128579   4.108   6.658  14.707 -0.9274  0.0293 -0.3495
 2388TIP3    H228580   4.053   6.523  14.668 -0.4957 -0.0565 -0.6743
 2389TIP3   OH228581   6.254   3.695  16.114 -0.2719  0.4132 -0.2147
 2389TIP3    H128582   6.297   3.670  16.032  0.1902  0.2185  0.0878
 2389TIP3    H228583   6.210   3.778  16.094  1.1578  1.1786 -0.2060
 2390TIP3   OH228584   0.018   3.366  15.240  0.0069  0.1659 -0.1136
 2390TIP3    H128585  -0.069   3.377  15.280 -0.1324  2.2729 -0.9486
 2390TIP3    H228586   0.072   3.432  15.283  0.8422 -0.1671 -0.6490
 2391TIP3   OH228587   1.753   5.311   3.925  0.3148  0.1597 -0.4054
 2391TIP3    H128588   1.732   5.402   3.946 -0.4542  0.2617 -1.5849
 2391TIP3    H228589   1.786   5.275   4.007  2.0479  1.9001 -0.2857
 2392TIP3   OH228590   0.781   1.956  12.439 -0.0606  0.2912  0.1019
 2392TIP3    H128591   0.707   2.016  12.448  0.3374  0.9230 -0.7549
 2392TIP3    H228592   0.830   1.965  12.521 -0.5637  0.3803  0.3895
 2393TIP3   OH228593   3.670   2.201  11.342 -0.2151  0.4932  0.9888
 2393TIP3    H128594   3.683   2.296  11.342  0.6892  0.3751  0.1031
 2393TIP3    H228595   3.714   2.170  11.263  1.6736 -0.9579  2.5488
 2394TIP3   OH228596   1.547   1.285   2.257 -0.3577  0.0943 -0.3588
 2394TIP3    H128597   1.453   1.273   2.265 -0.3233  0.1463  0.1177
 2394TIP3    H228598   1.562   1.375   2.286  0.2089 -0.8671  2.3816
 2395TIP3   OH228599   6.378   2.477   3.517  0.4536  0.3959 -0.6083
 2395TIP3    H128600   6.414   2.563   3.496  2.1032 -0.4474 -1.3786
 2395TIP3    H228601   6.295   2.473   3.468  1.4161  0.7188 -2.3218
 2396TIP3   OH228602   6.215   1.310   5.410  0.4659 -0.1008 -0.2426
 2396TIP3    H128603   6.161   1.339   5.336  1.9533  2.3242 -0.4146
 2396TIP3    H228604   6.160   1.324   5.487  0.5631  1.7486 -0.4805
 2397TIP3   OH228605   6.745   0.760  12.662 -0.2490  0.1353  0.4618
 2397TIP3    H128606   6.739   0.770  12.567  2.2478  2.0833  0.4724
 2397TIP3    H228607   6.681   0.823  12.696  0.3311  0.9191  0.1094
 2398TIP3   OH228608   1.625   5.502   5.525  0.0948 -0.7821 -0.3280
 2398TIP3    H128609   1.705   5.514   5.475 -0.8289  1.1696 -1.4192
 2398TIP3    H228610   1.644   5.541   5.610 -0.1259  1.0644 -1.0786
 2399TIP3   OH228611   4.892   3.323  17.184 -0.5835  1.1945  0.5628
 2399TIP3    H128612   4.876   3.233  17.213  3.3528 -0.3790 -1.6500
 2399TIP3    H228613   4.862   3.324  17.093 -0.2215  1.9914  0.4462
 2400TIP3   OH228614   3.578   2.802   4.526  0.6243 -0.1511 -0.2521
 2400TIP3    H128615   3.642   2.770   4.591  0.7572  0.9998  0.1909
 2400TIP3    H228616   3.601   2.755   4.446  2.3198  0.5819 -0.2111
 2401TIP3   OH228617   0.865   3.462   3.024  0.3223  0.1367  0.4529
 2401TIP3    H128618   0.937   3.462   2.960  0.8346  0.2632  1.0242
 2401TIP3    H228619   0.819   3.544   3.008  1.1804  0.7419  1.0531
 2402TIP3   OH228620   5.276   5.853   2.508 -0.2793  0.2672 -0.3512
 2402TIP3    H128621   5.302   5.876   2.418 -3.0763  1.6523 -0.8705
 2402TIP3    H228622   5.236   5.766   2.500  1.4103 -0.5417 -0.0703
 2403TIP3   OH228623   6.427   4.461  13.687  0.0127  0.1972  0.2754
 2403TIP3    H128624   6.469   4.431  13.607 -1.0729  0.8351 -0.5455
 2403TIP3    H228625   6.358   4.396  13.704 -0.7491  0.8743 -0.1635
 2404TIP3   OH228626   1.117   0.929   3.637  0.0942  0.5969 -0.1636
 2404TIP3    H128627   1.066   1.007   3.658  0.6293  0.2461  2.6627
 2404TIP3    H228628   1.077   0.860   3.688  1.9890 -0.1626  0.3309
 2405TIP3   OH228629   2.135   4.640  16.563 -0.5799  0.2705 -0.6285
 2405TIP3    H128630   2.095   4.553  16.573 -3.8788  1.7051 -0.5034
 2405TIP3    H228631   2.142   4.673  16.652  2.0107 -0.3884 -0.5577
 2406TIP3   OH228632   2.671   2.643  14.271  0.1884 -0.2535  0.5193
 2406TIP3    H128633   2.729   2.601  14.207 -1.2234  1.1981 -1.7978
 2406TIP3    H228634   2.583   2.612  14.248 -0.5397  1.6820  0.6071
 2407TIP3   OH228635   0.336   3.579   4.075  0.0186  0.3188 -0.0046
 2407TIP3    H128636   0.330   3.668   4.109 -0.8846  0.6035 -0.9032
 2407TIP3    H228637   0.263   3.571   4.014  0.8886 -0.6004 -0.9455
 2408TIP3   OH228638   2.757   3.679  13.403 -0.2983 -0.4489  0.4204
 2408TIP3    H128639   2.687   3.639  13.454  0.9115 -0.2679  2.2571
 2408TIP3    H228640   2.838   3.651  13.447  0.7030  0.9079 -0.5191
 2409TIP3   OH228641   2.509   5.966   4.176  0.0734 -0.1155 -0.4401
 2409TIP3    H128642   2.546   5.976   4.264 -1.0052 -0.8146  0.1006
 2409TIP3    H228643   2.417   5.988   4.186  0.2297  1.1797 -1.6949
 2410TIP3   OH228644   0.275   1.352  16.270 -0.4785  0.5416 -0.9057
 2410TIP3    H128645   0.259   1.396  16.186 -3.1831  2.8221  0.7070
 2410TIP3    H228646   0.188   1.336  16.306  0.5817 -2.4469  0.4937
 2411TIP3   OH228647   1.764   6.069  12.707  0.2578 -0.0953 -0.3414
 2411TIP3    H128648   1.744   6.057  12.614 -0.0811 -1.4109 -0.1124
 2411TIP3    H228649   1.775   6.163  12.717 -1.2619  0.2176 -1.4075
 2412TIP3   OH228650   1.785   1.008   1.491 -0.0309 -0.2993  0.3091
 2412TIP3    H128651   1.857   1.067   1.513  0.1511 -0.4989  0.2431
 2412TIP3    H228652   1.746   0.985   1.576 -0.0065 -0.2067  0.3455
 2413TIP3   OH228653   4.696   0.818  11.408 -0.3405  0.0887 -0.9449
 2413TIP3    H128654   4.787   0.794  11.394 -0.5557 -0.4894 -1.4204
 2413TIP3    H228655   4.664   0.755  11.473 -0.6904 -0.4254 -1.6000
 2414TIP3   OH228656   0.311   4.326  14.571 -0.0521  0.3601 -0.1857
 2414TIP3    H128657   0.378   4.394  14.555 -0.9744  1.4548  0.5215
 2414TIP3    H228658   0.229   4.374  14.572 -0.7050 -0.7722  0.4783
 2415TIP3   OH228659   4.279   2.377  14.774 -0.1217 -0.5433 -0.7828
 2415TIP3    H128660   4.278   2.283  14.759 -1.1168 -0.5936 -0.4133
 2415TIP3    H228661   4.189   2.405  14.760 -0.5259 -0.1611  2.2666
 2416TIP3   OH228662   1.486   6.009   2.082  0.1767  0.5286  0.5094
 2416TIP3    H128663   1.541   6.033   2.008 -0.1746 -0.6337 -0.1422
 2416TIP3    H228664   1.496   5.914   2.091  1.2599  0.8082  2.8062
 2417TIP3   OH228665   1.986   3.597   1.903  0.4358 -0.5926  0.1370
 2417TIP3    H128666   2.017   3.629   1.987  1.3988 -0.7943 -0.1381
 2417TIP3    H228667   1.913   3.655   1.881  0.5883 -0.1396  0.8044
 2418TIP3   OH228668   6.337   4.635   0.413  0.3045 -0.4650  0.4370
 2418TIP3    H128669   6.322   4.678   0.497  1.8969  1.1368 -0.0653
 2418TIP3    H228670   6.416   4.676   0.379 -0.4084 -0.9698 -1.9208
 2419TIP3   OH228671   2.412   2.563   1.092 -0.2276 -0.0440 -0.0553
 2419TIP3    H128672   2.366   2.485   1.060 -0.4914  0.2718 -0.4557
 2419TIP3    H228673   2.424   2.617   1.014  0.1336  0.2298  0.1859
 2420TIP3   OH228674   5.434   4.983  11.321 -0.4097 -0.0210 -0.0266
 2420TIP3    H128675   5.472   4.990  11.409 -1.5333 -0.0533  0.4733
 2420TIP3    H228676   5.478   5.052  11.271 -0.0421  0.2606  0.6660
 2421TIP3   OH228677   2.701   4.171  15.101  0.3854  0.3768 -0.0298
 2421TIP3    H128678   2.678   4.252  15.055 -0.6871 -0.6166 -1.2632
 2421TIP3    H228679   2.620   4.142  15.142  0.8898  0.1876  0.8570
 2422TIP3   OH228680   5.886   3.357  13.554  0.2012  0.2713 -0.1291
 2422TIP3    H128681   5.845   3.367  13.468 -2.2516  0.4008  1.0168
 2422TIP3    H228682   5.843   3.281  13.593  1.1223  0.3444  1.0664
 2423TIP3   OH228683   5.479   2.852  13.688 -0.1785 -0.4033  0.4545
 2423TIP3    H128684   5.448   2.938  13.660 -1.4990 -0.9250  0.2644
 2423TIP3    H228685   5.430   2.833  13.767  1.0120 -0.4574  1.1921
 2424TIP3   OH228686   6.566   2.992  16.167 -0.6498  0.0989 -0.2369
 2424TIP3    H128687   6.661   2.978  16.165 -0.2835  2.0537  1.4253
 2424TIP3    H228688   6.542   2.977  16.259 -1.9065 -0.0126 -0.5774
 2425TIP3   OH228689   5.214   4.848   4.309  0.0190  0.1223  0.5872
 2425TIP3    H128690   5.171   4.851   4.224  1.1523  0.5482  0.0219
 2425TIP3    H228691   5.149   4.883   4.370  0.2614  2.6390 -0.5565
 2426TIP3   OH228692   1.287   4.268  13.459  0.8167 -0.6720  0.0897
 2426TIP3    H128693   1.202   4.281  13.502  1.8284  0.5288  1.8233
 2426TIP3    H228694   1.292   4.339  13.395  0.2729 -1.0708 -0.3919
 2427TIP3   OH228695   0.050   2.624   4.007  0.3445 -0.5455 -0.2037
 2427TIP3    H128696   0.141   2.643   3.983  0.4520  0.2422  0.7997
 2427TIP3    H228697   0.029   2.542   3.961  2.3208 -2.0181  1.4759
 2428TIP3   OH228698   4.750   6.451  11.208 -0.2604 -0.3664  0.0562
 2428TIP3    H128699   4.679   6.484  11.262 -0.6106  2.0394 -1.8154
 2428TIP3    H228700   4.830   6.478  11.253 -0.5473  2.1955 -0.9371
 2429TIP3   OH228701   3.200   1.059   2.206 -0.0050  0.0304 -0.9315
 2429TIP3    H128702   3.274   1.056   2.146 -1.1405 -0.3871 -2.3335
 2429TIP3    H228703   3.149   0.982   2.185 -0.7270  0.1882  0.1902
 2430TIP3   OH228704   4.295   3.665   2.577  0.0855  0.0852 -0.1930
 2430TIP3    H128705   4.307   3.573   2.603  1.1398 -0.2119 -1.6320
 2430TIP3    H228706   4.328   3.668   2.487 -0.2062  1.8227 -0.2522
 2431TIP3   OH228707   5.881   2.567  12.295  0.3118  0.1242  0.1740
 2431TIP3    H128708   5.942   2.585  12.223  0.9247 -0.6702  0.4882
 2431TIP3    H228709   5.853   2.654  12.324 -1.2913  0.4211 -2.1454
 2432TIP3   OH228710   5.177   2.903  13.431  0.9232 -0.3746  0.1856
 2432TIP3    H128711   5.216   2.986  13.460 -0.8349  1.1888 -1.7287
 2432TIP3    H228712   5.087   2.926  13.408  0.7478 -2.5840 -1.5485
 2433TIP3   OH228713   0.118   1.534   4.013  0.1946  0.3353 -0.4416
 2433TIP3    H128714   0.107   1.598   3.942  4.3241  0.7889 -0.8230
 2433TIP3    H228715   0.092   1.582   4.092  0.2152  1.4420 -1.0859
 2434TIP3   OH228716   4.393   2.924   1.805  0.7603 -0.1742  0.5737
 2434TIP3    H128717   4.358   2.887   1.724  0.1271 -0.3691  0.9335
 2434TIP3    H228718   4.487   2.907   1.800  1.0549  1.7154 -1.1079
 2435TIP3   OH228719   2.820   3.912   0.822 -0.4505  0.6097 -0.2803
 2435TIP3    H128720   2.807   3.957   0.738  0.4667  1.6101  0.0988
 2435TIP3    H228721   2.792   3.822   0.805 -1.1221  1.0140 -1.4137
 2436TIP3   OH228722   6.689   1.841  12.001 -0.2337 -0.4791  0.0896
 2436TIP3    H128723   6.605   1.839  12.047  1.0643 -0.3658  2.5876
 2436TIP3    H228724   6.693   1.927  11.961 -1.5908 -0.7289 -0.6063
 2437TIP3   OH228725   6.539   0.955  16.833 -0.1584 -0.7806 -0.5649
 2437TIP3    H128726   6.478   0.937  16.762 -1.4046 -1.2025  0.5865
 2437TIP3    H228727   6.608   0.889  16.822  0.2760 -0.1071 -2.0435
 2438TIP3   OH228728   1.275   4.634  12.007 -0.6447  0.1760  1.0080
 2438TIP3    H128729   1.347   4.601  11.953  0.4048  1.0035  1.8645
 2438TIP3    H228730   1.227   4.556  12.034 -1.0075 -0.2722 -0.8406
 2439TIP3   OH228731   0.103   6.652  14.208  0.8386  0.4214 -0.0057
 2439TIP3    H128732   0.009   6.668  14.211  1.0503  2.1750 -1.4797
 2439TIP3    H228733   0.118   6.609  14.124  1.4236  0.7530 -0.0737
 2440TIP3   OH228734   5.679   1.616  13.010 -0.6413 -0.0116  0.5723
 2440TIP3    H128735   5.751   1.616  13.072  0.4622 -1.9226 -0.6663
 2440TIP3    H228736   5.600   1.615  13.064  0.2219  2.6907  1.9439
 2441TIP3   OH228737   0.174   5.263  16.153 -0.3550 -0.3368 -0.0751
 2441TIP3    H128738   0.240   5.326  16.181  0.3228 -1.7709  1.6809
 2441TIP3    H228739   0.140   5.226  16.235 -1.0111 -1.9574 -1.0459
 2442TIP3   OH228740   4.590   0.533   4.956  0.6144  0.6478 -0.2964
 2442TIP3    H128741   4.570   0.482   4.877 -1.9284  0.6931  0.2793
 2442TIP3    H228742   4.681   0.511   4.976  0.2222 -2.0970 -1.2289
 2443TIP3   OH228743   6.647   4.261   6.388 -0.3676 -0.2993  0.1608
 2443TIP3    H128744   6.724   4.280   6.335 -1.6992  1.6100 -1.1624
 2443TIP3    H228745   6.658   4.170   6.415  2.4975  0.0507  0.2892
 2444TIP3   OH228746   5.761   4.429  13.172  0.0717 -0.4980 -0.0872
 2444TIP3    H128747   5.768   4.427  13.267 -0.4781  1.6951  0.0156
 2444TIP3    H228748   5.759   4.336  13.146  2.8057 -1.1469  1.8110
 2445TIP3   OH228749   1.277   0.543  16.691  0.0639 -0.0101 -0.3261
 2445TIP3    H128750   1.288   0.463  16.742 -1.7496 -0.0098  0.0821
 2445TIP3    H228751   1.327   0.527  16.611  2.1902 -0.3548  1.0263
 2446TIP3   OH228752   6.090   3.274   2.719  0.1042  0.3214 -0.3165
 2446TIP3    H128753   6.026   3.203   2.708 -0.9302  1.2781 -0.6587
 2446TIP3    H228754   6.173   3.237   2.693 -0.5916 -0.4969 -1.4001
 2447TIP3   OH228755   3.951   0.739   0.536 -0.3964  0.0266 -0.5049
 2447TIP3    H128756   3.934   0.819   0.487 -0.5874  0.8949  0.9468
 2447TIP3    H228757   3.866   0.715   0.572 -0.1592 -0.3148 -0.1695
 2448TIP3   OH228758   4.312   3.577  16.589  0.0792  0.3667  0.3514
 2448TIP3    H128759   4.380   3.547  16.528 -0.7714  0.8203 -0.8533
 2448TIP3    H228760   4.261   3.639  16.538 -1.9599 -0.8481  0.8599
 2449TIP3   OH228761   6.774   3.797  15.052 -0.4577 -0.5655 -0.0145
 2449TIP3    H128762   6.752   3.706  15.074 -1.5358 -0.6646 -1.3549
 2449TIP3    H228763   6.689   3.841  15.049 -0.2470 -0.2440 -2.3998
 2450TIP3   OH228764   2.952   5.169   5.008 -0.5272  0.2167  0.4377
 2450TIP3    H128765   2.992   5.210   5.085  0.4313  0.2908 -0.0884
 2450TIP3    H228766   2.976   5.227   4.935 -1.6562  0.2905  0.1246
 2451TIP3   OH228767   6.115   5.736   0.462 -0.6120 -0.3135 -0.6672
 2451TIP3    H128768   6.088   5.686   0.539 -0.8499  1.4347  0.3956
 2451TIP3    H228769   6.211   5.734   0.464 -0.6191 -0.4208 -0.4351
 2452TIP3   OH228770   1.784   1.336   3.857  0.4406 -0.1368 -0.2058
 2452TIP3    H128771   1.864   1.373   3.820  0.4258  0.1822  0.0814
 2452TIP3    H228772   1.814   1.276   3.925  0.4071  0.6994  0.5527
 2453TIP3   OH228773   4.050   5.100   2.448 -0.2353  0.0333 -0.1571
 2453TIP3    H128774   4.064   5.010   2.474 -0.7231 -0.2686 -0.9104
 2453TIP3    H228775   4.133   5.127   2.408 -1.0514 -1.0639 -2.6949
 2454TIP3   OH228776   2.501   0.184   3.805  0.4504 -0.0685  0.0752
 2454TIP3    H128777   2.519   0.270   3.766 -0.1931  0.5833  1.2140
 2454TIP3    H228778   2.576   0.130   3.777  1.0646  0.9602 -0.3125
 2455TIP3   OH228779   4.595   6.701   4.552  0.3011 -0.0285 -0.3762
 2455TIP3    H128780   4.688   6.691   4.533  0.4883  1.4601 -0.3109
 2455TIP3    H228781   4.569   6.779   4.504 -0.8189 -0.2037 -0.0668
 2456TIP3   OH228782   6.142   6.611   2.500  0.0616  0.1418  0.5106
 2456TIP3    H128783   6.217   6.649   2.547  0.0505  1.6718 -0.6729
 2456TIP3    H228784   6.144   6.519   2.524  2.8756 -0.0348 -0.1779
 2457TIP3   OH228785   5.404   0.906   6.440  0.6645 -0.0421 -0.5107
 2457TIP3    H128786   5.381   0.904   6.347  0.6267  0.2242 -0.5100
 2457TIP3    H228787   5.363   0.986   6.472  2.2487  0.8693 -0.6917
 2458TIP3   OH228788   0.766   6.004   5.753 -0.1655  0.4431  0.3877
 2458TIP3    H128789   0.767   6.034   5.843  1.0003 -0.1906  0.5994
 2458TIP3    H228790   0.723   5.919   5.756  2.1060 -0.7320  0.7505
 2459TIP3   OH228791   1.534   1.929   4.502 -0.2529  0.0633 -0.2572
 2459TIP3    H128792   1.577   1.916   4.587 -0.7245  1.7893  0.2613
 2459TIP3    H228793   1.586   1.877   4.441 -0.5223 -2.0391  1.2561
 2460TIP3   OH228794   3.880   6.220  16.386 -0.4337  0.0625 -0.4824
 2460TIP3    H128795   3.943   6.288  16.363  0.1993 -1.1290 -2.3503
 2460TIP3    H228796   3.899   6.200  16.478  1.8008 -0.1426 -0.9668
 2461TIP3   OH228797   4.999   0.930   0.759 -0.0787 -0.1695 -0.1134
 2461TIP3    H128798   4.947   0.987   0.815 -1.0231 -0.3968 -0.7547
 2461TIP3    H228799   5.083   0.921   0.805 -0.0106  1.5278  0.1116
 2462TIP3   OH228800   1.735   5.819  14.013  0.4626 -0.5013  0.2728
 2462TIP3    H128801   1.694   5.857  14.091  1.4972  2.0041 -0.3322
 2462TIP3    H228802   1.794   5.752  14.047  2.5553  2.0656  1.8767
 2463TIP3   OH228803   6.498   5.340   3.965  0.2013  0.1248  0.2883
 2463TIP3    H128804   6.571   5.335   3.903  0.8704  0.0654  1.0680
 2463TIP3    H228805   6.420   5.341   3.910  0.8036  0.6364 -0.5828
 2464TIP3   OH228806   0.746   1.506  12.423  0.2200 -0.4927 -0.2020
 2464TIP3    H128807   0.752   1.420  12.382  0.5402 -0.1279 -0.9266
 2464TIP3    H228808   0.735   1.488  12.517  3.0236 -1.3128  0.0094
 2465TIP3   OH228809   2.679   0.105  16.746 -0.2126 -0.1271  0.0250
 2465TIP3    H128810   2.648   0.133  16.833 -0.6737 -0.4063 -0.0501
 2465TIP3    H228811   2.675   0.185  16.693 -1.1119 -0.2285 -0.0705
 2466TIP3   OH228812   4.442   4.883  12.968  0.0411 -0.7198 -0.2468
 2466TIP3    H128813   4.356   4.857  12.935 -0.2738 -0.5445  0.4146
 2466TIP3    H228814   4.498   4.883  12.891 -0.8316  0.3395 -0.9037
 2467TIP3   OH228815   4.617   0.994   3.414 -0.4365 -0.2209  0.7296
 2467TIP3    H128816   4.536   1.043   3.423 -0.8200 -0.6165 -0.4238
 2467TIP3    H228817   4.672   1.049   3.358 -2.0588 -2.4456 -3.2666
 2468TIP3   OH228818   3.678   0.340  17.008  0.4796 -0.2393 -0.0667
 2468TIP3    H128819   3.640   0.405  16.949  1.3241  0.2666 -0.0589
 2468TIP3    H228820   3.745   0.388  17.057  0.4574 -0.8887  0.6150
 2469TIP3   OH228821   5.287   0.626   5.675 -0.0710  0.3394 -0.0642
 2469TIP3    H128822   5.207   0.609   5.626 -0.5459 -1.5622  1.3080
 2469TIP3    H228823   5.257   0.665   5.757  0.5016  0.7908 -0.0675
 2470TIP3   OH228824   4.858   5.864  14.224 -0.1040 -0.1289  0.0512
 2470TIP3    H128825   4.798   5.805  14.178  1.8395 -0.7688 -1.6903
 2470TIP3    H228826   4.937   5.866  14.171  0.2536  3.3047  0.5633
 2471TIP3   OH228827   3.354   1.002   0.314  0.7481 -0.1602  0.3229
 2471TIP3    H128828   3.291   0.940   0.351 -1.2653  2.0880  0.7792
 2471TIP3    H228829   3.355   0.982   0.220 -1.4076  0.4137  0.1582
 2472TIP3   OH228830   3.350   3.392   2.290 -0.1837 -0.1516 -1.0130
 2472TIP3    H128831   3.405   3.334   2.237 -1.1852 -0.2573 -1.9492
 2472TIP3    H228832   3.307   3.449   2.226 -1.6200 -0.4545 -0.3393
 2473TIP3   OH228833   0.702   0.585   2.583 -0.4323 -0.4447  0.1287
 2473TIP3    H128834   0.733   0.550   2.666 -0.8398  0.2878  0.5996
 2473TIP3    H228835   0.606   0.581   2.590 -0.4640 -0.8204 -0.4955
 2474TIP3   OH228836   5.153   6.202   3.544  0.2493 -0.2296  0.1468
 2474TIP3    H128837   5.229   6.144   3.538  0.7142  0.4379 -0.4187
 2474TIP3    H228838   5.140   6.214   3.638  0.9054 -0.2681  0.2472
 2475TIP3   OH228839   1.710   3.255  12.622  0.1781  0.2943  0.0125
 2475TIP3    H128840   1.629   3.207  12.636  1.4846 -2.1715 -0.4569
 2475TIP3    H228841   1.713   3.271  12.527  0.8581 -0.8361 -0.1706
 2476TIP3   OH228842   5.128   4.651  11.485  0.2706 -0.6070  0.6497
 2476TIP3    H128843   5.163   4.721  11.430  0.2070 -1.0415  0.0586
 2476TIP3    H228844   5.086   4.697  11.558 -1.0230  0.0272 -0.4726
 2477TIP3   OH228845   4.997   3.593   6.087  0.2281  0.0306 -0.3687
 2477TIP3    H128846   4.970   3.591   6.179 -0.2748  1.3157 -0.4813
 2477TIP3    H228847   5.001   3.501   6.061  1.4835 -0.3985  1.2541
 2478TIP3   OH228848   4.207   6.707  10.908  0.4120  0.0236 -0.4866
 2478TIP3    H128849   4.216   6.627  10.857 -0.7916 -0.3893 -0.0543
 2478TIP3    H228850   4.125   6.745  10.879  1.6567  1.8691 -1.7353
 2479TIP3   OH228851   1.501   5.552   1.978  0.3388 -0.0807  0.2911
 2479TIP3    H128852   1.581   5.601   1.959 -0.2344  0.9289  0.4017
 2479TIP3    H228853   1.483   5.503   1.898 -0.5246  1.9700 -0.8159
 2480TIP3   OH228854   1.216   4.872   5.142 -0.3155 -0.1412 -0.2929
 2480TIP3    H128855   1.160   4.885   5.218 -1.1130 -3.3647 -0.2751
 2480TIP3    H228856   1.173   4.804   5.091  1.8486 -0.2724 -2.0297
 2481TIP3   OH228857   3.986   5.874   1.608 -0.1668 -0.2107 -0.3192
 2481TIP3    H128858   3.968   5.901   1.698  0.2886  0.2431 -0.3618
 2481TIP3    H228859   4.082   5.872   1.602 -0.1872 -1.0166 -0.5647
 2482TIP3   OH228860   3.715   4.982  11.672 -0.6616 -0.6725 -0.3324
 2482TIP3    H128861   3.770   4.943  11.604 -1.2477 -1.2868 -0.4605
 2482TIP3    H228862   3.632   4.999  11.628 -0.4572  0.6350 -0.2517
 2483TIP3   OH228863   6.414   2.065   6.323 -0.0520 -0.5423  0.4202
 2483TIP3    H128864   6.393   2.157   6.339 -1.5311 -1.0022  1.2269
 2483TIP3    H228865   6.505   2.056   6.353  0.4766  0.8908 -0.6794
 2484TIP3   OH228866   4.826   1.125   3.105 -0.1044  0.5738 -0.1396
 2484TIP3    H128867   4.776   1.131   3.024  0.5783 -0.9957 -0.7075
 2484TIP3    H228868   4.889   1.197   3.100  0.9632 -0.4467 -1.7513
 2485TIP3   OH228869   6.157   4.445  14.174  0.1635  0.8255  0.4927
 2485TIP3    H128870   6.091   4.387  14.137 -0.9423  3.4022 -1.7395
 2485TIP3    H228871   6.162   4.419  14.266 -1.9158 -1.2724  0.0789
 2486TIP3   OH228872   2.451   0.952   1.962 -0.3245 -0.3179 -0.6296
 2486TIP3    H128873   2.367   0.931   1.921 -1.5267  3.1019 -0.0909
 2486TIP3    H228874   2.494   1.010   1.900  1.5341 -1.7786 -0.7409
 2487TIP3   OH228875   3.920   1.347   3.887  0.1566 -0.4484  0.1562
 2487TIP3    H128876   3.993   1.375   3.831  0.1959  0.6553  0.7469
 2487TIP3    H228877   3.953   1.358   3.977 -2.3055  4.6593  0.6035
 2488TIP3   OH228878   1.505   6.730  16.098  0.2864 -0.1425 -1.2064
 2488TIP3    H128879   1.511   6.769  16.010  1.4848  2.9072  0.1502
 2488TIP3    H228880   1.435   6.779  16.141 -0.3380 -1.6612 -0.4683
 2489TIP3   OH228881   0.530   1.741  10.669  0.7049 -1.0182  0.3511
 2489TIP3    H128882   0.574   1.819  10.702 -0.5422 -1.0027  2.0211
 2489TIP3    H228883   0.438   1.766  10.662  0.3910 -2.1507  0.3498
 2490TIP3   OH228884   5.678   3.263   5.213  0.0640  0.3646  0.1076
 2490TIP3    H128885   5.691   3.184   5.160  0.5409  0.7420 -0.3464
 2490TIP3    H228886   5.585   3.283   5.203 -0.1952 -0.4841  0.7213
 2491TIP3   OH228887   3.747   6.060  13.708 -0.3814 -0.1297 -0.3535
 2491TIP3    H128888   3.683   6.123  13.674  1.0708  1.0124 -1.0144
 2491TIP3    H228889   3.809   6.048  13.636 -0.7226 -2.4727 -0.2990
 2492TIP3   OH228890   1.789   6.195  14.894 -0.3783 -0.4595  0.3433
 2492TIP3    H128891   1.772   6.219  14.803 -0.1491 -0.1746  0.3745
 2492TIP3    H228892   1.702   6.188  14.934 -0.4233  2.0434  0.7694
 2493TIP3   OH228893   0.925   4.624  15.820  0.1174  0.4863  0.1345
 2493TIP3    H128894   0.833   4.618  15.846  0.7112  0.2860  2.3180
 2493TIP3    H228895   0.922   4.654  15.729 -2.1623 -2.8642 -1.0025
 2494TIP3   OH228896   0.020   0.922   4.983 -0.1258  0.0609 -0.4580
 2494TIP3    H128897   0.102   0.964   4.955  0.2404  0.4457  1.1065
 2494TIP3    H228898   0.040   0.828   4.982  0.0312  0.1011 -1.0272
 2495TIP3   OH228899   6.762   0.716  12.031  0.5259  0.0566 -0.0384
 2495TIP3    H128900   6.824   0.645  12.046  1.2264  0.6503 -0.0838
 2495TIP3    H228901   6.813   0.783  11.984  0.4725  1.5086  1.9143
 2496TIP3   OH228902   1.052   2.196   6.097  0.1767 -0.3982 -0.3461
 2496TIP3    H128903   1.128   2.188   6.039  1.2048 -0.2557  0.9644
 2496TIP3    H228904   0.998   2.121   6.075  1.6012 -1.5548  0.0008
 2497TIP3   OH228905   5.263   4.609  11.056  0.5425  0.0613 -0.1088
 2497TIP3    H128906   5.317   4.546  11.008  0.4562 -1.0270  1.2186
 2497TIP3    H228907   5.173   4.586  11.032  0.5771  0.7782 -0.9615
 2498TIP3   OH228908   6.554   3.770   0.020 -0.4018 -0.2355  0.2360
 2498TIP3    H128909   6.566   3.713   0.095 -1.6686 -1.3759 -0.4085
 2498TIP3    H228910   6.597   3.852   0.045  0.2540 -1.0118  1.7008
 2499TIP3   OH228911   2.623   1.917  13.755 -0.1580  0.4579 -0.4054
 2499TIP3    H128912   2.591   1.837  13.713  1.6430 -0.6572  0.2773
 2499TIP3    H228913   2.680   1.885  13.825 -0.1651  2.3389  0.4776
 2500TIP3   OH228914   3.075   6.267  17.012  0.3812  0.1576  0.8347
 2500TIP3    H128915   3.052   6.358  16.992 -0.5412  0.3728  2.7202
 2500TIP3    H228916   3.160   6.272  17.056  0.6072  0.0484  0.4117
 2501TIP3   OH228917   6.433   6.438   3.185 -0.5433 -0.0760 -0.6886
 2501TIP3    H128918   6.493   6.371   3.153 -2.3926 -1.8697 -0.4904
 2501TIP3    H228919   6.429   6.424   3.280  1.5085  2.3961 -0.1786
 2502TIP3   OH228920   3.148   4.818  16.338 -0.0528 -0.2277  0.4986
 2502TIP3    H128921   3.074   4.838  16.396  0.5626  0.3200  1.1020
 2502TIP3    H228922   3.111   4.823  16.250 -0.6563  0.4195  0.7795
 2503TIP3   OH228923   0.527   4.622   0.390 -0.2069  0.9830 -0.4887
 2503TIP3    H128924   0.482   4.667   0.319  2.2211  1.0969 -2.0048
 2503TIP3    H228925   0.558   4.692   0.447  1.4411  1.1490 -1.5512
 2504TIP3   OH228926   0.084   3.333  12.987 -0.3980 -0.3257  0.6803
 2504TIP3    H128927   0.054   3.416  13.024  0.4941  0.2954  0.0544
 2504TIP3    H228928   0.130   3.358  12.906 -0.8518 -1.5040  0.0450
 2505TIP3   OH228929   0.501   3.138   2.430  0.3908  0.2175 -0.1674
 2505TIP3    H128930   0.456   3.222   2.443  3.0587  1.5907  0.4770
 2505TIP3    H228931   0.515   3.105   2.518  0.4697 -0.2796 -0.3681
 2506TIP3   OH228932   4.150   5.677  15.573 -0.0970 -0.0354 -0.1373
 2506TIP3    H128933   4.228   5.690  15.627 -0.2396  0.3128 -0.0165
 2506TIP3    H228934   4.184   5.646  15.489 -0.0427 -3.9048  1.1927
 2507TIP3   OH228935   3.258   6.022   0.599  0.4096 -0.1042  0.0685
 2507TIP3    H128936   3.306   5.941   0.584 -0.2758 -0.3063 -1.1241
 2507TIP3    H228937   3.295   6.085   0.537 -0.1256  0.0482 -0.1015
 2508TIP3   OH228938   1.695   6.160   3.369 -0.2877  0.6272 -0.3574
 2508TIP3    H128939   1.653   6.074   3.367  0.2899  0.3512 -1.4404
 2508TIP3    H228940   1.713   6.180   3.277  1.7063  0.8328  0.0380
 2509TIP3   OH228941   5.859   3.056  11.738  0.2157  0.3550 -0.4093
 2509TIP3    H128942   5.952   3.047  11.718  0.4925 -0.8599  1.2669
 2509TIP3    H228943   5.813   3.024  11.660  1.2219 -2.3675  0.0603
 2510TIP3   OH228944   0.146   1.471  15.465 -0.3104 -0.4619 -0.6996
 2510TIP3    H128945   0.235   1.483  15.431 -0.0719 -0.4568 -0.0902
 2510TIP3    H228946   0.097   1.545  15.430 -0.1816 -0.7038 -1.3969
 2511TIP3   OH228947   0.161   2.184  12.052  0.1551 -0.2650  0.2867
 2511TIP3    H128948   0.232   2.126  12.023 -0.7591 -0.6625 -1.2269
 2511TIP3    H228949   0.101   2.126  12.099  1.1620  0.2035  2.1999
 2512TIP3   OH228950   0.106   3.604   0.481 -0.6785 -0.1863  0.3587
 2512TIP3    H128951   0.079   3.520   0.443 -0.5689 -0.3573  0.6604
 2512TIP3    H228952   0.105   3.589   0.575  0.6519 -0.2609  0.3721
 2513TIP3   OH228953   1.366   2.501  11.083 -0.8096  0.8117 -0.0804
 2513TIP3    H128954   1.386   2.517  11.175 -0.2218  1.6348 -0.3434
 2513TIP3    H228955   1.450   2.478  11.043 -1.3011 -1.0024 -0.1263
 2514TIP3   OH228956   4.999   1.402   0.411  0.0680  0.1565 -0.2269
 2514TIP3    H128957   4.939   1.449   0.353 -0.2374 -0.7270 -0.6300
 2514TIP3    H228958   5.020   1.321   0.364  1.4703  0.3877 -0.0333
 2515TIP3   OH228959   0.298   0.072  17.149  0.9511 -0.2259  0.4683
 2515TIP3    H128960   0.228   0.020  17.108  0.9335 -1.1645  1.6763
 2515TIP3    H228961   0.262   0.099  17.233  0.4570  2.9250 -0.6956
 2516TIP3   OH228962   2.875   3.657  10.558 -0.8626 -0.3598 -0.2044
 2516TIP3    H128963   2.875   3.584  10.497 -2.6996 -0.1908 -0.4431
 2516TIP3    H228964   2.857   3.734  10.504 -0.6341  0.0389  0.2806
 2517TIP3   OH228965   3.247   3.175   5.520  0.2550 -0.4468 -0.0741
 2517TIP3    H128966   3.168   3.164   5.573  0.2081 -0.4121 -0.1358
 2517TIP3    H228967   3.308   3.110   5.555  1.2278  1.4444  1.8757
 2518TIP3   OH228968   6.188   6.053   3.086 -0.0574  0.1810  0.4946
 2518TIP3    H128969   6.103   6.056   3.042  0.3303  1.3652 -0.1800
 2518TIP3    H228970   6.183   6.120   3.153 -0.4605 -1.2828  1.9754
 2519TIP3   OH228971   3.847   1.986  15.657 -0.6454  0.1049  0.5573
 2519TIP3    H128972   3.873   2.049  15.724 -0.2157  1.7656 -1.1415
 2519TIP3    H228973   3.855   1.901  15.700  1.3455  1.0165  2.0758
 2520TIP3   OH228974   0.870   4.146  12.076 -0.3517 -0.0573 -0.7645
 2520TIP3    H128975   0.876   4.179  11.986  0.2647  0.8377 -0.3913
 2520TIP3    H228976   0.827   4.061  12.067 -0.8052  0.2829 -1.8495
 2521TIP3   OH228977   0.134   5.930  14.049 -0.0633  0.0247 -0.0637
 2521TIP3    H128978   0.166   5.847  14.085 -1.3025  0.0282  1.1348
 2521TIP3    H228979   0.212   5.985  14.042  0.3037 -0.1016  2.3579
 2522TIP3   OH228980   6.040   3.326   3.449  0.1555  0.0499  0.3216
 2522TIP3    H128981   6.105   3.363   3.509 -1.2040  1.4949  0.9245
 2522TIP3    H228982   5.975   3.286   3.506  0.0355 -0.5887 -0.2625
 2523TIP3   OH228983   1.712   0.856  12.573 -0.6181  0.1277 -0.4516
 2523TIP3    H128984   1.648   0.828  12.639 -0.1241 -0.7745 -0.3493
 2523TIP3    H228985   1.661   0.910  12.512 -1.0542  1.0814  0.7204
 2524TIP3   OH228986   5.167   2.057  13.493 -0.2645 -0.3147  0.2200
 2524TIP3    H128987   5.093   2.010  13.455 -0.3559 -0.3366  0.4228
 2524TIP3    H228988   5.133   2.092  13.576 -0.0418 -0.3471  0.3261
 2525TIP3   OH228989   0.951   3.860   2.951 -0.1999 -0.1516 -0.7969
 2525TIP3    H128990   0.982   3.905   3.029 -1.2614  1.9494 -1.5512
 2525TIP3    H228991   1.028   3.812   2.919  0.7838  0.6058  0.4027
 2526TIP3   OH228992   5.283   1.637   3.765  0.2993  0.4526  0.8641
 2526TIP3    H128993   5.206   1.611   3.716 -0.8076  0.3439  2.6080
 2526TIP3    H228994   5.310   1.557   3.812  1.7028  0.3894  0.0106
 2527TIP3   OH228995   2.105   6.709   0.392  0.3962  0.0976 -0.2523
 2527TIP3    H128996   2.109   6.645   0.463  1.4127 -1.5520 -1.7295
 2527TIP3    H228997   2.038   6.674   0.332  1.9007 -0.3071 -1.7276
 2528TIP3   OH228998   3.024   2.119   5.887 -0.1575 -0.3719  0.1176
 2528TIP3    H128999   3.048   2.082   5.973 -1.1076  0.0798  0.5780
 2528TIP3    H229000   2.931   2.100   5.878 -0.4279  1.0589 -0.0825
 2529TIP3   OH229001   4.587   4.145  16.899 -0.0596  0.8787  0.6082
 2529TIP3    H129002   4.576   4.123  16.992  0.7784 -0.6504  0.3491
 2529TIP3    H229003   4.513   4.102  16.856  1.4401 -1.3016  0.1379
 2530TIP3   OH229004   6.687   6.280  13.702 -0.3504  0.1037  0.4561
 2530TIP3    H129005   6.618   6.257  13.640  0.3970  1.2865 -0.8598
 2530TIP3    H229006   6.652   6.255  13.788 -2.6222  1.1942 -0.1147
 2531TIP3   OH229007   5.561   2.668  10.222  0.2883  0.1311 -0.3897
 2531TIP3    H129008   5.488   2.638  10.276  0.8270 -0.4488  0.0146
 2531TIP3    H229009   5.537   2.758  10.198  0.1321  0.4614  0.9554
 2532TIP3   OH229010   2.513   3.199   4.559 -0.2335  0.6824  0.2508
 2532TIP3    H129011   2.592   3.158   4.526 -0.7442 -0.7689  0.7921
 2532TIP3    H229012   2.545   3.266   4.621  0.5651  0.2804  0.2788
 2533TIP3   OH229013   1.023   5.151   2.970 -0.1095 -0.3457 -0.2795
 2533TIP3    H129014   1.011   5.236   2.929  2.3952  0.2549  0.1458
 2533TIP3    H229015   1.048   5.171   3.061  2.1603 -1.4489 -0.6218
 2534TIP3   OH229016   1.605   2.183   2.308  0.3681  0.0241  0.0396
 2534TIP3    H129017   1.517   2.149   2.328 -0.7370  2.6214 -0.2347
 2534TIP3    H229018   1.658   2.105   2.296 -1.8556 -1.6104  0.4377
 2535TIP3   OH229019   4.629   5.113  14.372 -0.4441  0.1053 -0.2313
 2535TIP3    H129020   4.586   5.179  14.426 -0.2176  1.2845 -1.4425
 2535TIP3    H229021   4.604   5.136  14.282  2.5899  0.7654 -0.9612
 2536TIP3   OH229022   5.358   1.258  13.645  0.2204  0.1393 -0.4988
 2536TIP3    H129023   5.302   1.329  13.615  0.6069  0.8900  0.5107
 2536TIP3    H229024   5.366   1.272  13.739  0.1197 -1.3838 -0.2517
 2537TIP3   OH229025   5.073   3.470  13.707  0.2916 -0.3317  0.1613
 2537TIP3    H129026   5.095   3.489  13.798 -2.4074 -1.0102  1.0068
 2537TIP3    H229027   5.056   3.376  13.705 -2.5341  0.1350 -0.3454
 2538TIP3   OH229028   5.403   0.322  16.544 -0.0319  0.5437 -0.2977
 2538TIP3    H129029   5.354   0.239  16.549  0.5504  0.2528  0.5972
 2538TIP3    H229030   5.485   0.298  16.501 -0.5297  0.9712 -1.5020
 2539TIP3   OH229031   6.356   3.192  11.172 -0.5508 -0.1480 -0.2866
 2539TIP3    H129032   6.392   3.167  11.257 -0.7192  1.2953  0.2354
 2539TIP3    H229033   6.294   3.263  11.192 -0.1663  0.6025 -1.6701
 2540TIP3   OH229034   2.430   0.421  12.483  0.0163  0.2495 -0.0608
 2540TIP3    H129035   2.490   0.347  12.493 -2.3761 -1.6329  0.9319
 2540TIP3    H229036   2.465   0.489  12.540  0.0999 -1.5739  2.1136
 2541TIP3   OH229037   4.873   0.723   2.006 -0.1580  0.6562 -0.0458
 2541TIP3    H129038   4.784   0.746   1.978 -0.5896 -0.2106  0.6120
 2541TIP3    H229039   4.862   0.645   2.060  0.9436  0.8785  0.5122
 2542TIP3   OH229040   3.407   6.781  16.678  0.4740 -0.0710  0.4862
 2542TIP3    H129041   3.399   6.787  16.773  0.3881  1.0586  0.4141
 2542TIP3    H229042   3.414   6.872  16.649 -0.1615 -0.3812 -0.6446
 2543TIP3   OH229043   2.992   3.299  16.817  0.0424  0.1558  0.4729
 2543TIP3    H129044   3.074   3.285  16.769  0.5568  0.5138  1.2231
 2543TIP3    H229045   2.935   3.228  16.789  0.3887  0.2789 -0.5447
 2544TIP3   OH229046   0.232   2.296  13.990  0.4037  0.2148  0.2090
 2544TIP3    H129047   0.301   2.253  13.940  0.4266  0.6819 -0.1695
 2544TIP3    H229048   0.158   2.299  13.929 -0.1153 -0.7424  0.7782
 2545TIP3   OH229049   2.787   2.473   3.863 -0.4093 -0.4763  0.3010
 2545TIP3    H129050   2.765   2.406   3.798  1.1277 -0.7918  0.0716
 2545TIP3    H229051   2.762   2.435   3.946 -0.5228 -0.9109  0.0688
 2546TIP3   OH229052   3.900   3.412   1.483 -0.1651  0.5004  0.2015
 2546TIP3    H129053   3.978   3.373   1.522 -0.0741 -0.4790 -0.9067
 2546TIP3    H229054   3.829   3.353   1.508 -0.6171  1.5992  1.5319
 2547TIP3   OH229055   1.052   3.977   1.437 -0.5445  0.3646  0.1982
 2547TIP3    H129056   1.013   4.011   1.517 -0.7603  0.5806  0.0003
 2547TIP3    H229057   1.145   3.965   1.459 -0.9205 -1.2044  1.0158
 2548TIP3   OH229058   4.590   5.947   1.906  0.1270 -0.4794 -0.4320
 2548TIP3    H129059   4.618   5.997   1.829 -0.7361  0.0753 -0.3968
 2548TIP3    H229060   4.657   5.880   1.917  1.7598  1.2005  0.0225
 2549TIP3   OH229061   0.317   1.903  16.668  0.4427 -0.4962 -0.6727
 2549TIP3    H129062   0.345   1.986  16.630  1.9234 -0.7208 -0.1109
 2549TIP3    H229063   0.294   1.848  16.593 -1.4822  0.7447 -1.0026
 2550TIP3   OH229064   0.356   3.378  12.413 -0.0135 -0.2648  0.1645
 2550TIP3    H129065   0.432   3.320  12.416 -0.4784 -0.8550  0.8452
 2550TIP3    H229066   0.301   3.342  12.344 -0.5755 -0.9902  0.9819
 2551TIP3   OH229067   2.800   0.793   1.293 -0.2445  0.7070  0.5306
 2551TIP3    H129068   2.707   0.792   1.315 -0.1940 -1.6991  0.7933
 2551TIP3    H229069   2.812   0.716   1.237  1.2286  2.0797 -1.1069
 2552TIP3   OH229070   4.327   5.477  12.377  0.0686 -0.1040 -0.2707
 2552TIP3    H129071   4.381   5.412  12.422 -1.1705  0.0886  1.5510
 2552TIP3    H229072   4.384   5.553  12.366  0.6362 -0.4597  0.2387
 2553TIP3   OH229073   4.601   5.666   2.290  0.4094 -0.1095 -0.8247
 2553TIP3    H129074   4.694   5.646   2.293  0.2250 -0.9907 -0.9799
 2553TIP3    H229075   4.560   5.589   2.252 -0.6820 -0.8358  1.6771
 2554TIP3   OH229076   2.773   6.588  11.017  0.1913  0.0467 -0.5694
 2554TIP3    H129077   2.814   6.639  10.947 -1.9599  0.9654 -1.2182
 2554TIP3    H229078   2.679   6.589  10.995 -0.5565  0.4924  2.4134
 2555TIP3   OH229079   4.288   4.631  17.179  0.2898 -0.2965  0.4154
 2555TIP3    H129080   4.348   4.701  17.205  0.7348 -0.5698  0.1239
 2555TIP3    H229081   4.310   4.614  17.087  1.1396 -1.7898  0.8892
 2556TIP3   OH229082   4.129   6.476  12.912  0.2749  0.4989  0.2475
 2556TIP3    H129083   4.127   6.433  12.827  1.0201 -0.0944  0.5272
 2556TIP3    H229084   4.050   6.445  12.956  0.7321 -0.4849  0.3919
 2557TIP3   OH229085   6.339   6.482  16.536 -0.5522  0.0381  0.1123
 2557TIP3    H129086   6.352   6.569  16.496  0.2524 -0.6245 -1.1097
 2557TIP3    H229087   6.249   6.484  16.568 -1.9236 -0.0548 -3.5111
 2558TIP3   OH229088   2.118   3.052   0.566 -0.2147 -0.5027  0.7353
 2558TIP3    H129089   2.144   3.032   0.655 -0.5557 -1.3521  0.6433
 2558TIP3    H229090   2.022   3.047   0.566 -0.2703  0.4202  0.5445
 2559TIP3   OH229091   2.072   3.725   3.381  0.1032 -0.2824 -0.3464
 2559TIP3    H129092   2.128   3.663   3.427 -1.5851 -1.6149 -0.0507
 2559TIP3    H229093   2.111   3.811   3.400  1.3303 -1.0802  0.8322
 2560TIP3   OH229094   4.081   3.188  14.337 -0.0981  0.3905  0.4966
 2560TIP3    H129095   3.989   3.164  14.331  0.1511 -0.7964  1.3208
 2560TIP3    H229096   4.080   3.282  14.359 -1.0966  0.4021  0.4103
 2561TIP3   OH229097   2.692   2.681   5.871 -0.5117  0.2179 -0.3340
 2561TIP3    H129098   2.770   2.736   5.864 -0.5317 -0.0068 -2.7522
 2561TIP3    H229099   2.662   2.693   5.961  2.6218 -0.1573  0.8052
 2562TIP3   OH229100   4.134   5.670   2.395 -0.0409  0.4018  0.6888
 2562TIP3    H129101   4.071   5.610   2.354  0.6076  0.0005  0.2620
 2562TIP3    H229102   4.106   5.757   2.367  0.7015  0.0989 -1.0838
 2563TIP3   OH229103   4.946   3.957  12.144 -0.3995  0.1892 -0.1146
 2563TIP3    H129104   4.862   3.910  12.138 -0.1053 -0.5845  1.5204
 2563TIP3    H229105   4.922   4.045  12.172 -0.5989 -0.4430  1.8393
 2564TIP3   OH229106   4.727   0.351  13.204  0.3459 -0.3124 -0.2360
 2564TIP3    H129107   4.749   0.406  13.129 -1.5646 -0.8217 -1.2095
 2564TIP3    H229108   4.637   0.375  13.226  0.0113 -1.9359  0.2822
 2565TIP3   OH229109   5.062   1.173   6.464 -0.3475  0.1419  0.2072
 2565TIP3    H129110   5.055   1.242   6.399  0.1210 -0.7936 -0.8618
 2565TIP3    H229111   5.155   1.153   6.469 -0.2495  1.0062  2.0336
 2566TIP3   OH229112   2.060   2.224   6.460  0.0632  0.1656  0.0480
 2566TIP3    H129113   2.047   2.210   6.554  0.7551 -1.2163 -0.0419
 2566TIP3    H229114   2.123   2.156   6.435  1.7092  2.0249 -0.9489
 2567TIP3   OH229115   2.088   2.187  11.654 -0.0964 -0.2449 -0.0128
 2567TIP3    H129116   2.055   2.247  11.587  1.5909 -0.0785 -0.7171
 2567TIP3    H229117   2.036   2.207  11.732 -0.0999  1.5623 -0.4588
 2568TIP3   OH229118   4.920   3.433   2.830 -0.6221 -0.1363  0.1764
 2568TIP3    H129119   4.920   3.480   2.913  1.1666  2.3923 -1.2225
 2568TIP3    H229120   4.889   3.496   2.766  2.8835 -0.4513 -1.9285
 2569TIP3   OH229121   3.328   0.667  13.667  0.1570  0.4186  0.1113
 2569TIP3    H129122   3.335   0.727  13.741 -1.3593  0.9280 -0.1371
 2569TIP3    H229123   3.239   0.681  13.633  0.6912 -0.0760 -1.5595
 2570TIP3   OH229124   6.708   0.438   5.696 -0.6574  0.0557 -0.0146
 2570TIP3    H129125   6.745   0.393   5.620 -0.6203  0.8445 -0.4755
 2570TIP3    H229126   6.742   0.527   5.689 -2.7820  0.8533 -0.5461
 2571TIP3   OH229127   1.375   3.963   4.632  0.0451 -0.1743 -0.1378
 2571TIP3    H129128   1.460   4.000   4.657 -0.6242  0.9833  0.4415
 2571TIP3    H229129   1.337   4.029   4.574 -0.1989 -0.9786 -0.9102
 2572TIP3   OH229130   3.599   0.990   0.099  0.2190  0.2060 -0.2897
 2572TIP3    H129131   3.586   1.035   0.016  0.9066  2.4081  0.7573
 2572TIP3    H229132   3.592   1.059   0.165  2.3604 -1.0272  1.2964
 2573TIP3   OH229133   3.265   0.139  11.576 -0.0554 -0.3315 -0.1825
 2573TIP3    H129134   3.202   0.141  11.648  0.7395 -0.2912  0.5217
 2573TIP3    H229135   3.262   0.049  11.543 -0.3863 -0.3598 -0.0740
 2574TIP3   OH229136   3.447   5.517  12.675  0.1065 -0.0653 -0.1158
 2574TIP3    H129137   3.385   5.588  12.691 -1.7256 -1.5213 -0.6690
 2574TIP3    H229138   3.495   5.545  12.597 -2.7150 -0.7773 -2.1959
 2575TIP3   OH229139   0.383   4.482  17.025  0.1709 -0.1708  0.2895
 2575TIP3    H129140   0.330   4.559  17.003  0.2400 -0.5628 -1.3726
 2575TIP3    H229141   0.458   4.517  17.073 -0.5083  0.6322  0.7813
 2576TIP3   OH229142   6.564   1.356   2.136 -0.0265 -0.0903  0.1049
 2576TIP3    H129143   6.536   1.288   2.075 -2.3020  1.1949 -0.3577
 2576TIP3    H229144   6.611   1.419   2.082  0.1209 -0.1861  0.1226
 2577TIP3   OH229145   1.657   5.882   3.416  0.2321  0.5431  0.1742
 2577TIP3    H129146   1.729   5.835   3.373 -1.1590 -1.1212 -0.3869
 2577TIP3    H229147   1.695   5.913   3.498  1.7712  0.2409 -0.4032
 2578TIP3   OH229148   6.621   5.440   1.071  0.0415 -0.6407 -0.1834
 2578TIP3    H129149   6.692   5.436   1.135 -0.7093 -0.3033  0.6829
 2578TIP3    H229150   6.547   5.399   1.115 -0.5078 -0.3308 -0.8111
 2579TIP3   OH229151   0.739   1.181   5.448  0.2460 -0.4486 -0.4680
 2579TIP3    H129152   0.810   1.158   5.507 -0.5544 -2.5035 -0.2697
 2579TIP3    H229153   0.740   1.114   5.381 -1.8483 -0.8608 -0.1499
 2580TIP3   OH229154   1.196   2.508   5.792 -0.3461 -0.5141  0.9067
 2580TIP3    H129155   1.117   2.459   5.817 -0.2841 -0.4115  1.3117
 2580TIP3    H229156   1.260   2.486   5.860 -0.8761  1.5491  2.1406
 2581TIP3   OH229157   2.838   6.126  14.634 -0.3134  0.5645 -0.3415
 2581TIP3    H129158   2.874   6.053  14.685 -1.5976 -0.3214 -0.6581
 2581TIP3    H229159   2.751   6.095  14.608  0.1425  1.1502 -2.6877
 2582TIP3   OH229160   2.644   1.297   4.382  0.1506 -0.7200  0.3171
 2582TIP3    H129161   2.670   1.218   4.428  0.5214 -1.0956 -0.5357
 2582TIP3    H229162   2.556   1.279   4.350  0.0836 -0.6440  0.4605
 2583TIP3   OH229163   5.333   6.175   5.680 -0.4019 -0.0545  0.9454
 2583TIP3    H129164   5.402   6.239   5.699  1.7353 -2.5691  1.9518
 2583TIP3    H229165   5.375   6.090   5.691 -2.1885 -1.7427 -3.7740
 2584TIP3   OH229166   3.270   3.708  14.806  0.0354 -0.2065 -0.0362
 2584TIP3    H129167   3.224   3.657  14.872 -0.2841  0.5981  0.3651
 2584TIP3    H229168   3.252   3.799  14.828  0.7254  0.0918 -0.6564
 2585TIP3   OH229169   2.938   3.001   2.742  0.8664 -0.6165  0.7683
 2585TIP3    H129170   2.880   3.077   2.734  0.6648 -1.0089 -1.8511
 2585TIP3    H229171   2.889   2.939   2.795 -1.2572 -1.0157 -1.5556
 2586TIP3   OH229172   5.722   0.782   4.724  0.3625 -0.2497  0.6227
 2586TIP3    H129173   5.801   0.728   4.721  0.3276 -0.2998  0.5918
 2586TIP3    H229174   5.672   0.747   4.797  0.0356 -0.6852  0.1952
 2587TIP3   OH229175   1.800   5.557   4.035  0.5534  0.7357 -0.6152
 2587TIP3    H129176   1.892   5.578   4.051  0.4060  0.7058  0.2615
 2587TIP3    H229177   1.760   5.555   4.122  0.1017 -1.0087 -0.8470
 2588TIP3   OH229178   3.551   6.088   5.486  0.0405  0.3942  0.3997
 2588TIP3    H129179   3.622   6.095   5.422 -0.0258 -2.3769 -0.0407
 2588TIP3    H229180   3.590   6.043   5.561 -0.1260  2.8108  2.0025
 2589TIP3   OH229181   2.161   2.187   4.961  0.6158 -0.2616 -0.2784
 2589TIP3    H129182   2.131   2.219   5.046  0.8886 -0.6483 -0.0310
 2589TIP3    H229183   2.090   2.131   4.930  1.3197 -1.6608  0.5846
 2590TIP3   OH229184   5.471   2.084  12.821 -0.3591  0.5470  0.2634
 2590TIP3    H129185   5.554   2.048  12.851 -1.1125 -1.0379  0.5001
 2590TIP3    H229186   5.416   2.008  12.807 -0.5944  1.3242 -3.4998
 2591TIP3   OH229187   4.503   1.753  13.945  0.1677 -0.0624  0.2257
 2591TIP3    H129188   4.537   1.676  13.899 -0.0497 -0.1096  0.1471
 2591TIP3    H229189   4.529   1.739  14.037  1.0672  0.2879  0.0334
 2592TIP3   OH229190   2.704   2.171  13.975 -0.4488 -0.1960 -0.3729
 2592TIP3    H129191   2.656   2.098  14.013 -0.0951 -0.2829 -0.0864
 2592TIP3    H229192   2.740   2.136  13.893 -0.6089 -0.2255 -0.4310
 2593TIP3   OH229193   4.104   6.504  14.954 -0.3626 -0.3606 -0.4806
 2593TIP3    H129194   4.102   6.591  14.913 -1.2344  0.4451  1.2000
 2593TIP3    H229195   4.196   6.480  14.953  0.5315  2.4653  2.7263
 2594TIP3   OH229196   0.946   2.348  14.035  0.2224  0.3942 -0.1940
 2594TIP3    H129197   0.906   2.431  14.006  0.9561  1.1192  0.8228
 2594TIP3    H229198   1.039   2.361  14.020  0.2375 -0.6855 -1.0594
 2595TIP3   OH229199   6.604   6.688   1.576 -0.2454 -0.4563 -0.2115
 2595TIP3    H129200   6.517   6.724   1.596 -0.4576  0.1329 -2.1399
 2595TIP3    H229201   6.588   6.627   1.505  1.0428  0.2048 -1.0716
 2596TIP3   OH229202   5.102   6.535  12.208 -0.2650 -0.1780  0.1692
 2596TIP3    H129203   5.046   6.497  12.140  0.7928  0.0364 -0.8285
 2596TIP3    H229204   5.062   6.621  12.227 -0.8961 -0.4845  0.2575
 2597TIP3   OH229205   2.112   6.293  13.627  0.5594 -0.1231  0.0722
 2597TIP3    H129206   2.096   6.297  13.721  3.3291 -0.0097  0.5957
 2597TIP3    H229207   2.027   6.309  13.587  0.0097  3.6987  2.5360
 2598TIP3   OH229208   6.112   0.237   4.113 -0.4203  0.0104 -0.0806
 2598TIP3    H129209   6.046   0.306   4.121  1.7929  1.9105  3.1392
 2598TIP3    H229210   6.068   0.158   4.144 -1.5167  1.0386  1.0635
 2599TIP3   OH229211   3.605   6.114   1.302 -0.3705  0.2874 -0.0288
 2599TIP3    H129212   3.556   6.191   1.330 -2.0304 -0.3017 -1.2037
 2599TIP3    H229213   3.665   6.145   1.235  0.5461  0.9377  1.0832
 2600TIP3   OH229214   6.750   4.557   2.583  0.9513 -0.4574  0.1704
 2600TIP3    H129215   6.812   4.541   2.511  0.9681  0.5835 -0.0503
 2600TIP3    H229216   6.766   4.648   2.608  0.3437 -0.5581  0.9172
 2601TIP3   OH229217   2.044   0.538  15.265 -0.4197 -0.2168  0.0905
 2601TIP3    H129218   1.999   0.587  15.334  1.1261 -0.5713  1.3812
 2601TIP3    H229219   2.114   0.597  15.235  0.2531 -0.8872  0.3245
 2602TIP3   OH229220   4.887   6.319   2.373 -0.0702 -0.1647  0.2447
 2602TIP3    H129221   4.931   6.330   2.457 -0.3220  1.6938  0.1421
 2602TIP3    H229222   4.919   6.234   2.341  2.5757  0.6070  0.6993
 2603TIP3   OH229223   3.438   4.425   4.415  0.3098  0.1449 -0.4109
 2603TIP3    H129224   3.442   4.518   4.396  1.9295 -0.2698 -2.3721
 2603TIP3    H229225   3.348   4.399   4.396 -0.7458  1.6919  2.2778
 2604TIP3   OH229226   2.396   3.642   2.808  0.1136  0.5476 -0.2092
 2604TIP3    H129227   2.327   3.577   2.798  0.1443  0.6504 -1.1755
 2604TIP3    H229228   2.474   3.592   2.834 -0.1968  0.3712  0.3821
 2605TIP3   OH229229   0.491   0.120   2.087 -0.3016 -0.4711 -0.2370
 2605TIP3    H129230   0.454   0.172   2.158 -0.8379 -1.3476  0.1394
 2605TIP3    H229231   0.467   0.168   2.007 -1.4536 -0.5408  0.0610
 2606TIP3   OH229232   6.610   5.710   0.982 -0.3981 -0.5461  0.2368
 2606TIP3    H129233   6.588   5.640   1.043 -2.3165  0.2681  0.5261
 2606TIP3    H229234   6.610   5.790   1.035 -1.6549  0.1131 -0.7096
 2607TIP3   OH229235   3.927   6.559   4.726 -0.0250 -0.0287  0.5828
 2607TIP3    H129236   4.019   6.562   4.700 -0.2563  0.3990 -0.2027
 2607TIP3    H229237   3.914   6.470   4.758  0.8493  0.1331  1.4067
 2608TIP3   OH229238   6.617   4.210   5.775  0.3456  0.4483  0.2851
 2608TIP3    H129239   6.642   4.197   5.867  0.9168  1.2941  0.2524
 2608TIP3    H229240   6.700   4.226   5.730  0.0917 -0.2367 -0.4318
 2609TIP3   OH229241   5.990   0.618   1.461  0.5265 -0.4206 -0.2132
 2609TIP3    H129242   5.983   0.528   1.492  0.5816 -0.0785  0.8098
 2609TIP3    H229243   6.041   0.663   1.528  0.3346  0.4206 -0.6188
 2610TIP3   OH229244   3.011   5.560  13.587 -0.6949 -0.4567 -0.2983
 2610TIP3    H129245   3.052   5.591  13.667 -0.7242  0.7776 -0.7549
 2610TIP3    H229246   3.083   5.550  13.525 -0.8115 -0.2934 -0.4640
 2611TIP3   OH229247   3.497   6.317  12.539  0.5917  0.0014  0.5624
 2611TIP3    H129248   3.425   6.275  12.493  1.7774 -2.5582  0.9385
 2611TIP3    H229249   3.499   6.407  12.505 -1.0755 -0.6616 -1.3751
 2612TIP3   OH229250   5.738   1.718   5.582 -0.1120 -0.6154 -0.0557
 2612TIP3    H129251   5.764   1.642   5.530 -1.9890  0.4036 -2.6168
 2612TIP3    H229252   5.698   1.778   5.519 -1.1811  1.3237  2.3546
 2613TIP3   OH229253   5.646   2.297   1.272 -0.4303  0.1083  0.0935
 2613TIP3    H129254   5.603   2.328   1.192  0.0778 -0.7583 -0.5225
 2613TIP3    H229255   5.617   2.358   1.340 -0.8184  0.8869 -0.7608
 2614TIP3   OH229256   1.285   0.264  13.801 -0.2695 -0.3230  0.1737
 2614TIP3    H129257   1.376   0.253  13.829 -0.0699 -0.6039 -0.5457
 2614TIP3    H229258   1.256   0.345  13.842 -0.2648 -1.1497  1.8571
 2615TIP3   OH229259   6.023   4.786   2.021  0.5731  0.0198 -0.4232
 2615TIP3    H129260   6.028   4.697   2.056 -0.0820 -1.1216 -3.0681
 2615TIP3    H229261   5.930   4.808   2.022  0.7072  0.5930  0.0013
 2616TIP3   OH229262   1.546   1.277  13.810  0.4398 -0.0699  0.1538
 2616TIP3    H129263   1.612   1.209  13.796  0.2885 -0.5120  1.5641
 2616TIP3    H229264   1.571   1.320  13.892  0.1464  1.1373 -0.3667
 2617TIP3   OH229265   6.271   3.414  16.121  0.3202 -0.8315 -0.0472
 2617TIP3    H129266   6.280   3.508  16.101  1.0749 -1.0539 -0.7904
 2617TIP3    H229267   6.361   3.383  16.131  0.0098 -1.1182  1.9373
 2618TIP3   OH229268   3.551   2.948   3.759 -0.0445  0.1073 -0.2897
 2618TIP3    H129269   3.531   3.037   3.732 -1.9351 -0.6793 -1.6407
 2618TIP3    H229270   3.642   2.934   3.732 -1.0848  0.1980 -4.1971
 2619TIP3   OH229271   1.911   1.055   3.007  0.0500  0.5126  0.1225
 2619TIP3    H129272   1.951   0.979   3.048 -0.7576  1.1759  2.2371
 2619TIP3    H229273   1.819   1.030   2.994  0.1999  0.4714 -0.8648
 2620TIP3   OH229274   2.653   5.628   5.028 -0.6026  0.2925 -0.1578
 2620TIP3    H129275   2.617   5.710   4.994  0.4801  0.0063 -2.1140
 2620TIP3    H229276   2.748   5.637   5.015 -0.5695 -1.7466 -1.5164
 2621TIP3   OH229277   4.617   5.855   4.269  0.1447  0.2474 -0.1555
 2621TIP3    H129278   4.645   5.866   4.360  0.5445  1.5449 -0.4342
 2621TIP3    H229279   4.523   5.838   4.274 -0.5436  3.9114  0.2951
 2622TIP3   OH229280   0.239   0.600   6.577  0.5442  0.2382 -0.1559
 2622TIP3    H129281   0.194   0.535   6.522 -0.6659  0.2765  0.7749
 2622TIP3    H229282   0.310   0.551   6.618  0.1431 -0.3116 -0.0998
 2623TIP3   OH229283   1.572   1.480  11.504  0.3171 -0.0783 -0.0356
 2623TIP3    H129284   1.600   1.563  11.545  0.4756  0.8147 -1.9171
 2623TIP3    H229285   1.631   1.415  11.542  0.4232  0.7088  1.2101
 2624TIP3   OH229286   5.239   1.157   4.388  0.7066 -0.3363 -0.0547
 2624TIP3    H129287   5.269   1.174   4.478 -0.6525 -1.1115  0.5713
 2624TIP3    H229288   5.290   1.216   4.334  1.1667  0.5316  1.2969
 2625TIP3   OH229289   0.813   3.629  15.505  0.0301 -0.2129 -0.7984
 2625TIP3    H129290   0.898   3.619  15.549 -0.6583 -1.7187  0.2358
 2625TIP3    H229291   0.815   3.563  15.435 -1.7176 -2.8328  1.5484
 2626TIP3   OH229292   6.384   5.119  12.281 -0.0880  0.2566 -0.3653
 2626TIP3    H129293   6.446   5.076  12.341  3.4222  1.2973 -3.0510
 2626TIP3    H229294   6.410   5.088  12.194 -1.4543  3.0238 -1.8243
 2627TIP3   OH229295   2.659   2.969   4.269 -0.3419  0.4852 -0.0901
 2627TIP3    H129296   2.729   2.907   4.293 -1.0033 -0.1669  0.1643
 2627TIP3    H229297   2.672   2.983   4.175  0.3599  0.6537  0.0237
 2628TIP3   OH229298   2.699   6.564   5.707  0.3512 -0.2095 -0.2012
 2628TIP3    H129299   2.762   6.606   5.765 -0.7886  0.9634  0.2146
 2628TIP3    H229300   2.687   6.477   5.743 -0.1704  0.4289  1.2102
 2629TIP3   OH229301   4.345   5.799  14.840  0.5930 -0.5100  0.1193
 2629TIP3    H129302   4.393   5.779  14.920  0.8826  0.6048  0.2309
 2629TIP3    H229303   4.314   5.889  14.852  0.3145 -0.4700 -0.8592
 2630TIP3   OH229304   2.213   4.696   3.485  0.2533  0.2875 -0.4978
 2630TIP3    H129305   2.231   4.609   3.521 -0.4487  0.2785 -0.1658
 2630TIP3    H229306   2.118   4.705   3.490  0.0712  0.0007 -3.0638
 2631TIP3   OH229307   2.547   4.287   5.807 -0.0348 -1.3081  0.1327
 2631TIP3    H129308   2.643   4.292   5.799 -0.0850 -0.3062  0.1495
 2631TIP3    H229309   2.522   4.372   5.843 -0.7959 -2.0843  1.4698
 2632TIP3   OH229310   1.446   1.291   6.237 -0.0471  0.3094 -0.9563
 2632TIP3    H129311   1.526   1.292   6.289 -0.1362 -1.1991 -0.7699
 2632TIP3    H229312   1.414   1.201   6.244 -1.7821  0.9172 -0.9924
 2633TIP3   OH229313   3.226   5.861   6.355 -0.2613  0.1126  0.2731
 2633TIP3    H129314   3.257   5.930   6.414 -0.7669  0.1590  0.4845
 2633TIP3    H229315   3.132   5.878   6.345 -0.3872 -0.5379  0.3189
 2634TIP3   OH229316   0.595   1.502   0.491  0.0109 -0.2233  0.1058
 2634TIP3    H129317   0.690   1.504   0.485 -0.0433  0.0248 -0.6904
 2634TIP3    H229318   0.576   1.528   0.581  0.6993 -0.4572  0.3202
 2635TIP3   OH229319   1.358   5.974  11.273  0.3899  0.3395  0.3442
 2635TIP3    H129320   1.341   5.976  11.179 -1.9621  1.2845  0.7454
 2635TIP3    H229321   1.328   5.887  11.300 -2.0420  1.2341  0.6998
 2636TIP3   OH229322   6.551   2.348   4.801 -0.2705 -0.1125 -0.2064
 2636TIP3    H129323   6.515   2.264   4.774 -1.7456  0.0927  1.0558
 2636TIP3    H229324   6.646   2.333   4.804 -0.6277 -2.3963  2.0961
 2637TIP3   OH229325   2.537   5.893  14.861 -0.3156 -0.6891  0.4243
 2637TIP3    H129326   2.477   5.871  14.933 -0.1242 -1.2114  0.4323
 2637TIP3    H229327   2.576   5.976  14.887  1.0700 -1.7319  1.8018
 2638TIP3   OH229328   4.802   3.646  16.918 -0.0927 -0.0782 -0.4987
 2638TIP3    H129329   4.719   3.676  16.883  1.1819  3.3093 -0.8456
 2638TIP3    H229330   4.859   3.639  16.842  0.6811  0.2534  0.0412
 2639TIP3   OH229331   1.993   2.745  17.039 -0.3691 -0.3819  0.5439
 2639TIP3    H129332   2.065   2.750  16.976 -0.2538  0.6698  0.7542
 2639TIP3    H229333   1.989   2.832  17.078  0.4066 -1.3445  2.9098
 2640TIP3   OH229334   4.961   3.721   5.067  0.4411  0.7644  0.1406
 2640TIP3    H129335   5.018   3.646   5.082 -0.5732 -0.1260 -0.3488
 2640TIP3    H229336   4.983   3.751   4.979  3.1924  3.1520  1.5743
 2641TIP3   OH229337   3.316   4.785   4.083 -0.6224 -0.1119 -0.2356
 2641TIP3    H129338   3.229   4.762   4.116  0.5381 -1.1172  2.2781
 2641TIP3    H229339   3.335   4.871   4.122 -1.1712  0.9242 -2.1855
 2642TIP3   OH229340   6.659   0.151   0.480 -0.5397 -0.3109 -0.7190
 2642TIP3    H129341   6.636   0.059   0.490 -0.6087  0.0314  3.1066
 2642TIP3    H229342   6.576   0.195   0.464 -0.7627 -0.6716 -0.5519
 2643TIP3   OH229343   0.078   4.725  15.546  0.5101 -0.2332  0.3296
 2643TIP3    H129344   0.060   4.778  15.468  1.5327 -2.9150 -1.8197
 2643TIP3    H229345   0.135   4.780  15.600  1.0549  1.1118 -1.5468
 2644TIP3   OH229346   5.421   1.778   5.477 -0.1855  0.4055 -0.4684
 2644TIP3    H129347   5.382   1.855   5.516  0.2665 -0.7484  2.3865
 2644TIP3    H229348   5.515   1.798   5.474 -0.3847  1.1515 -2.5943
 2645TIP3   OH229349   3.983   4.844  12.036  0.2330 -0.4535 -0.4515
 2645TIP3    H129350   4.047   4.869  11.969  0.1102 -0.5569 -0.6059
 2645TIP3    H229351   3.899   4.871  12.001  0.2334  0.0361 -0.0669
 2646TIP3   OH229352   5.040   2.408  11.958  0.3852 -0.2240 -0.9194
 2646TIP3    H129353   4.991   2.416  11.877  0.7963 -0.6651 -1.2146
 2646TIP3    H229354   5.075   2.496  11.974  0.2572 -0.1239 -1.1839
 2647TIP3   OH229355   5.354   2.226   1.727  0.2682 -0.0332  0.1851
 2647TIP3    H129356   5.337   2.221   1.821 -2.0291 -0.9003 -0.2463
 2647TIP3    H229357   5.310   2.306   1.700 -1.0968 -1.0079 -0.5330
 2648TIP3   OH229358   1.644   4.259   2.381  0.0108 -0.3545  0.2881
 2648TIP3    H129359   1.579   4.324   2.407 -0.5009 -0.2497 -1.1676
 2648TIP3    H229360   1.592   4.187   2.345  0.6761 -0.3344 -0.7529
 2649TIP3   OH229361   0.208   5.418   0.030  0.1134  0.5210 -0.4335
 2649TIP3    H129362   0.128   5.379  -0.007  1.0979 -1.7428 -0.2915
 2649TIP3    H229363   0.251   5.460  -0.045 -1.1408  1.6616 -0.5285
 2650TIP3   OH229364   5.306   1.788  13.421  0.9008 -0.3767  0.0228
 2650TIP3    H129365   5.294   1.772  13.515  0.6840 -1.9733 -0.2550
 2650TIP3    H229366   5.323   1.882  13.414  0.0892 -0.0972  1.5851
 2651TIP3   OH229367   5.898   2.406  17.152 -0.0182  0.0076 -0.6800
 2651TIP3    H129368   5.838   2.479  17.169  0.9323  0.5428  0.4519
 2651TIP3    H229369   5.874   2.340  17.217 -0.7266 -0.6311 -1.5593
 2652TIP3   OH229370   3.305   3.301   4.565 -0.9060  0.1584 -0.2182
 2652TIP3    H129371   3.397   3.328   4.566 -1.9219  3.8762  1.6713
 2652TIP3    H229372   3.291   3.260   4.650 -1.1074 -0.1266 -0.3867
 2653TIP3   OH229373   0.191   5.581  13.535 -0.3121  0.3233 -0.2737
 2653TIP3    H129374   0.152   5.655  13.490  0.0579  0.0441 -1.0550
 2653TIP3    H229375   0.130   5.562  13.607 -1.0460  0.5787 -0.8262
 2654TIP3   OH229376   1.339   3.358  16.992  0.4125 -0.5407  0.0807
 2654TIP3    H129377   1.353   3.274  17.035 -1.7022 -1.4894 -0.9892
 2654TIP3    H229378   1.417   3.372  16.939  0.6111 -2.0290 -0.0342
 2655TIP3   OH229379   1.149   2.028  15.346  0.1185  0.1657 -0.8857
 2655TIP3    H129380   1.144   2.088  15.272 -3.1575  1.8285  0.6148
 2655TIP3    H229381   1.125   1.943  15.310 -2.0955  1.0820 -1.6440
 2656TIP3   OH229382   4.925   1.340   5.741 -0.0030  0.2876 -0.5464
 2656TIP3    H129383   4.972   1.378   5.667 -1.6258 -1.6622 -2.6627
 2656TIP3    H229384   4.918   1.411   5.805  2.6291  1.6134 -1.6731
 2657TIP3   OH229385   2.203   3.654  11.584 -0.1195  0.0864  0.3601
 2657TIP3    H129386   2.132   3.684  11.641 -0.0532  0.2237  0.3700
 2657TIP3    H229387   2.177   3.681  11.496 -0.0664  0.1586  0.3668
 2658TIP3   OH229388   3.105   0.593   4.143 -0.2415 -0.5589  0.2832
 2658TIP3    H129389   3.088   0.529   4.213 -0.9167  0.1319  0.7579
 2658TIP3    H229390   3.034   0.657   4.151  1.1058  0.9099  0.5562
 2659TIP3   OH229391   6.725   5.488  12.114 -0.5148  0.3328 -0.9141
 2659TIP3    H129392   6.794   5.554  12.107  0.0643 -0.1731 -0.1080
 2659TIP3    H229393   6.735   5.452  12.202 -0.2786 -1.4188 -1.6398
 2660TIP3   OH229394   4.686   2.871  12.462  0.0600 -0.4203  0.6320
 2660TIP3    H129395   4.611   2.906  12.510 -1.3168 -2.4150  0.0393
 2660TIP3    H229396   4.646   2.821  12.390  2.0032 -0.2034 -0.6401
 2661TIP3   OH229397   3.355   2.859  11.444  0.1062  0.8351 -1.1026
 2661TIP3    H129398   3.335   2.795  11.512  0.1585  1.7059 -0.2417
 2661TIP3    H229399   3.290   2.843  11.376  0.8331 -0.8712 -1.4135
 2662TIP3   OH229400   1.121   0.081   6.345  0.3661  0.2083 -0.5414
 2662TIP3    H129401   1.209   0.103   6.375  0.7768  0.6339 -1.9829
 2662TIP3    H229402   1.113  -0.013   6.361  0.1779  0.6089  1.7979
 2663TIP3   OH229403   1.726   2.277  12.771 -0.0626 -0.2329  0.6473
 2663TIP3    H129404   1.724   2.257  12.678  1.0660 -0.3516  0.6484
 2663TIP3    H229405   1.729   2.372  12.776 -1.2126 -0.1787  0.5923
 2664TIP3   OH229406   1.766   0.034   3.458  0.3967  0.2468  0.1041
 2664TIP3    H129407   1.753  -0.050   3.414 -0.1790 -0.2694  1.2505
 2664TIP3    H229408   1.858   0.055   3.442  0.3576 -0.2383 -0.8057
 2665TIP3   OH229409   3.099   6.395   3.166  0.1845  0.1721  0.5594
 2665TIP3    H129410   3.007   6.401   3.140  0.0359  0.6932  1.1777
 2665TIP3    H229411   3.147   6.383   3.085 -0.2269  2.1209 -0.0037
 2666TIP3   OH229412   5.121   3.877   0.491  0.6170  0.3582  0.1290
 2666TIP3    H129413   5.191   3.897   0.553  0.7149  1.5735 -0.3664
 2666TIP3    H229414   5.113   3.956   0.438 -1.5967  0.5062  0.6262
 2667TIP3   OH229415   4.305   1.958   4.843 -0.6155  0.9284 -0.0566
 2667TIP3    H129416   4.330   2.006   4.922 -0.4312 -0.0291  0.4727
 2667TIP3    H229417   4.343   1.871   4.854 -0.7988  0.7051 -1.0880
 2668TIP3   OH229418   0.235   4.199  15.597  0.1081  0.0468  0.0365
 2668TIP3    H129419   0.269   4.238  15.516  0.7005  1.6201  1.0135
 2668TIP3    H229420   0.157   4.251  15.617  0.4453  0.2068  0.9230
 2669TIP3   OH229421   5.803   5.452   5.627 -0.0158  0.3698 -0.3984
 2669TIP3    H129422   5.787   5.478   5.718 -0.5251 -0.7095 -0.1819
 2669TIP3    H229423   5.725   5.481   5.580 -0.8459 -1.2943 -0.0516
 2670TIP3   OH229424   4.849   6.447   5.465 -0.5190  0.3640  0.0307
 2670TIP3    H129425   4.851   6.528   5.414  0.2127 -1.0389 -2.2756
 2670TIP3    H229426   4.875   6.379   5.402  1.3303 -1.3235  2.5487
 2671TIP3   OH229427   5.649   4.603   5.148  0.0659 -0.8712  0.5282
 2671TIP3    H129428   5.630   4.672   5.212  0.4635 -1.5351  1.3702
 2671TIP3    H229429   5.563   4.565   5.129 -0.2736  0.4272 -0.6104
 2672TIP3   OH229430   4.192   0.907   3.632 -0.6662 -0.3137 -0.3099
 2672TIP3    H129431   4.123   0.852   3.669 -0.8927  0.1601 -0.0249
 2672TIP3    H229432   4.238   0.849   3.571 -1.0069 -0.7714 -0.1393
 2673TIP3   OH229433   4.429   2.070   6.003  0.0469 -0.4071 -0.1928
 2673TIP3    H129434   4.482   2.143   6.036 -0.9279  0.0119  0.4435
 2673TIP3    H229435   4.454   1.996   6.058 -0.0077 -0.2160  0.0909
 2674TIP3   OH229436   2.208   3.481   0.465  0.5294  0.1133 -0.8614
 2674TIP3    H129437   2.265   3.556   0.482 -1.1260  1.1446  0.2780
 2674TIP3    H229438   2.138   3.516   0.409  0.0802 -0.7229 -0.8355
 2675TIP3   OH229439   4.590   3.664  13.683 -0.5593  0.8531  0.5908
 2675TIP3    H129440   4.576   3.726  13.611  0.1385 -0.3162 -0.5784
 2675TIP3    H229441   4.685   3.656  13.689 -0.6504 -0.4735  0.3911
 2676TIP3   OH229442   2.396   3.414   3.971  0.0678  0.5693  0.4127
 2676TIP3    H129443   2.344   3.403   4.051 -0.5442 -0.1340 -0.0691
 2676TIP3    H229444   2.471   3.466   3.998 -0.9255  1.6655  1.1085
 2677TIP3   OH229445   2.145   1.094   4.745 -0.0088  0.4791 -0.1302
 2677TIP3    H129446   2.183   1.182   4.754 -0.2332  0.5395  0.2724
 2677TIP3    H229447   2.083   1.103   4.673 -1.9689  1.3553  1.5988
 2678TIP3   OH229448   4.371   3.499   5.733 -0.0044  0.1416  0.1152
 2678TIP3    H129449   4.307   3.450   5.681 -1.8530  0.1245  2.3696
 2678TIP3    H229450   4.430   3.431   5.767  0.9720  0.1135 -1.5299
 2679TIP3   OH229451   6.234   0.536  13.525 -0.1441  0.2294  0.1831
 2679TIP3    H129452   6.253   0.592  13.600 -0.1051 -0.5690  0.7817
 2679TIP3    H229453   6.297   0.563  13.459  0.9838 -0.2251  1.0458
 2680TIP3   OH229454   0.255   0.672   0.958 -0.0280  0.4951 -0.0151
 2680TIP3    H129455   0.188   0.614   0.995  0.1372 -0.2904 -0.9283
 2680TIP3    H229456   0.206   0.742   0.916 -0.2229  1.4490  1.7220
 2681TIP3   OH229457   1.944   1.629  12.209  0.4288  0.4826 -0.3516
 2681TIP3    H129458   1.863   1.600  12.166  0.0401  0.0191  0.6736
 2681TIP3    H229459   1.924   1.717  12.241  0.6511  0.7495 -0.9558
 2682TIP3   OH229460   1.647   0.121  15.122  0.5007  0.0062  0.5881
 2682TIP3    H129461   1.613   0.202  15.160  1.4591  1.5205 -1.7049
 2682TIP3    H229462   1.684   0.147  15.039 -0.8436 -3.1095 -1.0762
 2683TIP3   OH229463   2.595   2.177  17.047 -0.0089 -0.8432 -0.7830
 2683TIP3    H129464   2.585   2.087  17.079 -2.6877 -0.0708  0.7748
 2683TIP3    H229465   2.638   2.223  17.119  0.9274 -0.7535 -1.3909
 2684TIP3   OH229466   3.252   0.988   4.507 -0.0820  0.1442 -0.4309
 2684TIP3    H129467   3.271   0.898   4.533 -2.5328 -0.6585 -1.2198
 2684TIP3    H229468   3.162   1.002   4.535  0.2997  2.3991 -0.2427
 2685TIP3   OH229469   6.404   1.521   1.146 -0.1588  0.2767  0.0643
 2685TIP3    H129470   6.473   1.539   1.210 -0.6515 -0.2909  0.7663
 2685TIP3    H229471   6.449   1.480   1.073  0.0053 -1.8766  1.3183
 2686TIP3   OH229472   1.310   1.601   5.598  0.1328  0.1752 -0.0319
 2686TIP3    H129473   1.347   1.514   5.583 -0.0551 -0.0131  0.5804
 2686TIP3    H229474   1.286   1.602   5.690 -0.8311  0.5084 -0.2751
 2687TIP3   OH229475   6.620   1.621  10.981  0.0096  0.2244 -0.0487
 2687TIP3    H129476   6.675   1.622  11.059  0.1152  1.0200 -0.1268
 2687TIP3    H229477   6.530   1.625  11.014  0.0143 -0.5087  0.0618
 2688TIP3   OH229478   2.703   0.046   4.761 -0.5140 -0.1977 -0.2310
 2688TIP3    H129479   2.793   0.014   4.770 -0.7254 -0.9926 -0.9000
 2688TIP3    H229480   2.697   0.118   4.824  0.3035 -0.7455  0.4889
 2689TIP3   OH229481   2.692   6.175  11.603 -0.1396 -0.0229  0.1631
 2689TIP3    H129482   2.675   6.099  11.548  1.7061  1.1609 -2.0934
 2689TIP3    H229483   2.739   6.139  11.678  2.1856 -0.9019 -1.6697
 2690TIP3   OH229484   3.563   1.888  16.790  0.1100 -0.4826 -0.2569
 2690TIP3    H129485   3.641   1.934  16.819  0.5615 -1.9181  0.8735
 2690TIP3    H229486   3.595   1.804  16.758 -0.7633 -0.2864 -1.6975
 2691TIP3   OH229487   3.198   1.908  14.722 -0.4920 -0.0074  0.3478
 2691TIP3    H129488   3.246   1.955  14.654 -1.4258  0.8094  0.2442
 2691TIP3    H229489   3.184   1.973  14.791  0.5313 -0.8569  1.3687
 2692TIP3   OH229490   1.639   1.035  16.293  0.3164  0.2551  0.0507
 2692TIP3    H129491   1.595   0.952  16.311 -0.6716  0.9568  0.9874
 2692TIP3    H229492   1.629   1.048  16.199  1.1554 -1.0559 -0.2310
 2693TIP3   OH229493   1.915   3.050  11.583  0.0639 -0.1449  0.1311
 2693TIP3    H129494   1.938   3.143  11.594  1.6204 -0.4461 -0.4420
 2693TIP3    H229495   1.830   3.051  11.539  0.2946  1.0099 -0.3034
 2694TIP3   OH229496   3.808   6.112   5.314  0.2599  0.2534 -0.1784
 2694TIP3    H129497   3.898   6.134   5.289 -0.2876 -0.2460 -2.8059
 2694TIP3    H229498   3.788   6.034   5.263 -0.1704 -2.3890  3.8057
 2695TIP3   OH229499   4.148   5.915  11.139 -0.9626 -0.0320  0.8782
 2695TIP3    H129500   4.131   5.823  11.116 -1.2880  0.3740 -0.5561
 2695TIP3    H229501   4.223   5.940  11.086 -0.4119  0.3305  1.8089
 2696TIP3   OH229502   1.110   0.048   2.909  0.1432 -0.5834  0.0562
 2696TIP3    H129503   1.149   0.111   2.970  1.4849 -1.3672  0.0297
 2696TIP3    H229504   1.184   0.017   2.857 -0.6692 -1.4675 -0.5749
 2697TIP3   OH229505   1.513   4.454  13.141  0.4108 -0.3375 -0.0923
 2697TIP3    H129506   1.545   4.533  13.099  0.1480 -0.1366  0.0831
 2697TIP3    H229507   1.505   4.390  13.070  1.3746 -0.4479 -0.1100
 2698TIP3   OH229508   3.513   2.440  13.484 -0.4965  0.1969  0.2022
 2698TIP3    H129509   3.577   2.407  13.547  0.1511 -0.7362 -0.9346
 2698TIP3    H229510   3.553   2.519  13.448 -1.2169  1.1846  1.5334
 2699TIP3   OH229511   1.891   1.288  12.943 -0.7747 -0.3245  0.0598
 2699TIP3    H129512   1.837   1.317  13.017 -2.0173 -1.6918 -0.2794
 2699TIP3    H229513   1.830   1.243  12.885  0.5535 -1.0107 -0.8401
 2700TIP3   OH229514   3.365   1.652   1.249  0.3668  0.0098 -0.1943
 2700TIP3    H129515   3.446   1.676   1.293  0.3755  2.6597 -1.5357
 2700TIP3    H229516   3.300   1.648   1.319  1.6117 -2.1145  0.8894
 2701TIP3   OH229517   2.690   3.900  14.580  0.3196 -0.1619 -0.3671
 2701TIP3    H129518   2.709   3.939  14.665  1.2729 -0.2802 -0.5272
 2701TIP3    H229519   2.614   3.950  14.548 -1.1843 -1.2890  1.3291
 2702TIP3   OH229520   4.649   1.254   0.537  0.6693  0.0597  0.1533
 2702TIP3    H129521   4.674   1.231   0.626 -2.0448 -3.5563  0.1073
 2702TIP3    H229522   4.684   1.183   0.483  0.6326  1.2007 -1.4052
 2703TIP3   OH229523   3.843   0.395  11.133 -0.9117  0.3628  0.3785
 2703TIP3    H129524   3.823   0.432  11.219 -0.6848  0.5388  0.3558
 2703TIP3    H229525   3.786   0.318  11.126  0.3763 -0.7169  1.4484
 2704TIP3   OH229526   5.074   4.721  12.307  0.3900 -0.2064  0.1030
 2704TIP3    H129527   4.991   4.693  12.346  1.0192 -2.1626  0.1095
 2704TIP3    H229528   5.068   4.695  12.215  0.2293  1.4150 -0.3598
 2705TIP3   OH229529   5.998   6.190  17.183  0.6107 -0.8361  0.1954
 2705TIP3    H129530   6.010   6.120  17.118  0.4429  0.6564 -1.5065
 2705TIP3    H229531   5.928   6.244  17.146  1.9041  1.1882  0.6279
 2706TIP3   OH229532   1.750   0.627  13.655 -0.5594 -0.3661  0.2331
 2706TIP3    H129533   1.718   0.545  13.692 -1.4271 -0.3792 -0.5215
 2706TIP3    H229534   1.689   0.694  13.686 -0.9443 -0.2918 -0.6694
 2707TIP3   OH229535   3.692   2.976   4.065  0.0248  0.2699 -0.7850
 2707TIP3    H129536   3.624   2.944   4.124 -0.4465  1.6907 -0.5373
 2707TIP3    H229537   3.682   2.924   3.986  0.0508 -0.9982  0.0275
 2708TIP3   OH229538   0.028   3.837  12.494  0.2401  0.4038 -0.7627
 2708TIP3    H129539   0.091   3.817  12.424  0.0249  0.8328 -1.0817
 2708TIP3    H229540  -0.029   3.760  12.496  0.2718  0.3706 -1.0341
 2709TIP3   OH229541   5.338   6.293   4.656 -0.2127 -0.1289 -0.3250
 2709TIP3    H129542   5.423   6.250   4.667 -0.3066 -0.2167  0.0767
 2709TIP3    H229543   5.296   6.246   4.584 -0.4940 -0.9850  0.3980
 2710TIP3   OH229544   1.255   3.025   5.975 -0.3758  0.0061 -0.1492
 2710TIP3    H129545   1.335   2.974   5.988 -1.4591 -1.6528  0.2700
 2710TIP3    H229546   1.285   3.113   5.956  1.5446 -0.4252  0.7370
 2711TIP3   OH229547   4.727   1.300  14.150  1.0947  0.0736  0.5181
 2711TIP3    H129548   4.713   1.236  14.081  1.1823  0.6595 -0.0450
 2711TIP3    H229549   4.666   1.371  14.130  0.3323 -0.2400  1.6626
 2712TIP3   OH229550   3.694   4.494  13.283  0.1150 -0.0418  0.4029
 2712TIP3    H129551   3.682   4.535  13.369 -1.9895  0.8428 -0.2909
 2712TIP3    H229552   3.606   4.481  13.249  0.9203  2.4290 -2.9116
 2713TIP3   OH229553   4.420   3.659   2.883 -0.7623 -0.5164 -0.0838
 2713TIP3    H129554   4.474   3.599   2.935 -2.2157 -0.9044  1.0151
 2713TIP3    H229555   4.479   3.690   2.814  0.2691 -2.5196 -0.1464
 2714TIP3   OH229556   2.667   6.438  11.227  0.2419 -0.2434  0.1595
 2714TIP3    H129557   2.713   6.471  11.150  1.2118 -1.9168  0.0115
 2714TIP3    H229558   2.595   6.500  11.240 -1.8262 -1.6227 -3.9540
 2715TIP3   OH229559   3.267   3.933   2.855 -0.4528 -0.5298  0.1602
 2715TIP3    H129560   3.296   3.957   2.943 -1.3929  1.1957  0.0428
 2715TIP3    H229561   3.345   3.900   2.812  1.1930  3.0886  0.1409
 2716TIP3   OH229562   3.897   6.455  14.708  0.0792  0.4614 -0.4644
 2716TIP3    H129563   3.815   6.489  14.673  0.9793  1.5389 -1.5329
 2716TIP3    H229564   3.875   6.428  14.797 -1.2653  1.4426 -0.4827
 2717TIP3   OH229565   4.161   6.472   4.930  0.5490  0.0605  0.4882
 2717TIP3    H129566   4.183   6.555   4.973 -0.0188  0.4812 -0.0302
 2717TIP3    H229567   4.193   6.482   4.841 -0.9941  0.3559 -0.0443
 2718TIP3   OH229568   4.559   2.532  11.909 -0.1697 -0.2804 -0.3187
 2718TIP3    H129569   4.529   2.621  11.895  0.4255 -0.2751 -1.6888
 2718TIP3    H229570   4.538   2.486  11.827  2.2912 -0.5919 -0.8393
 2719TIP3   OH229571   4.888   0.902   6.003 -0.1042  0.2781 -0.3455
 2719TIP3    H129572   4.965   0.856   6.038  0.5889  0.7793 -1.1777
 2719TIP3    H229573   4.832   0.915   6.079  0.3620 -0.6312  0.1639
 2720TIP3   OH229574   4.548   1.952  11.217 -0.1854  0.6041 -0.4329
 2720TIP3    H129575   4.506   2.030  11.181  2.7202  1.6810 -1.5917
 2720TIP3    H229576   4.563   1.895  11.142  2.7293  1.3589 -0.4761
 2721TIP3   OH229577   4.160   1.774  12.114  0.0687 -0.3930 -0.1615
 2721TIP3    H129578   4.190   1.771  12.023  0.3390 -0.1289 -0.0818
 2721TIP3    H229579   4.103   1.852  12.117 -0.2921 -0.6540 -0.2109
 2722TIP3   OH229580   0.735   4.329   2.904  0.0817 -0.4999  0.1805
 2722TIP3    H129581   0.692   4.339   2.989  0.6056 -0.1896  0.4134
 2722TIP3    H229582   0.803   4.263   2.919  3.0270  2.5713  1.1368
 2723TIP3   OH229583   2.106   2.476  14.221 -0.1060  0.1070 -0.6777
 2723TIP3    H129584   2.113   2.539  14.149  0.9741  1.0639  0.2249
 2723TIP3    H229585   2.087   2.530  14.298  0.8882 -0.6582  0.1184
 2724TIP3   OH229586   5.625   5.022  11.772 -0.5461 -0.3771  0.2319
 2724TIP3    H129587   5.626   5.015  11.867  0.2270  1.2472  0.3723
 2724TIP3    H229588   5.717   5.027  11.747 -0.6700 -2.6447 -0.7823
 2725TIP3   OH229589   1.308   3.734  16.674  0.2072 -0.4058 -0.3783
 2725TIP3    H129590   1.368   3.742  16.749  0.1009  0.9045 -0.4207
 2725TIP3    H229591   1.365   3.734  16.597  0.0857  2.1404 -0.4870
 2726TIP3   OH229592   2.978   3.620   5.394 -0.4537  0.3187  0.0561
 2726TIP3    H129593   2.899   3.647   5.347 -0.0301  1.6476  0.0805
 2726TIP3    H229594   3.013   3.701   5.430  0.5248 -0.3647  0.6716
 2727TIP3   OH229595   2.732   4.642  12.790 -0.3449  0.2313 -0.0370
 2727TIP3    H129596   2.810   4.635  12.734  1.5805 -0.4073  2.6289
 2727TIP3    H229597   2.681   4.564  12.767  0.8977 -0.5554 -0.2425
 2728TIP3   OH229598   0.472   6.552   0.004  0.2326  0.0106  0.0602
 2728TIP3    H129599   0.443   6.566   0.095  1.0596 -0.8340  0.4650
 2728TIP3    H229600   0.431   6.623  -0.045 -0.4957  0.2885  1.0417
 2729TIP3   OH229601   5.748   0.490  12.475 -0.0371 -0.0017 -0.2926
 2729TIP3    H129602   5.756   0.444  12.391  1.1539 -0.4540  0.0534
 2729TIP3    H229603   5.838   0.518  12.495  0.0216 -1.5629  1.7556
 2730TIP3   OH229604   6.483   0.208   5.769  0.0465  0.3156 -0.0129
 2730TIP3    H129605   6.440   0.253   5.841 -2.4505  1.7645 -2.3106
 2730TIP3    H229606   6.524   0.132   5.809 -1.3883  1.0192  2.9002
 2731TIP3   OH229607   0.133   4.851  14.795  0.4391 -0.1231  0.5223
 2731TIP3    H129608   0.053   4.871  14.843  0.9137 -1.3300  1.8940
 2731TIP3    H229609   0.137   4.755  14.794  0.7118 -0.1109 -1.5188
 2732TIP3   OH229610   0.255   2.252  16.599 -0.0205  0.1346  0.0821
 2732TIP3    H129611   0.347   2.242  16.623  0.2718 -1.0562 -1.4397
 2732TIP3    H229612   0.257   2.296  16.514 -0.8401 -0.2689 -0.1537
 2733TIP3   OH229613   0.200   0.097  14.143 -0.1840  0.2780 -0.8584
 2733TIP3    H129614   0.168   0.019  14.187 -0.4129  0.2917 -0.9998
 2733TIP3    H229615   0.295   0.095  14.155 -0.6056  3.0378  4.2683
 2734TIP3   OH229616   0.247   3.847   0.377 -0.4688  0.1651 -0.2956
 2734TIP3    H129617   0.259   3.802   0.294 -2.8401 -1.4435  0.1948
 2734TIP3    H229618   0.213   3.780   0.436 -3.4114  2.4093  0.6649
 2735TIP3   OH229619   5.252   3.034  14.463  0.5503 -0.2614 -0.0703
 2735TIP3    H129620   5.232   3.084  14.384 -0.4839 -0.8891 -0.2098
 2735TIP3    H229621   5.234   3.094  14.535 -1.6541 -0.7249 -0.1981
 2736TIP3   OH229622   0.300   5.086   2.589  0.4078  0.0316 -0.9413
 2736TIP3    H129623   0.390   5.121   2.589  0.6633 -0.5240  1.6927
 2736TIP3    H229624   0.246   5.160   2.616  0.6251 -0.7831  1.8649
 2737TIP3   OH229625   5.467   1.120  12.124  0.5059  0.3138  0.3526
 2737TIP3    H129626   5.407   1.164  12.064 -1.4680 -0.4318  1.7226
 2737TIP3    H229627   5.467   1.176  12.202  0.1440 -0.6419  1.0508
 2738TIP3   OH229628   1.271   3.921   0.349 -0.5903 -0.2181  0.0899
 2738TIP3    H129629   1.181   3.921   0.382 -0.4681 -0.6619  0.4252
 2738TIP3    H229630   1.314   3.849   0.395  0.7573  1.7997  2.0902
 2739TIP3   OH229631   5.484   0.669  15.202  0.0106 -0.3432  0.2217
 2739TIP3    H129632   5.501   0.588  15.250  1.9126 -1.1095 -1.6680
 2739TIP3    H229633   5.540   0.734  15.244 -0.5347 -0.2995  0.8952
 2740TIP3   OH229634   1.079   0.891   4.094 -0.1443 -0.7557  0.0871
 2740TIP3    H129635   1.076   0.983   4.068  1.2744 -1.3440 -2.3146
 2740TIP3    H229636   1.059   0.891   4.188 -3.5718  1.6529 -0.5698
 2741TIP3   OH229637   4.537   3.659   0.231 -0.1691 -0.4800  0.1896
 2741TIP3    H129638   4.596   3.599   0.185  0.1677 -0.6841  0.8785
 2741TIP3    H229639   4.474   3.686   0.165  1.3106  0.5414 -0.8244
 2742TIP3   OH229640   2.220   2.441   0.131 -0.0307  0.8074  0.1203
 2742TIP3    H129641   2.207   2.529   0.095 -0.1919  0.4610 -0.6709
 2742TIP3    H229642   2.134   2.416   0.165 -0.5805 -0.0024 -1.8114
 2743TIP3   OH229643   2.511   1.914   5.641 -0.0026 -0.1769  0.1467
 2743TIP3    H129644   2.566   1.992   5.646 -1.7144  1.3590 -3.2014
 2743TIP3    H229645   2.558   1.854   5.583 -0.4995 -0.0356 -0.4062
 2744TIP3   OH229646   1.471   2.036  13.754  0.1376 -0.5596  0.4072
 2744TIP3    H129647   1.430   1.966  13.703  1.6179 -1.5224  0.4893
 2744TIP3    H229648   1.564   2.013  13.754  0.8051  1.9792 -0.4494
 2745TIP3   OH229649   0.967   3.664   0.869  0.0461 -0.4589 -0.4599
 2745TIP3    H129650   0.885   3.711   0.882  1.1244  1.5419 -0.7776
 2745TIP3    H229651   1.015   3.677   0.951  0.1325 -1.4751 -0.3413
 2746TIP3   OH229652   4.141   0.431  15.808  0.5620  0.3754 -0.0450
 2746TIP3    H129653   4.182   0.352  15.773 -1.9283 -1.2879  0.6359
 2746TIP3    H229654   4.108   0.478  15.732 -0.9468 -0.9995 -0.2683
 2747TIP3   OH229655   1.893   0.278  15.562  0.1961 -0.0702 -0.3004
 2747TIP3    H129656   1.918   0.246  15.475  0.8559 -0.5206  0.0539
 2747TIP3    H229657   1.963   0.339  15.586 -1.4694  2.3262 -1.3324
 2748TIP3   OH229658   0.483   4.540  14.320  0.2559  0.1648  0.0022
 2748TIP3    H129659   0.455   4.520  14.409  0.3984 -0.8711 -0.1738
 2748TIP3    H229660   0.562   4.487  14.307  0.4836  0.6340 -0.5913
 2749TIP3   OH229661   0.260   2.249  17.200  0.5693  0.0943  0.0463
 2749TIP3    H129662   0.190   2.305  17.233  0.6787  0.9316 -1.1013
 2749TIP3    H229663   0.338   2.278  17.248  0.0946 -1.0213  1.5155
 2750TIP3   OH229664   1.469   4.562   5.408  0.2609 -0.1027  0.2577
 2750TIP3    H129665   1.374   4.572   5.397  0.5462  1.7542 -0.6747
 2750TIP3    H229666   1.506   4.643   5.372  2.2562 -1.1935 -0.1986
 2751TIP3   OH229667   0.728   6.158   2.447 -0.2044  0.0693  0.1295
 2751TIP3    H129668   0.802   6.191   2.498  0.8679 -2.2557  0.1763
 2751TIP3    H229669   0.751   6.177   2.356  0.7453 -1.1364  0.1022
 2752TIP3   OH229670   4.348   3.363   1.983  0.0654 -0.8051 -0.0720
 2752TIP3    H129671   4.377   3.305   2.054 -1.5558 -2.1480 -0.4725
 2752TIP3    H229672   4.420   3.362   1.920  1.0911 -0.3983  1.0726
 2753TIP3   OH229673   1.923   2.705   3.636  0.5448  0.1782  0.3606
 2753TIP3    H129674   2.011   2.669   3.644  1.0449  0.6025 -2.6071
 2753TIP3    H229675   1.936   2.790   3.593 -1.1913  0.8643  1.1609
 2754TIP3   OH229676   3.443   1.898   0.478 -0.5318 -0.0803 -0.3178
 2754TIP3    H129677   3.521   1.897   0.532 -1.0100 -0.7787  0.3670
 2754TIP3    H229678   3.449   1.820   0.424  0.8259  1.5163 -2.5774
 2755TIP3   OH229679   1.942   6.343  13.868  0.1113  0.1431  1.0420
 2755TIP3    H129680   1.895   6.425  13.875  0.1253  0.2900 -0.4106
 2755TIP3    H229681   1.879   6.281  13.832  0.5997 -0.0323  0.4711
 2756TIP3   OH229682   6.125   5.604  11.822 -0.7396 -0.1560 -0.1781
 2756TIP3    H129683   6.197   5.662  11.849 -2.0962  0.5035  2.2132
 2756TIP3    H229684   6.057   5.619  11.888 -1.8004 -3.2214 -0.5122
 2757TIP3   OH229685   4.133   0.650   6.328 -0.0684  0.0270  0.0269
 2757TIP3    H129686   4.111   0.730   6.375  0.8714 -0.0028  0.5289
 2757TIP3    H229687   4.066   0.587   6.354 -1.6883  1.0533 -1.5138
 2758TIP3   OH229688   3.701   3.590   2.685 -0.4887 -0.4470  0.5695
 2758TIP3    H129689   3.618   3.631   2.706 -0.6765 -1.6320  2.2391
 2758TIP3    H229690   3.678   3.514   2.631 -0.4029 -0.2387  0.2353
 2759TIP3   OH229691   1.676   6.470   2.366 -0.5499 -0.6247  0.2788
 2759TIP3    H129692   1.700   6.418   2.443 -0.3134 -0.5984  0.2229
 2759TIP3    H229693   1.582   6.457   2.357 -0.8041  0.3731  1.3184
 2760TIP3   OH229694   5.180   4.860  16.502  0.0242  0.0255  0.1770
 2760TIP3    H129695   5.217   4.777  16.472  1.3389  0.7298 -0.1988
 2760TIP3    H229696   5.145   4.841  16.589  0.5038 -0.8655  0.1800
 2761TIP3   OH229697   2.894   0.809  14.898  0.2471 -0.1661  0.0869
 2761TIP3    H129698   2.799   0.818  14.908  0.2243 -0.6887  0.4045
 2761TIP3    H229699   2.929   0.893  14.926 -0.0593 -0.3473  1.0380
 2762TIP3   OH229700   5.673   2.651   0.604  0.1720 -0.5380 -0.0005
 2762TIP3    H129701   5.702   2.690   0.522 -0.9257 -2.3850 -1.2857
 2762TIP3    H229702   5.658   2.725   0.662  2.1463  0.7297 -1.0545
 2763TIP3   OH229703   5.625   3.967  11.360 -0.1971  0.1204 -0.2183
 2763TIP3    H129704   5.644   3.936  11.272  1.3914 -0.7753  0.4272
 2763TIP3    H229705   5.530   3.982  11.360 -0.5510 -1.8948 -1.4533
 2764TIP3   OH229706   6.746   3.356   1.105 -0.1940  0.5299  0.5768
 2764TIP3    H129707   6.819   3.411   1.132  0.0095  0.5416  0.0106
 2764TIP3    H229708   6.758   3.274   1.153  0.8517  0.0999 -0.3970
 2765TIP3   OH229709   6.462   6.698   1.893 -0.2704  0.0479  0.0073
 2765TIP3    H129710   6.377   6.674   1.857 -0.1942 -0.4858  0.1879
 2765TIP3    H229711   6.525   6.662   1.831 -0.1363 -0.9000  0.6818
 2766TIP3   OH229712   5.146   5.462  10.454 -0.2884  0.0935  0.1810
 2766TIP3    H129713   5.062   5.505  10.437 -0.1473  0.7755  1.1522
 2766TIP3    H229714   5.192   5.522  10.514  0.7909 -0.3858 -0.1589
 2767TIP3   OH229715   1.099   0.869  12.521 -0.1136 -0.3161  0.5159
 2767TIP3    H129716   1.043   0.935  12.562  0.7841 -0.4492  1.9910
 2767TIP3    H229717   1.125   0.907  12.437 -1.1429  0.3938  0.5220
 2768TIP3   OH229718   5.873   1.942  15.772 -0.1885  0.2337 -0.1891
 2768TIP3    H129719   5.869   1.848  15.790  1.0876  0.3218  0.6519
 2768TIP3    H229720   5.849   1.983  15.855  0.5849  0.6472 -0.1650
 2769TIP3   OH229721   4.635   6.435  15.830 -0.3248  0.3061  0.6223
 2769TIP3    H129722   4.646   6.521  15.790 -0.6609 -0.4597 -1.1442
 2769TIP3    H229723   4.543   6.434  15.858 -0.9428 -0.2666 -1.3189
 2770TIP3   OH229724   1.936   0.164   0.985 -0.2633  0.0273  0.0573
 2770TIP3    H129725   1.995   0.089   0.982  0.7558  0.7636  1.4511
 2770TIP3    H229726   1.984   0.235   0.943 -0.2573  0.5351  0.8980
 2771TIP3   OH229727   4.119   4.002   4.038 -0.0095  0.2827 -0.3519
 2771TIP3    H129728   4.067   3.922   4.047 -2.8178  2.0747  0.2078
 2771TIP3    H229729   4.162   4.013   4.122  2.0686 -1.7051 -1.1175
 2772TIP3   OH229730   2.979   1.320  14.502 -0.7018  0.5136 -0.1923
 2772TIP3    H129731   3.052   1.328  14.442 -0.6924  0.2553 -0.2131
 2772TIP3    H229732   2.922   1.394  14.480 -0.5166  0.6337 -0.2670
 2773TIP3   OH229733   3.902   1.559   4.385  0.3867 -0.8229 -0.2010
 2773TIP3    H129734   3.839   1.520   4.446  2.0879 -0.2356  2.0174
 2773TIP3    H229735   3.868   1.537   4.298 -1.8916 -2.0502  0.9383
 2774TIP3   OH229736   5.779   3.179  15.363 -0.1192 -0.0840 -0.0134
 2774TIP3    H129737   5.838   3.116  15.320 -0.1386 -0.3988  0.4131
 2774TIP3    H229738   5.712   3.198  15.298  1.1845  1.3036 -0.9937
 2775TIP3   OH229739   5.272   1.258  11.951  0.2875  0.0006  0.8251
 2775TIP3    H129740   5.347   1.308  11.917 -0.6998  1.6379  1.0002
 2775TIP3    H229741   5.223   1.232  11.873 -0.0308  0.6577  0.7993
 2776TIP3   OH229742   6.610   3.859   3.720  0.1021 -0.1121 -0.0765
 2776TIP3    H129743   6.683   3.797   3.728  1.7430  1.7247 -0.3025
 2776TIP3    H229744   6.622   3.919   3.793 -0.9063  0.4945 -0.4035
 2777TIP3   OH229745   1.143   3.458  11.058 -0.9850  0.0359 -0.1672
 2777TIP3    H129746   1.114   3.536  11.011 -1.4925  0.0935  0.2284
 2777TIP3    H229747   1.229   3.437  11.021  1.2267  3.3650  2.7669
 2778TIP3   OH229748   0.798   2.670  10.716  0.5551  0.2929 -0.7932
 2778TIP3    H129749   0.858   2.672  10.641 -0.8326 -1.2507 -2.0038
 2778TIP3    H229750   0.825   2.592  10.765 -0.2001 -0.1953 -1.1418
 2779TIP3   OH229751   0.257   4.438   1.077 -0.1226 -0.1935 -0.0410
 2779TIP3    H129752   0.221   4.402   1.158  0.5364 -0.3897  0.1724
 2779TIP3    H229753   0.341   4.476   1.104 -0.5295  0.9604 -0.3778
 2780TIP3   OH229754   1.439   1.979  17.128 -0.1267 -0.0389 -0.0462
 2780TIP3    H129755   1.355   1.934  17.117 -0.5035  0.5562  0.3970
 2780TIP3    H229756   1.461   1.966  17.220 -0.0988  0.4490  0.0147
 2781TIP3   OH229757   3.959   2.817  12.353  0.7087 -0.4167  0.7798
 2781TIP3    H129758   3.907   2.737  12.365 -0.8224  0.7601  2.3899
 2781TIP3    H229759   3.904   2.873  12.298  0.5507  0.5593  1.8927
 2782TIP3   OH229760   0.854   6.484  12.812  0.3080 -0.0825 -0.0610
 2782TIP3    H129761   0.783   6.547  12.806  0.9613  0.7902  1.0050
 2782TIP3    H229762   0.864   6.449  12.724  1.7477  3.3303 -1.3485
 2783TIP3   OH229763   1.086   2.093   5.543 -0.0902 -0.0864  0.1952
 2783TIP3    H129764   0.992   2.102   5.527 -0.3418  0.5030  1.8494
 2783TIP3    H229765   1.091   2.036   5.620  0.9002 -0.0407  0.1649
 2784TIP3   OH229766   6.564   5.943  16.230  0.1757 -0.9892 -0.2664
 2784TIP3    H129767   6.481   5.921  16.187 -0.0588 -0.4650 -0.0955
 2784TIP3    H229768   6.543   6.021  16.282  1.0506 -0.1763 -1.1069
 2785TIP3   OH229769   5.993   6.658  10.902  0.0909  0.0749  0.2483
 2785TIP3    H129770   6.044   6.635  10.825 -1.4942 -1.5698 -0.3410
 2785TIP3    H229771   5.915   6.603  10.897 -2.6575  3.7793  0.1670
 2786TIP3   OH229772   3.046   6.105   2.189 -0.7946 -0.5399  0.0893
 2786TIP3    H129773   3.059   6.150   2.272 -0.8584  0.1949 -0.2920
 2786TIP3    H229774   3.135   6.088   2.158 -0.7753 -1.8639  0.8651
 2787TIP3   OH229775   2.075   5.749  13.237 -0.1287  0.2471  0.3758
 2787TIP3    H129776   2.149   5.808  13.221 -0.2571  0.4751  0.6192
 2787TIP3    H229777   2.116   5.664  13.255 -0.0579 -1.0143 -5.0552
 2788TIP3   OH229778   4.186   4.571   4.031 -0.3081  0.0779 -0.0839
 2788TIP3    H129779   4.143   4.518   3.964 -0.9097  0.6479 -0.1498
 2788TIP3    H229780   4.195   4.658   3.991 -0.0042  0.2270  0.3023
 2789TIP3   OH229781   1.075   1.354   0.507  0.4293  0.6982  0.2162
 2789TIP3    H129782   1.013   1.296   0.551 -0.6573  1.3368 -0.4536
 2789TIP3    H229783   1.149   1.359   0.567  0.8239 -1.8521  0.0127
 2790TIP3   OH229784   3.301   4.174   3.222 -0.2293 -0.1001 -0.1193
 2790TIP3    H129785   3.272   4.093   3.263 -0.3402  0.0566  0.1141
 2790TIP3    H229786   3.352   4.146   3.146 -0.4456 -0.3844 -0.1606
 2791TIP3   OH229787   1.340   3.804  16.045  0.0385  0.0869 -0.2422
 2791TIP3    H129788   1.273   3.772  16.104 -0.4547  0.7502 -0.4338
 2791TIP3    H229789   1.410   3.738  16.049 -0.4742 -0.4309  0.2140
 2792TIP3   OH229790   0.170   2.599  16.067 -1.0009 -0.1211 -0.3986
 2792TIP3    H129791   0.154   2.506  16.079 -1.3280  0.0264  0.3421
 2792TIP3    H229792   0.246   2.603  16.008  0.2669 -0.8668  1.1468
 2793TIP3   OH229793   3.942   2.566   2.090  0.5975 -0.5621  0.8325
 2793TIP3    H129794   3.888   2.532   2.162 -2.7975  1.4841 -0.6311
 2793TIP3    H229795   3.937   2.661   2.099  1.1062 -0.3005 -1.4459
 2794TIP3   OH229796   2.496   2.655  12.418 -0.5398  0.1364 -0.7495
 2794TIP3    H129797   2.548   2.575  12.429  0.3143  0.6956 -0.7066
 2794TIP3    H229798   2.417   2.639  12.471 -0.6861 -0.9488 -1.2865
 2795TIP3   OH229799   6.349   4.695  13.824  0.0933  0.1738  0.5558
 2795TIP3    H129800   6.406   4.768  13.846  0.2710  0.3509 -0.4809
 2795TIP3    H229801   6.408   4.619  13.819 -0.2064 -0.2138  2.4435
 2796TIP3   OH229802   1.349   2.301  16.630 -0.1127 -0.2816  0.5109
 2796TIP3    H129803   1.309   2.214  16.634 -2.7958  0.8710 -0.1430
 2796TIP3    H229804   1.353   2.329  16.721 -0.4367 -0.5561  0.6109
 2797TIP3   OH229805   0.721   3.348   0.691  0.2386  0.3729 -0.0317
 2797TIP3    H129806   0.633   3.384   0.679 -0.0677 -0.0406  0.9449
 2797TIP3    H229807   0.779   3.423   0.686 -0.1473  0.6189 -0.9248
 2798TIP3   OH229808   2.374   5.035  12.999 -0.1527 -0.0238  0.8639
 2798TIP3    H129809   2.358   4.941  13.001  0.6498 -0.2062 -0.3197
 2798TIP3    H229810   2.364   5.064  13.090 -1.8444 -0.9913  1.0018
 2799TIP3   OH229811   5.043   3.473   3.643 -0.0209  0.6058 -0.2123
 2799TIP3    H129812   5.022   3.542   3.580 -1.7043 -0.4634 -0.8367
 2799TIP3    H229813   5.055   3.519   3.726  1.8574  1.9852 -1.2070
 2800TIP3   OH229814   2.424   6.115  12.633  0.3101  0.2526  0.7722
 2800TIP3    H129815   2.361   6.081  12.570 -1.3533  1.0431  1.9445
 2800TIP3    H229816   2.509   6.082  12.603 -0.5748 -0.3294 -1.1946
 2801TIP3   OH229817   5.499   0.218   3.034 -0.3416 -0.7087  0.1936
 2801TIP3    H129818   5.440   0.291   3.014  0.9444  0.0986 -0.6980
 2801TIP3    H229819   5.573   0.258   3.080 -0.4797 -1.7207  1.3219
 2802TIP3   OH229820   5.795   6.356   4.131  0.1084 -0.2836 -0.2177
 2802TIP3    H129821   5.703   6.340   4.151  0.4784 -1.4112  0.6429
 2802TIP3    H229822   5.802   6.451   4.119 -1.4359 -0.3526 -1.7239
 2803TIP3   OH229823   5.789   1.863   0.909  0.8936 -0.0652  0.0897
 2803TIP3    H129824   5.791   1.864   0.814  2.7132 -0.2342  0.0964
 2803TIP3    H229825   5.796   1.955   0.935 -0.6277  0.0643  0.0637
 2804TIP3   OH229826   6.209   6.514  17.079 -0.3668 -0.3373 -0.4520
 2804TIP3    H129827   6.143   6.464  17.031 -2.6277 -1.1466  3.3426
 2804TIP3    H229828   6.160   6.565  17.142  2.5314  0.3151  1.3801
 2805TIP3   OH229829   4.406   1.045  14.608 -0.1438  1.3097  0.0135
 2805TIP3    H129830   4.451   0.983  14.665 -2.1236  1.4788  1.8156
 2805TIP3    H229831   4.392   0.997  14.526 -0.7338 -0.2871  1.0277
 2806TIP3   OH229832   0.259   3.387  12.038 -0.2622 -0.0761  0.3073
 2806TIP3    H129833   0.166   3.397  12.017 -0.7427 -0.4504  2.1251
 2806TIP3    H229834   0.263   3.310  12.094  0.7994  1.3330  2.2593
 2807TIP3   OH229835   4.779   6.275   6.039 -0.3054 -0.5728  0.8816
 2807TIP3    H129836   4.752   6.260   5.949 -1.1075  1.6236  0.7450
 2807TIP3    H229837   4.740   6.202   6.088 -1.3078 -0.8227 -0.2678
 2808TIP3   OH229838   1.832   4.233   0.009 -1.0591 -0.5375  0.2423
 2808TIP3    H129839   1.760   4.275  -0.037 -0.4010 -1.1523 -1.3982
 2808TIP3    H229840   1.811   4.243   0.102 -2.2668  0.9844 -0.1799
 2809TIP3   OH229841   0.200   1.004   1.115  0.0271  0.5013 -0.2970
 2809TIP3    H129842   0.277   0.964   1.155 -1.6715 -0.5803  1.9927
 2809TIP3    H229843   0.215   0.996   1.021  0.5796 -3.9997  0.0523
 2810TIP3   OH229844   1.551   1.782   4.232  0.0088  0.2919 -0.0531
 2810TIP3    H129845   1.548   1.762   4.139  0.5913  2.4703 -0.5815
 2810TIP3    H229846   1.643   1.773   4.256 -0.4277 -2.1435  0.7748
 2811TIP3   OH229847   4.385   0.969  13.923  0.2192  0.0631 -0.1142
 2811TIP3    H129848   4.307   1.009  13.884 -0.7474 -0.1558  1.5519
 2811TIP3    H229849   4.430   1.042  13.967  0.7527  0.1188 -0.7501
 2812TIP3   OH229850   2.413   5.593   3.942 -0.2719 -0.5377  0.2757
 2812TIP3    H129851   2.463   5.532   3.995  0.2487 -0.4233 -0.0824
 2812TIP3    H229852   2.461   5.676   3.948  0.9801 -1.0542 -2.0811
 2813TIP3   OH229853   6.571   3.991  15.604 -0.7449 -0.1984 -0.6580
 2813TIP3    H129854   6.579   4.047  15.527 -0.5796 -1.0323 -1.2554
 2813TIP3    H229855   6.606   4.043  15.676 -1.9523  1.0226 -0.9306
 2814TIP3   OH229856   0.898   2.943  10.367 -0.1807 -0.0549  0.1186
 2814TIP3    H129857   0.857   2.988  10.292  0.3247  1.2226  0.5983
 2814TIP3    H229858   0.988   2.974  10.367  0.4004 -1.7151 -0.0208
 2815TIP3   OH229859   5.200   6.202  15.959 -0.1871 -0.8423 -0.2180
 2815TIP3    H129860   5.246   6.123  15.929  0.9525  0.1195 -1.0442
 2815TIP3    H229861   5.263   6.244  16.018 -0.5080 -0.1510 -0.3715
 2816TIP3   OH229862   5.385   1.856   0.738  0.2464  0.2761  0.1549
 2816TIP3    H129863   5.324   1.819   0.803 -0.9490  2.7364  0.4874
 2816TIP3    H229864   5.343   1.838   0.654  2.2686 -3.7898 -0.1019
 2817TIP3   OH229865   5.823   0.174   1.804  0.1710  0.7211 -0.2326
 2817TIP3    H129866   5.857   0.260   1.828 -0.2722  1.4652 -2.1889
 2817TIP3    H229867   5.899   0.129   1.766 -0.2812  1.3029 -1.8539
 2818TIP3   OH229868   0.843   5.146  17.144 -0.1752 -0.1055  0.4376
 2818TIP3    H129869   0.902   5.134  17.070 -0.6956 -1.3077  0.2059
 2818TIP3    H229870   0.901   5.164  17.219  0.4614 -0.7088  0.0991
 2819TIP3   OH229871   4.265   6.420   4.491 -0.8449 -0.3379  0.0910
 2819TIP3    H129872   4.210   6.479   4.543 -0.2935 -1.1412  1.6249
 2819TIP3    H229873   4.317   6.373   4.556 -1.7532 -2.9929 -1.0603
 2820TIP3   OH229874   4.259   0.224   4.816 -0.3398 -0.0178 -0.1018
 2820TIP3    H129875   4.289   0.134   4.831 -2.2296 -0.3870  1.6220
 2820TIP3    H229876   4.321   0.278   4.866 -0.4456 -0.5310  0.5969
 2821TIP3   OH229877   2.612   2.404  11.822 -0.0053 -0.1444 -0.2312
 2821TIP3    H129878   2.539   2.386  11.881  0.2670 -0.8840 -0.1107
 2821TIP3    H229879   2.621   2.325  11.769  1.3926 -0.5001  0.4963
 2822TIP3   OH229880   1.049   4.956   4.415  0.1280  0.0175  0.0846
 2822TIP3    H129881   1.122   4.992   4.366 -0.9366 -0.2349 -1.7258
 2822TIP3    H229882   1.089   4.916   4.492  1.7437  1.1019 -0.1682
 2823TIP3   OH229883   5.815   6.723   0.162  0.3347  0.0377 -0.0132
 2823TIP3    H129884   5.758   6.646   0.160 -0.5086  0.6680 -1.0793
 2823TIP3    H229885   5.802   6.760   0.249  0.3075 -0.6952  0.3041
 2824TIP3   OH229886   2.953   5.687   1.894 -0.0016  0.8839  0.0001
 2824TIP3    H129887   3.004   5.767   1.885  1.2187  0.1417  0.1452
 2824TIP3    H229888   2.934   5.680   1.987  2.2496 -0.4001  0.3882
 2825TIP3   OH229889   4.494   0.997  15.274 -0.0389  0.0795 -0.1897
 2825TIP3    H129890   4.462   1.084  15.251  2.3999  1.4796  1.4994
 2825TIP3    H229891   4.481   0.990  15.368 -0.3245 -1.4811 -0.3166
 2826TIP3   OH229892   2.951   5.387  11.103 -0.3889 -0.2763  0.3917
 2826TIP3    H129893   2.904   5.310  11.132 -0.2965 -1.1962 -1.7955
 2826TIP3    H229894   3.037   5.354  11.076 -1.2617  0.1250 -3.0805
 2827TIP3   OH229895   6.217   0.490   0.656 -0.6848  0.5714  0.0576
 2827TIP3    H129896   6.268   0.522   0.582  0.1745 -1.4924 -0.2752
 2827TIP3    H229897   6.201   0.568   0.710  1.1878  1.5647 -0.7944
 2828TIP3   OH229898   5.129   3.986   2.492  0.8578  0.4680 -0.1799
 2828TIP3    H129899   5.138   3.901   2.536 -1.7425  0.3069  0.1135
 2828TIP3    H229900   5.119   3.963   2.399  1.9546  0.5734 -0.3333
 2829TIP3   OH229901   5.969   5.583  12.653  0.3205 -0.1381 -0.2428
 2829TIP3    H129902   5.977   5.546  12.565  3.0467 -0.6576  0.1630
 2829TIP3    H229903   6.036   5.536  12.704 -1.5439 -0.1941  2.2284
 2830TIP3   OH229904   4.452   4.107  13.637 -0.1298 -0.0043 -0.0184
 2830TIP3    H129905   4.394   4.036  13.609 -0.3998  0.1969  0.0307
 2830TIP3    H229906   4.529   4.099  13.580 -0.4181  0.0305 -0.4125
 2831TIP3   OH229907   2.312   1.320  12.562  0.3253 -0.7551 -0.5140
 2831TIP3    H129908   2.274   1.258  12.625 -0.1555 -0.2952 -0.3502
 2831TIP3    H229909   2.341   1.394  12.616 -0.4764 -0.1691 -0.8783
 2832TIP3   OH229910   4.708   2.570  17.182  0.4953 -0.0483  0.0185
 2832TIP3    H129911   4.633   2.513  17.166  0.3351 -0.1172  0.9754
 2832TIP3    H229912   4.777   2.537  17.123  0.9413 -2.2650  1.7230
 2833TIP3   OH229913   2.978   6.457  13.651  0.3835  0.7776 -0.3741
 2833TIP3    H129914   2.969   6.553  13.648 -0.8123  0.6317 -2.6934
 2833TIP3    H229915   2.955   6.428  13.563 -0.4491 -1.7573  0.6207
 2834TIP3   OH229916   1.399   4.467   0.644 -0.2019  1.0501  0.0539
 2834TIP3    H129917   1.378   4.380   0.679  1.6369  0.0202 -1.3000
 2834TIP3    H229918   1.314   4.508   0.628 -1.1446 -1.1146 -0.7264
 2835TIP3   OH229919   2.345   1.404   2.233  0.7573  0.0088  0.0895
 2835TIP3    H129920   2.265   1.455   2.249  1.2530  0.1422  2.2898
 2835TIP3    H229921   2.328   1.359   2.151 -0.2353  2.6731 -1.2396
 2836TIP3   OH229922   6.005   2.694   1.299  0.1488 -0.0726 -0.3399
 2836TIP3    H129923   5.951   2.626   1.259  0.3723 -0.1809 -0.4642
 2836TIP3    H229924   5.944   2.761   1.327 -0.2912 -1.3038  1.7459
 2837TIP3   OH229925   1.931   5.489   2.115  0.2907 -0.1127  0.2183
 2837TIP3    H129926   1.866   5.521   2.053  1.0886  0.5986 -0.2634
 2837TIP3    H229927   2.002   5.455   2.060  0.2291 -1.1073  0.7338
 2838TIP3   OH229928   6.090   6.707   0.006 -0.1521  0.2225  0.4248
 2838TIP3    H129929   6.065   6.795   0.032 -0.2940  0.1433  0.5576
 2838TIP3    H229930   6.108   6.661   0.088  0.1031  0.1815  0.3469
 2839TIP3   OH229931   2.105   2.239   4.417  0.2841 -0.3576 -0.8542
 2839TIP3    H129932   2.192   2.231   4.377  0.2184  1.1710 -1.3433
 2839TIP3    H229933   2.122   2.269   4.506  0.2387  0.2274 -1.0443
 2840TIP3   OH229934   5.357   5.670   4.632 -0.6950 -0.3551  0.4665
 2840TIP3    H129935   5.452   5.673   4.644 -0.1564  1.3800 -3.3628
 2840TIP3    H229936   5.324   5.744   4.682 -0.1519 -1.4558  2.5020
 2841TIP3   OH229937   1.121   5.697  15.309  0.6328 -0.5129 -0.0288
 2841TIP3    H129938   1.082   5.611  15.325  0.6547 -0.1950  1.7861
 2841TIP3    H229939   1.215   5.681  15.313  0.6498 -0.5466 -0.5106
 2842TIP3   OH229940   4.865   1.662  13.849 -0.5059 -0.1863  0.3178
 2842TIP3    H129941   4.905   1.687  13.765  0.4770 -1.2631  0.4494
 2842TIP3    H229942   4.854   1.568  13.842 -2.1593 -0.0296  0.6816
 2843TIP3   OH229943   3.399   5.740  14.247  0.5910  0.7915 -0.9581
 2843TIP3    H129944   3.488   5.708  14.260  0.3266  0.3161 -0.2266
 2843TIP3    H229945   3.381   5.725  14.154  1.3082  0.9768 -1.1235
 2844TIP3   OH229946   6.184   5.711   1.149 -0.9413  0.8507 -0.1550
 2844TIP3    H129947   6.173   5.805   1.162 -0.6975  1.0073 -1.0808
 2844TIP3    H229948   6.203   5.677   1.237 -0.6925  1.7084  0.1280
 2845TIP3   OH229949   6.717   0.106   5.453  0.4016  0.3574 -0.6080
 2845TIP3    H129950   6.767   0.030   5.422 -0.8042 -0.3777 -0.7768
 2845TIP3    H229951   6.763   0.182   5.416  2.2142 -0.2243  0.4112
 2846TIP3   OH229952   2.635   2.713  14.726 -0.2558  0.6319  0.1665
 2846TIP3    H129953   2.587   2.631  14.717  0.1089  0.2549  1.5051
 2846TIP3    H229954   2.616   2.742  14.815  0.8653  1.2014  0.2310
 2847TIP3   OH229955   1.017   1.210  14.275  0.3858  0.0708 -0.1117
 2847TIP3    H129956   0.928   1.196  14.307  0.7852  1.0361  1.5438
 2847TIP3    H229957   1.012   1.293  14.226  0.4816  0.4516  0.5113
 2848TIP3   OH229958   6.669   3.729   2.054  0.2919 -0.0979  0.2997
 2848TIP3    H129959   6.709   3.660   2.000 -0.7339 -0.4217 -0.0600
 2848TIP3    H229960   6.675   3.808   2.000  0.9214 -0.0295  0.4653
 2849TIP3   OH229961   6.106   3.293  11.389  0.2436  0.2032  0.0785
 2849TIP3    H129962   6.100   3.295  11.485  0.2251 -1.0200  0.1027
 2849TIP3    H229963   6.015   3.286  11.360  0.2069  1.1471 -0.0509
 2850TIP3   OH229964   5.749   4.578   1.889  0.2590  0.5187  0.3146
 2850TIP3    H129965   5.831   4.547   1.849  0.5661  2.1761 -0.3742
 2850TIP3    H229966   5.744   4.530   1.973  1.0325 -0.8827 -0.4181
 2851TIP3   OH229967   1.730   0.010  12.599  0.3096 -0.1280 -0.5640
 2851TIP3    H129968   1.812  -0.038  12.615  0.8681  1.0173  0.0931
 2851TIP3    H229969   1.707  -0.011  12.509  1.1648 -0.7037 -0.6531
 2852TIP3   OH229970   4.835   4.939  16.065  0.1546  0.2321 -0.1493
 2852TIP3    H129971   4.905   4.991  16.106  0.2367 -0.2111  0.2818
 2852TIP3    H229972   4.882   4.878  16.008  0.1241 -0.0560  0.1306
 2853TIP3   OH229973   3.449   0.770  15.682 -0.2430  0.0061 -0.1802
 2853TIP3    H129974   3.523   0.735  15.632  1.3946  2.3749  0.5237
 2853TIP3    H229975   3.453   0.864  15.669 -1.2495  0.4489  2.4236
 2854TIP3   OH229976   3.523   4.004  11.782 -0.0780  0.0047  0.2122
 2854TIP3    H129977   3.556   4.067  11.846  2.0094 -1.3308  0.4737
 2854TIP3    H229978   3.599   3.953  11.756 -1.3906 -1.1920 -1.4082
 2855TIP3   OH229979   2.508   4.645   2.192 -0.0096  0.3625  0.3164
 2855TIP3    H129980   2.476   4.575   2.248 -0.3070  0.8237  0.7241
 2855TIP3    H229981   2.481   4.726   2.235  0.3609  0.7354 -0.1294
 2856TIP3   OH229982   6.016   6.468   5.803 -0.2716 -0.4408 -1.0263
 2856TIP3    H129983   6.086   6.428   5.751  1.9234 -0.3072  1.6745
 2856TIP3    H229984   6.003   6.407   5.876 -1.6812  0.4385 -0.5281
 2857TIP3   OH229985   0.937   1.629   1.514 -0.2113 -0.0117  0.3251
 2857TIP3    H129986   0.877   1.610   1.586 -0.9146  0.4134 -0.1381
 2857TIP3    H229987   1.024   1.626   1.553 -0.6299  0.8713  1.3373
 2858TIP3   OH229988   3.324   0.565  15.876 -0.2020  0.5722 -0.6647
 2858TIP3    H129989   3.400   0.507  15.883 -0.3998  0.0994 -2.0718
 2858TIP3    H229990   3.359   0.647  15.843  0.1333  1.4048  1.6969
 2859TIP3   OH229991   6.763   0.939  17.198  0.2961 -0.5970 -0.3551
 2859TIP3    H129992   6.775   0.983  17.283  1.5967  0.2261 -0.9454
 2859TIP3    H229993   6.786   1.006  17.134 -1.0977 -1.0870 -1.3877
 2860TIP3   OH229994   0.298   2.558   1.293  0.6244  0.4167 -0.0585
 2860TIP3    H129995   0.287   2.639   1.243  0.7429  0.0297 -0.7078
 2860TIP3    H229996   0.262   2.579   1.380  1.3635  1.4101  0.0209
 2861TIP3   OH229997   1.753   0.417   4.269  0.5740  0.0495 -0.1709
 2861TIP3    H129998   1.815   0.446   4.336 -0.1158  0.1453  0.4445
 2861TIP3    H229999   1.670   0.457   4.295  0.2736 -0.0013 -1.0327
 2862TIP3   OH230000   6.635   6.724  14.210  0.0351 -0.7530 -0.3594
 2862TIP3    H130001   6.661   6.710  14.120 -0.1239 -0.7241 -0.4099
 2862TIP3    H230002   6.569   6.656  14.227  1.5119 -2.0381  0.3538
 2863TIP3   OH230003   6.558   4.137  16.037  0.3383  0.1426 -0.9151
 2863TIP3    H130004   6.502   4.069  16.073  0.3932 -0.3923 -1.8304
 2863TIP3    H230005   6.497   4.208  16.015  0.2397  0.2530 -0.2983
 2864TIP3   OH230006   1.409   5.355   2.154  0.0012  0.2643 -0.3330
 2864TIP3    H130007   1.462   5.396   2.086 -0.4331  0.0938 -0.7819
 2864TIP3    H230008   1.472   5.322   2.218  0.5026 -1.0905 -1.5039
 2865TIP3   OH230009   5.612   5.805  16.565 -0.0693  0.0587 -0.0777
 2865TIP3    H130010   5.616   5.719  16.523 -0.9301 -1.0660  2.0856
 2865TIP3    H230011   5.687   5.806  16.625 -0.7010  0.3429  0.7271
 2866TIP3   OH230012   5.379   1.689  17.196 -0.9452 -0.5505  0.0142
 2866TIP3    H130013   5.360   1.615  17.140 -2.0211  0.3548 -0.8299
 2866TIP3    H230014   5.455   1.731  17.156 -0.7226 -0.8205  0.1470
 2867TIP3   OH230015   6.442   4.611  10.223 -0.4863 -0.6879  0.2002
 2867TIP3    H130016   6.489   4.554  10.285  2.0984  2.3498  1.1575
 2867TIP3    H230017   6.509   4.670  10.189 -2.7351  0.5981 -2.1771
 2868TIP3   OH230018   2.186   6.527  13.443 -0.4722  0.5100  0.6334
 2868TIP3    H130019   2.220   6.514  13.531 -0.0477 -0.0056  0.3917
 2868TIP3    H230020   2.130   6.605  13.450  1.8843  2.2322  0.7234
 2869TIP3   OH230021   5.971   1.761   0.584  0.5130  0.0979 -0.3876
 2869TIP3    H130022   5.918   1.705   0.641 -0.8396  1.6183 -0.1238
 2869TIP3    H230023   5.958   1.725   0.497 -0.4117  0.0261 -0.2289
 2870TIP3   OH230024   1.052   5.624  14.981  0.4755 -0.0061 -0.4592
 2870TIP3    H130025   1.140   5.649  14.952  1.2654 -1.5460  0.6000
 2870TIP3    H230026   1.065   5.546  15.034 -1.5650 -0.3682 -0.4618
 2871TIP3   OH230027   6.629   5.556  14.530 -0.8121  0.2334  0.3488
 2871TIP3    H130028   6.640   5.467  14.495 -0.4155  0.8242 -1.0806
 2871TIP3    H230029   6.582   5.543  14.612 -0.4952 -1.3267  0.3139
 2872TIP3   OH230030   2.679   0.648  15.255  0.2753  0.8578  0.6359
 2872TIP3    H130031   2.674   0.582  15.186 -1.6225 -0.7802  2.2829
 2872TIP3    H230032   2.612   0.712  15.232 -0.4832  0.2162  1.0573
 2873TIP3   OH230033   6.593   2.835  17.004  0.2555  0.7316  0.7561
 2873TIP3    H130034   6.548   2.807  17.084  1.3314 -2.8223  0.2131
 2873TIP3    H230035   6.676   2.871  17.034  0.3465  0.0792  1.2917
 2874TIP3   OH230036   3.975   4.930  12.451  0.0930 -0.2849  0.6256
 2874TIP3    H130037   3.928   4.937  12.534 -0.9315 -0.3010  0.0507
 2874TIP3    H230038   3.917   4.880  12.394  0.1760  0.9414 -0.5488
 2875TIP3   OH230039   2.349   4.559   4.637 -0.2032  0.4302  0.0903
 2875TIP3    H130040   2.297   4.483   4.663 -2.2781  2.2997  1.5789
 2875TIP3    H230041   2.385   4.592   4.719 -1.2116  2.3986 -0.2427
 2876TIP3   OH230042   0.241   3.867  13.603 -0.4494 -0.9004 -0.5331
 2876TIP3    H130043   0.208   3.918  13.530 -2.2110  0.5273  1.2394
 2876TIP3    H230044   0.289   3.930  13.657  1.7417 -2.1455 -0.9423
 2877TIP3   OH230045   6.171   3.409   3.996  0.3452 -0.2714 -0.4329
 2877TIP3    H130046   6.172   3.317   3.968 -0.3617  0.5845 -3.4910
 2877TIP3    H230047   6.091   3.445   3.958  0.6287  1.6212  0.6990
 2878TIP3   OH230048   2.939   2.160   0.915 -0.0411  0.4078 -0.1636
 2878TIP3    H130049   3.002   2.172   0.986  2.8840 -1.1261 -2.4075
 2878TIP3    H230050   2.870   2.106   0.953  2.6936 -2.4803  0.9156
 2879TIP3   OH230051   5.813   4.450  16.892  0.0387  0.2049  0.3785
 2879TIP3    H130052   5.718   4.442  16.901 -0.1271 -0.8689 -1.9417
 2879TIP3    H230053   5.831   4.543  16.907 -1.3933  0.4291  0.7556
 2880TIP3   OH230054   0.186   2.524   1.565 -1.1197  0.0395  0.2312
 2880TIP3    H130055   0.241   2.574   1.626 -0.8116 -0.7443  0.6043
 2880TIP3    H230056   0.168   2.442   1.611 -0.1119 -0.9522 -1.1160
 2881TIP3   OH230057   0.664   0.234   6.365 -0.0627  0.1065  0.0505
 2881TIP3    H130058   0.713   0.291   6.304 -0.4288  0.6304  0.2379
 2881TIP3    H230059   0.603   0.186   6.309  0.3496 -0.2112 -0.1282
 2882TIP3   OH230060   5.242   2.761   3.893 -0.2094  0.4238 -0.4606
 2882TIP3    H130061   5.263   2.798   3.807  0.7201 -0.0518 -0.4475
 2882TIP3    H230062   5.150   2.736   3.886 -0.0226 -0.0045 -1.4672
 2883TIP3   OH230063   1.623   3.619  13.210  0.3142  0.3079  0.3779
 2883TIP3    H130064   1.531   3.635  13.232  0.3902 -1.4293  2.0707
 2883TIP3    H230065   1.670   3.692  13.250 -0.3651  1.6262 -1.1481
 2884TIP3   OH230066   4.023   5.509   1.148  0.3306 -0.0799  0.0271
 2884TIP3    H130067   3.946   5.564   1.139  0.0946 -0.0063  2.2245
 2884TIP3    H230068   4.013   5.468   1.234  1.3778 -2.1827 -0.8226
 2885TIP3   OH230069   5.708   3.148  12.279 -0.7939  1.3209 -0.3743
 2885TIP3    H130070   5.723   3.191  12.195 -0.1375  0.0087 -0.9533
 2885TIP3    H230071   5.684   3.218  12.339 -2.4158  2.1458 -1.9363
 2886TIP3   OH230072   4.431   1.022   3.041  0.5703 -0.0553 -0.2126
 2886TIP3    H130073   4.490   0.964   2.994  0.3052  1.0925 -2.0045
 2886TIP3    H230074   4.489   1.079   3.092  0.8967 -0.7571  0.2006
 2887TIP3   OH230075   5.230   6.469  13.656 -0.0383 -0.3811  0.2042
 2887TIP3    H130076   5.267   6.552  13.685  1.7188 -0.6656 -1.1907
 2887TIP3    H230077   5.244   6.409  13.729  1.5320 -0.2669  0.0090
 2888TIP3   OH230078   3.006   6.636   3.521  0.5682 -0.1503  0.0249
 2888TIP3    H130079   2.920   6.593   3.519  0.7049 -0.4427  0.3291
 2888TIP3    H230080   3.048   6.601   3.600 -0.0923  2.0822  1.3939
 2889TIP3   OH230081   5.728   1.384  10.929  0.3155  0.6704  0.5390
 2889TIP3    H130082   5.643   1.412  10.961 -0.1964  0.7372 -0.8715
 2889TIP3    H230083   5.777   1.465  10.917  0.2443  0.6926  0.4033
 2890TIP3   OH230084   5.555   0.553  15.755 -0.3182 -0.2853 -0.3165
 2890TIP3    H130085   5.549   0.463  15.723 -3.4861 -0.7858  1.5396
 2890TIP3    H230086   5.598   0.546  15.840 -1.0092 -0.1100  0.0526
 2891TIP3   OH230087   2.737   3.944   2.059 -0.9459 -0.1445 -0.5797
 2891TIP3    H130088   2.804   4.005   2.029 -0.9862 -0.3296 -1.0377
 2891TIP3    H230089   2.687   3.994   2.124 -1.4999  0.5861 -1.5593
 2892TIP3   OH230090   6.030   4.106  12.666 -0.3491 -0.4299  0.5744
 2892TIP3    H130091   5.959   4.053  12.702  0.6767 -0.6308  2.3944
 2892TIP3    H230092   6.081   4.045  12.613 -1.3943 -0.3370 -0.5528
 2893TIP3   OH230093   3.219   4.029   5.322  0.5877 -0.4455  0.0242
 2893TIP3    H130094   3.248   4.033   5.413  0.1788 -0.2292  0.1469
 2893TIP3    H230095   3.133   4.071   5.322  1.5866  1.7164 -0.8811
 2894TIP3   OH230096   6.402   1.780   4.006  0.4114 -0.1223 -0.6040
 2894TIP3    H130097   6.315   1.788   3.967  0.3727  2.4220 -0.0741
 2894TIP3    H230098   6.462   1.784   3.932  0.1543 -0.4414 -0.8339
 2895TIP3   OH230099   5.231   6.772  13.848 -0.2247 -0.3769  0.2319
 2895TIP3    H130100   5.256   6.849  13.899  0.4088 -0.1361 -0.4364
 2895TIP3    H230101   5.140   6.789  13.823 -0.6243 -0.6160  1.4935
 2896TIP3   OH230102   2.081   3.938   4.803 -0.6217 -0.1309  0.2920
 2896TIP3    H130103   2.020   3.877   4.763 -1.3438  0.7127  0.0908
 2896TIP3    H230104   2.161   3.887   4.816 -0.6876 -0.6907 -1.3275
 2897TIP3   OH230105   6.186   3.035   0.638  0.2654  0.6139  0.2058
 2897TIP3    H130106   6.094   3.061   0.630  0.7266  1.8548 -1.3240
 2897TIP3    H230107   6.235   3.109   0.601  1.8473 -0.3676  0.2985
 2898TIP3   OH230108   2.945   0.229  12.960  0.4437  0.2217 -0.3100
 2898TIP3    H130109   3.015   0.271  13.010  0.8545 -0.3571 -0.4044
 2898TIP3    H230110   2.890   0.188  13.027  1.9398 -2.0273 -0.4092
 2899TIP3   OH230111   1.891   6.123  14.176 -0.6162  0.4665 -0.5801
 2899TIP3    H130112   1.911   6.122  14.082 -2.6032  0.6830 -1.0349
 2899TIP3    H230113   1.797   6.137  14.180 -0.5931  0.2110  1.4622
 2900TIP3   OH230114   5.420   5.117   4.032  0.1269 -0.2167  0.1687
 2900TIP3    H130115   5.513   5.098   4.017  0.0705 -0.7379  0.4415
 2900TIP3    H230116   5.412   5.118   4.127  0.1189  1.1731  0.1550
 2901TIP3   OH230117   3.089   6.020   4.965  0.0949 -0.3349 -0.8432
 2901TIP3    H130118   3.080   6.069   4.883  0.1027 -0.4152 -0.8915
 2901TIP3    H230119   3.035   6.068   5.028  2.3183  1.3845 -0.1687
 2902TIP3   OH230120   2.246   3.351  14.201  0.0633  0.1737 -0.0256
 2902TIP3    H130121   2.187   3.286  14.239  0.2897 -0.7807 -1.2446
 2902TIP3    H230122   2.327   3.303  14.184  0.2578  0.7883 -0.8927
 2903TIP3   OH230123   4.644   0.866   2.559 -0.4215 -0.4887 -0.0057
 2903TIP3    H130124   4.695   0.941   2.527 -0.3641 -1.2713 -1.8125
 2903TIP3    H230125   4.707   0.815   2.609  0.2342 -0.7188 -1.0461
 2904TIP3   OH230126   6.520   4.661  10.814  0.0646 -0.0776 -0.0032
 2904TIP3    H130127   6.460   4.728  10.848  0.8514  0.3053  0.6486
 2904TIP3    H230128   6.480   4.578  10.839 -0.6271  0.1484 -0.3227
 2905TIP3   OH230129   5.438   2.887  17.091  0.2282  0.3999  0.2970
 2905TIP3    H130130   5.529   2.886  17.122 -0.0974 -0.1086  1.2540
 2905TIP3    H230131   5.440   2.943  17.013  1.5761 -0.5906 -0.4030
 2906TIP3   OH230132   2.160   3.852  12.897  0.4762 -0.8341 -0.0943
 2906TIP3    H130133   2.076   3.899  12.898  0.5969 -0.6140  1.9756
 2906TIP3    H230134   2.142   3.772  12.847 -0.7299 -0.3502 -0.4615
 2907TIP3   OH230135   1.318   1.407   4.810  0.0768 -0.4874  0.0105
 2907TIP3    H130136   1.288   1.495   4.786 -1.2716 -0.8104  0.4500
 2907TIP3    H230137   1.395   1.392   4.755  0.3981  1.0169  0.0193
 2908TIP3   OH230138   2.139   0.476   2.519  0.1869 -0.2801  0.4261
 2908TIP3    H130139   2.112   0.409   2.582  0.4861  0.1369  0.9967
 2908TIP3    H230140   2.230   0.453   2.497 -0.7602 -2.0417 -1.9510
 2909TIP3   OH230141   0.626   6.164   1.530 -0.0412 -0.1301  0.2336
 2909TIP3    H130142   0.562   6.101   1.496  0.0207 -0.0378 -0.0566
 2909TIP3    H230143   0.700   6.157   1.471  1.2597 -2.0709  2.0333
 2910TIP3   OH230144   2.827   2.861   4.484 -0.3552 -0.3971  0.3645
 2910TIP3    H130145   2.784   2.793   4.536  0.1331 -3.5112 -3.1501
 2910TIP3    H230146   2.921   2.848   4.500 -0.3290  0.8564  1.3191
 2911TIP3   OH230147   1.213   1.635  13.427 -0.0504  0.0061  0.0762
 2911TIP3    H130148   1.159   1.698  13.379  1.4535  0.5544 -0.9067
 2911TIP3    H230149   1.154   1.561  13.444 -1.1303  0.6194 -0.9498
 2912TIP3   OH230150   4.384   1.533   2.352  0.2663 -0.1038 -0.2351
 2912TIP3    H130151   4.360   1.570   2.437  0.4071 -0.5893  0.0175
 2912TIP3    H230152   4.467   1.575   2.330 -0.1067  0.5268 -0.4524
 2913TIP3   OH230153   5.454   3.033  16.784  0.3174 -0.5531  0.0472
 2913TIP3    H130154   5.413   2.965  16.731  0.0332 -0.4906  0.1853
 2913TIP3    H230155   5.540   2.998  16.806 -0.0200 -1.0715  0.5303
 2914TIP3   OH230156   6.232   1.725   6.131 -0.5426  0.2679 -0.0802
 2914TIP3    H130157   6.195   1.787   6.193  0.9028  0.6181  0.4522
 2914TIP3    H230158   6.265   1.653   6.185  2.0566  1.2505 -0.2564
 2915TIP3   OH230159   3.328   3.067   5.849  0.2653 -0.1181  0.6333
 2915TIP3    H130160   3.283   3.129   5.906 -1.0060 -0.5060  0.0618
 2915TIP3    H230161   3.343   2.990   5.903  0.5062  0.1184  0.9051
 2916TIP3   OH230162   0.755   0.188  16.913 -0.5307  0.5852  0.1310
 2916TIP3    H130163   0.726   0.145  16.994 -2.2943  0.1615 -0.6981
 2916TIP3    H230164   0.773   0.278  16.939 -0.3947  0.2745  1.1374
 2917TIP3   OH230165   5.804   4.546   2.729 -0.0147 -0.2445  0.3213
 2917TIP3    H130166   5.833   4.620   2.784  0.4619  1.5412 -2.2371
 2917TIP3    H230167   5.883   4.493   2.717  0.2835  0.2696 -0.0149
 2918TIP3   OH230168   2.896   0.208   2.309 -0.0841 -0.3515 -0.7218
 2918TIP3    H130169   2.935   0.123   2.325  0.1709 -0.2277 -0.6775
 2918TIP3    H230170   2.953   0.270   2.354 -1.6209 -0.3663  1.2923
 2919TIP3   OH230171   1.134   1.792  14.227  0.1318  0.1912  0.3083
 2919TIP3    H130172   1.147   1.872  14.279 -1.7717  0.1728  0.8658
 2919TIP3    H230173   1.123   1.723  14.293  0.2918 -0.2752 -0.1556
 2920TIP3   OH230174   4.471   0.398  16.509  0.3667  0.1550 -0.2431
 2920TIP3    H130175   4.494   0.306  16.504  0.7452  0.2210  0.3044
 2920TIP3    H230176   4.451   0.423  16.419  1.8006 -0.0671 -0.6350
 2921TIP3   OH230177   2.495   2.309   2.122  0.0714 -0.2216  0.5927
 2921TIP3    H130178   2.551   2.337   2.050  0.3514 -0.6408  0.6459
 2921TIP3    H230179   2.542   2.336   2.201 -0.3695  0.4945  0.6206
 2922TIP3   OH230180   0.023   6.228  11.645 -0.0880  0.4703  0.2971
 2922TIP3    H130181   0.010   6.146  11.693 -2.2264 -0.1592 -1.2726
 2922TIP3    H230182   0.100   6.267  11.685  2.4625 -3.4695 -0.5098
 2923TIP3   OH230183   4.905   5.779   1.228  0.5467 -0.4044  0.0049
 2923TIP3    H130184   4.969   5.711   1.251  0.0078 -0.4042  1.5638
 2923TIP3    H230185   4.941   5.859   1.266 -0.0782 -0.2971  0.3772
 2924TIP3   OH230186   0.768   5.723   4.378  0.2727 -0.6318 -0.3205
 2924TIP3    H130187   0.736   5.663   4.311 -1.8786  0.5622 -0.4118
 2924TIP3    H230188   0.757   5.811   4.340  0.7783 -0.0307  0.8788
 2925TIP3   OH230189   4.116   0.349  13.873 -0.5548  0.7164  0.3804
 2925TIP3    H130190   4.094   0.289  13.802 -0.0016 -0.1609  0.9505
 2925TIP3    H230191   4.050   0.418  13.866  0.9344  1.9199 -2.4766
 2926TIP3   OH230192   5.004   2.581   3.212  0.6785  0.4852 -0.2104
 2926TIP3    H130193   5.047   2.517   3.269  0.7503  1.1029  0.4256
 2926TIP3    H230194   5.030   2.555   3.124  2.4138  0.8953  0.1705
 2927TIP3   OH230195   0.987   1.329  15.884 -0.0823  0.1676  0.0915
 2927TIP3    H130196   0.908   1.372  15.917  0.1794  0.1419  0.7581
 2927TIP3    H230197   0.954   1.258  15.829 -0.5321  1.4771 -1.3998
 2928TIP3   OH230198   4.042   4.530   4.295 -0.3969 -0.1906 -0.1508
 2928TIP3    H130199   4.062   4.508   4.204 -0.9932  1.0061 -0.5826
 2928TIP3    H230200   4.069   4.453   4.345 -0.4093 -1.0015 -1.3799
 2929TIP3   OH230201   4.404   1.010   0.968  0.4042  0.0214  0.4156
 2929TIP3    H130202   4.433   0.941   0.908 -1.3332 -0.9665  0.6908
 2929TIP3    H230203   4.360   0.963   1.039 -1.0718  1.4258  0.4540
 2930TIP3   OH230204   0.364   6.311   1.182  1.2059  0.7064  0.5255
 2930TIP3    H130205   0.302   6.253   1.138 -0.9012  0.5934  3.5267
 2930TIP3    H230206   0.364   6.390   1.128  0.8975 -0.4726 -1.2537
 2931TIP3   OH230207   0.365   2.645  11.961 -0.1542 -0.1974  0.0482
 2931TIP3    H130208   0.371   2.551  11.974  0.2309 -0.3305 -1.0547
 2931TIP3    H230209   0.410   2.661  11.878  1.8966  1.2383  1.3685
 2932TIP3   OH230210   0.566   1.609  15.759  0.2710 -0.3480  0.4131
 2932TIP3    H130211   0.561   1.606  15.664 -1.8051 -2.1806  0.5450
 2932TIP3    H230212   0.647   1.562  15.780  0.0562 -1.0946 -0.3889
 2933TIP3   OH230213   5.394   0.861  12.495 -0.1110  0.5523  0.3833
 2933TIP3    H130214   5.388   0.834  12.403  0.3062  0.2682  0.4336
 2933TIP3    H230215   5.458   0.800  12.533  1.2663  1.9748  0.3653
 2934TIP3   OH230216   5.949   4.846  13.881  0.3521 -0.0243  0.5880
 2934TIP3    H130217   6.000   4.774  13.919  0.5101  0.4938  1.3645
 2934TIP3    H230218   5.932   4.818  13.791  2.1384 -0.1464  0.2592
 2935TIP3   OH230219   0.160   2.468   4.360 -0.1321 -0.1735  0.1761
 2935TIP3    H130220   0.205   2.523   4.424  0.2375  1.9861 -1.8645
 2935TIP3    H230221   0.078   2.514   4.342  0.2262 -0.2086 -1.6306
 2936TIP3   OH230222   1.414   0.952   4.247  0.5001  0.2136  0.5026
 2936TIP3    H130223   1.487   0.891   4.245 -0.3068 -0.7767  1.0286
 2936TIP3    H230224   1.368   0.933   4.329 -2.1105 -1.2898 -1.2243
 2937TIP3   OH230225   0.881   2.104   2.425 -0.5346  0.3203 -1.0666
 2937TIP3    H130226   0.790   2.076   2.422 -1.2828  2.4749 -0.0659
 2937TIP3    H230227   0.882   2.187   2.377  0.3989  1.5326  0.9836
 2938TIP3   OH230228   2.023   2.773   3.976 -0.0753 -0.0782 -0.0605
 2938TIP3    H130229   1.959   2.703   3.986  0.6708 -0.8445 -0.6174
 2938TIP3    H230230   2.098   2.732   3.934  1.0597  0.6625  1.2094
 2939TIP3   OH230231   3.801   3.103  14.363  0.1108  0.2491  0.1787
 2939TIP3    H130232   3.750   3.184  14.356  0.4388  0.3553 -1.0911
 2939TIP3    H230233   3.780   3.055  14.283  0.3857 -0.6554  0.6483
 2940TIP3   OH230234   5.304   4.241  14.767  0.4685  0.0894 -0.7526
 2940TIP3    H130235   5.346   4.155  14.773  1.1609  0.3160 -2.1145
 2940TIP3    H230236   5.223   4.232  14.818 -0.1608 -1.7960 -2.0099
 2941TIP3   OH230237   1.564   5.819   1.259 -0.3272  0.7313 -0.0941
 2941TIP3    H130238   1.514   5.746   1.292 -0.0937  1.0976  1.0931
 2941TIP3    H230239   1.656   5.793   1.271 -0.2306  0.5551 -1.1563
 2942TIP3   OH230240   3.564   1.692   1.415 -0.3998 -0.2571 -0.0023
 2942TIP3    H130241   3.595   1.742   1.490  1.1127 -1.0870 -0.0547
 2942TIP3    H230242   3.523   1.615   1.454  1.3641 -1.2393 -0.0232
 2943TIP3   OH230243   5.170   3.080  12.186  0.3641  0.1553 -0.2001
 2943TIP3    H130244   5.097   3.034  12.146  0.7113 -0.0186 -0.6332
 2943TIP3    H230245   5.130   3.134  12.254 -0.0965 -0.4276 -0.0070
 2944TIP3   OH230246   2.684   5.892  14.613 -0.2015  0.6556 -0.0833
 2944TIP3    H130247   2.621   5.834  14.656 -0.7285 -1.0414 -2.9870
 2944TIP3    H230248   2.766   5.878  14.660 -0.0739 -3.2561 -1.2519
 2945TIP3   OH230249   0.668   4.524  11.675 -0.1922 -0.2903  0.2780
 2945TIP3    H130250   0.641   4.615  11.690 -2.8035 -0.8437 -0.6962
 2945TIP3    H230251   0.682   4.488  11.762 -1.0102  0.5443  0.7612
 2946TIP3   OH230252   0.331   2.543   5.088  0.0049  0.0227 -0.1087
 2946TIP3    H130253   0.329   2.499   5.173 -0.9199  0.9863  0.3730
 2946TIP3    H230254   0.380   2.623   5.104  1.6993 -0.8031 -0.9894
 2947TIP3   OH230255   5.591   2.019  12.462 -1.0329 -0.0566  0.4413
 2947TIP3    H130256   5.640   1.939  12.481  0.4929  1.1565  1.6746
 2947TIP3    H230257   5.499   1.990  12.460 -0.3293 -2.3353 -1.8817
 2948TIP3   OH230258   2.324   0.942  16.533  0.3931  0.1410 -0.2818
 2948TIP3    H130259   2.357   0.975  16.449 -0.6024 -0.4253 -0.8962
 2948TIP3    H230260   2.285   0.857  16.512  0.4555 -0.1700  0.8212
 2949TIP3   OH230261   1.120   0.368   1.336 -0.0304 -0.3995 -0.6584
 2949TIP3    H130262   1.044   0.414   1.300  0.2812  1.4032  0.8978
 2949TIP3    H230263   1.191   0.387   1.273 -0.2257  0.1762 -0.7106
 2950TIP3   OH230264   6.362   5.856   0.426  0.6062 -0.6438  0.7127
 2950TIP3    H130265   6.399   5.793   0.488  2.9676  1.2806  1.3248
 2950TIP3    H230266   6.335   5.930   0.481  1.0041  0.2889 -0.3303
 2951TIP3   OH230267   5.035   4.028  15.317  0.1194  0.8024 -0.2535
 2951TIP3    H130268   4.942   4.043  15.299  0.1151  0.2173 -0.7426
 2951TIP3    H230269   5.048   3.935  15.299  0.4772  0.5511  1.2689
 2952TIP3   OH230270   1.678   2.792   6.233 -0.0350 -0.6748  0.0176
 2952TIP3    H130271   1.753   2.739   6.207  1.1704  0.7509  0.5342
 2952TIP3    H230272   1.602   2.744   6.200  1.0560 -2.4700  0.0579
 2953TIP3   OH230273   4.815   0.076  13.517 -0.0918  0.3311  0.0570
 2953TIP3    H130274   4.758   0.083  13.594 -0.3408  0.8808 -0.1783
 2953TIP3    H230275   4.758   0.038  13.450 -0.3475  1.4258 -0.3514
 2954TIP3   OH230276   6.696   1.563   2.008 -1.3285  0.0650  0.0257
 2954TIP3    H130277   6.622   1.587   1.952 -0.2872  0.4805 -1.2033
 2954TIP3    H230278   6.772   1.605   1.967 -0.3882 -0.4364  1.2084
 2955TIP3   OH230279   2.423   0.494   2.194 -0.4360 -0.2204 -0.1136
 2955TIP3    H130280   2.476   0.540   2.130  0.2590 -0.6076  0.1871
 2955TIP3    H230281   2.485   0.441   2.244 -0.6931  1.4255  2.0533
 2956TIP3   OH230282   2.077   2.090  15.398 -0.5879  0.8790  0.1678
 2956TIP3    H130283   2.085   2.180  15.431 -0.8717  0.8411  0.3413
 2956TIP3    H230284   2.026   2.045  15.465  2.1634 -0.2144  1.6082
 2957TIP3   OH230285   6.029   6.534  15.481 -0.4684 -0.1373 -0.5071
 2957TIP3    H130286   6.125   6.532  15.484 -0.4534  0.6851 -0.4295
 2957TIP3    H230287   6.002   6.471  15.548  0.0168 -0.4927 -0.6429
 2958TIP3   OH230288   4.346   3.063   3.710 -0.2085  0.5091  0.5437
 2958TIP3    H130289   4.425   3.064   3.765  1.0744  2.0999 -1.2649
 2958TIP3    H230290   4.365   2.996   3.644  0.2902  1.9207 -0.7777
 2959TIP3   OH230291   1.625   1.112  11.176 -0.0606  0.4764  0.8594
 2959TIP3    H130292   1.652   1.100  11.267  0.2351  1.3035  0.8850
 2959TIP3    H230293   1.677   1.048  11.127 -0.6912 -0.4152  1.3467
 2960TIP3   OH230294   3.554   1.003   1.598 -0.2296 -0.1916 -0.5880
 2960TIP3    H130295   3.492   1.070   1.626 -0.1585  0.0645 -1.0509
 2960TIP3    H230296   3.507   0.920   1.612  0.2484 -0.1453  1.4464
 2961TIP3   OH230297   1.377   6.220   0.585  0.3027 -0.7220 -0.0167
 2961TIP3    H130298   1.282   6.235   0.579  0.1300 -1.3833  1.1221
 2961TIP3    H230299   1.415   6.301   0.551 -0.6641  0.0802  0.7910
 2962TIP3   OH230300   5.279   5.962   0.428  0.6464  0.0626 -0.6222
 2962TIP3    H130301   5.196   6.005   0.449  0.7188  0.1360 -0.4823
 2962TIP3    H230302   5.256   5.894   0.365  0.5274  0.2949 -0.8285
 2963TIP3   OH230303   4.141   5.636   1.409 -0.2173 -0.2757  0.3124
 2963TIP3    H130304   4.116   5.715   1.363 -1.6270 -0.7592  0.2200
 2963TIP3    H230305   4.068   5.576   1.396  1.7055 -2.3423 -1.3489
 2964TIP3   OH230306   0.311   1.913  13.894  0.1133  0.5305  0.1466
 2964TIP3    H130307   0.356   1.947  13.971  0.3202  0.8323 -0.1068
 2964TIP3    H230308   0.245   1.979  13.873 -0.1869  0.2759  0.2816
 2965TIP3   OH230309   4.589   1.573  16.965  0.4588  0.0536  0.0081
 2965TIP3    H130310   4.585   1.495  16.910  0.7029  0.3643 -0.4575
 2965TIP3    H230311   4.621   1.541  17.049 -0.6459 -0.5443  0.2094
 2966TIP3   OH230312   3.324   5.394  14.668  0.2537  0.4044 -0.0571
 2966TIP3    H130313   3.300   5.430  14.754  0.8011  0.3750  0.1082
 2966TIP3    H230314   3.249   5.415  14.612 -0.0599  0.5187  0.4011
 2967TIP3   OH230315   0.858   3.969  14.794 -0.1493 -1.0411  0.1380
 2967TIP3    H130316   0.799   3.981  14.869  0.4163  1.7865  0.1868
 2967TIP3    H230317   0.946   3.978  14.831  0.1686 -0.6046 -0.7065
 2968TIP3   OH230318   4.459   5.007   4.407 -0.2171  0.5992  0.5677
 2968TIP3    H130319   4.499   5.093   4.422  1.5465 -0.6046  3.2292
 2968TIP3    H230320   4.395   4.998   4.477  1.8853 -1.5223  2.3139
 2969TIP3   OH230321   5.991   3.075   4.046 -0.0340  0.2676 -0.2715
 2969TIP3    H130322   5.948   3.050   4.128 -1.1594  0.1412 -0.8969
 2969TIP3    H230323   6.083   3.087   4.070 -0.2176 -0.5301  0.8498
 2970TIP3   OH230324   6.139   3.933  14.769  0.3841  0.5643  0.0384
 2970TIP3    H130325   6.211   3.879  14.739  0.4292  0.2286  0.7569
 2970TIP3    H230326   6.074   3.928  14.699  0.6256  0.0423 -0.1436
 2971TIP3   OH230327   1.612   4.877   3.160  0.1443 -0.4096 -0.2561
 2971TIP3    H130328   1.664   4.798   3.146 -1.1668 -1.4589  0.6084
 2971TIP3    H230329   1.671   4.949   3.139  1.0458 -1.6485 -2.0578
 2972TIP3   OH230330   4.660   1.986   6.429 -0.2239  0.1398  0.2347
 2972TIP3    H130331   4.666   2.080   6.414  2.7041 -0.1452 -0.5722
 2972TIP3    H230332   4.737   1.964   6.481 -0.6407 -1.8869  0.0578
 2973TIP3   OH230333   0.542   1.910   3.607  0.3183  0.0567  0.4570
 2973TIP3    H130334   0.468   1.854   3.584 -0.5436  1.0307  0.7970
 2973TIP3    H230335   0.521   1.942   3.694 -0.0325  2.2386 -0.4002
 2974TIP3   OH230336   6.695   1.056  11.935 -0.1152  0.1456  0.3103
 2974TIP3    H130337   6.702   1.112  11.858  1.2802  1.3063  1.2463
 2974TIP3    H230338   6.718   0.969  11.904  0.6544  0.6435 -0.5447
 2975TIP3   OH230339   1.315   2.083   4.141  0.7150 -0.2949  0.6330
 2975TIP3    H130340   1.335   2.154   4.081 -1.5005  0.2892  0.5284
 2975TIP3    H230341   1.390   2.079   4.200  1.7723  0.7804 -0.6120
 2976TIP3   OH230342   0.059   1.952   3.043  0.2733 -0.6441 -0.1505
 2976TIP3    H130343   0.043   1.859   3.056  0.3323 -0.8496 -1.4893
 2976TIP3    H230344   0.015   1.995   3.116 -1.4545 -1.5914 -0.6098
 2977TIP3   OH230345   1.303   5.726  17.073 -0.4469 -0.4927  0.1599
 2977TIP3    H130346   1.251   5.666  17.020  0.1046 -0.3740 -0.5259
 2977TIP3    H230347   1.238   5.779  17.120 -0.9938  0.6816 -1.8449
 2978TIP3   OH230348   1.143   2.069   0.082  0.2138 -0.1417 -0.0808
 2978TIP3    H130349   1.106   2.102   0.000 -0.8005 -1.1387 -0.0268
 2978TIP3    H230350   1.067   2.056   0.139  0.7580 -1.0795  0.4364
 2979TIP3   OH230351   3.402   1.223  16.421  0.1615  0.1339  0.4396
 2979TIP3    H130352   3.385   1.131  16.400 -0.6434  0.0758  1.3362
 2979TIP3    H230353   3.484   1.243  16.375 -0.8665 -0.3666 -1.6858
 2980TIP3   OH230354   5.834   6.557   3.205  0.2806  0.0370  0.4203
 2980TIP3    H130355   5.780   6.493   3.158  0.9513 -0.1616 -0.0695
 2980TIP3    H230356   5.817   6.640   3.161 -1.5999  0.4619  1.8633
 2981TIP3   OH230357   0.838   3.622  17.036  0.3193  0.6533  0.4768
 2981TIP3    H130358   0.762   3.599  16.983  1.4003  2.1928 -1.8220
 2981TIP3    H230359   0.890   3.542  17.039  0.2905  0.5631 -0.9021
 2982TIP3   OH230360   0.388   5.616   1.115 -0.6069  0.1680  0.0344
 2982TIP3    H130361   0.448   5.577   1.051 -1.8084  0.6700 -1.4556
 2982TIP3    H230362   0.433   5.695   1.145  0.0260 -0.1372 -0.1017
 2983TIP3   OH230363   5.797   1.662  10.897 -0.2293  0.9397  0.2225
 2983TIP3    H130364   5.774   1.746  10.937 -0.0088  0.6554  0.9677
 2983TIP3    H230365   5.885   1.643  10.931 -0.9775 -0.4275  1.4774
 2984TIP3   OH230366   3.858   1.354  12.281  0.4932  0.5188  0.8793
 2984TIP3    H130367   3.835   1.295  12.353 -1.4495 -0.8296 -0.7771
 2984TIP3    H230368   3.943   1.323  12.250  1.2419  0.9854  2.4531
 2985TIP3   OH230369   3.111   2.137   1.161 -0.0367  0.4282  0.0908
 2985TIP3    H130370   3.178   2.077   1.191 -1.6875 -1.5187  0.0196
 2985TIP3    H230371   3.057   2.154   1.238 -1.0021 -0.1417 -0.4393
 2986TIP3   OH230372   4.800   5.715  14.010 -0.4473  0.2767 -0.6737
 2986TIP3    H130373   4.851   5.756  13.940 -1.7612  0.6963 -1.3868
 2986TIP3    H230374   4.749   5.647  13.966 -2.9546  2.0021 -0.5191
 2987TIP3   OH230375   4.442   5.781   3.988 -0.6695  0.3959 -0.0520
 2987TIP3    H130376   4.427   5.865   3.945 -0.3277  0.8094  0.6206
 2987TIP3    H230377   4.507   5.800   4.056 -1.2406 -0.2220  0.6891
 2988TIP3   OH230378   1.375   5.594  15.027  0.3793 -0.3594  0.2578
 2988TIP3    H130379   1.463   5.620  15.002  1.1417 -2.6129  0.4701
 2988TIP3    H230380   1.347   5.535  14.956 -0.4663 -0.6591  0.8327
 2989TIP3   OH230381   4.599   2.431   4.551 -0.0731  0.1014 -0.2525
 2989TIP3    H130382   4.631   2.344   4.576  0.6889 -0.0774 -1.8207
 2989TIP3    H230383   4.672   2.472   4.505 -0.0939  1.9580  1.2867
 2990TIP3   OH230384   0.416   5.871   0.693  0.5297  0.1094 -0.1018
 2990TIP3    H130385   0.434   5.921   0.613  0.2102  2.0119  0.9717
 2990TIP3    H230386   0.503   5.843   0.723  0.6524 -0.6080 -1.1101
 2991TIP3   OH230387   3.175   0.996   5.156 -0.0618  0.1094 -0.3836
 2991TIP3    H130388   3.233   1.071   5.173  0.0745 -0.2915  0.9843
 2991TIP3    H230389   3.219   0.922   5.198 -1.7588 -0.1280  1.0219
 2992TIP3   OH230390   5.112   0.149  14.980  0.4234 -0.5028  0.8586
 2992TIP3    H130391   5.134   0.056  14.985 -0.6296 -0.8649 -0.8315
 2992TIP3    H230392   5.119   0.170  14.887  0.7520  1.1456  1.2425
 2993TIP3   OH230393   0.003   2.667  11.072 -0.1459 -0.1352  0.1810
 2993TIP3    H130394   0.041   2.596  11.123  1.1319  1.2197  1.1461
 2993TIP3    H230395  -0.036   2.725  11.137  0.4509  0.9894 -0.4483
 2994TIP3   OH230396   6.463   4.502  11.578 -0.1980 -0.1512 -0.2154
 2994TIP3    H130397   6.438   4.522  11.668 -0.6354 -1.7649  0.0415
 2994TIP3    H230398   6.381   4.496  11.530 -0.0098 -0.1443 -0.5436
 2995TIP3   OH230399   3.721   4.171   4.067  0.2360  0.5106  0.5519
 2995TIP3    H130400   3.706   4.110   4.140  0.1673 -4.0134 -2.9811
 2995TIP3    H230401   3.638   4.219   4.059 -1.2834 -1.9390  0.8929
 2996TIP3   OH230402   1.731   6.737  11.710  0.0596  0.4670 -0.9284
 2996TIP3    H130403   1.762   6.710  11.797 -0.4605 -3.1934 -1.8291
 2996TIP3    H230404   1.637   6.747  11.720 -0.0486 -0.3246 -1.1741
 2997TIP3   OH230405   4.081   0.626   0.976 -0.4951 -0.5747 -0.7415
 2997TIP3    H130406   4.168   0.587   0.990  0.2206  1.6604  1.5425
 2997TIP3    H230407   4.094   0.687   0.903 -0.8859 -2.3047 -2.3015
 2998TIP3   OH230408   1.121   1.338  15.437 -0.5591 -0.0992 -0.3621
 2998TIP3    H130409   1.172   1.292  15.504  0.0659 -0.9847 -1.4218
 2998TIP3    H230410   1.097   1.421  15.477  0.8052 -0.1330  0.5350
 2999TIP3   OH230411   2.186   1.815   0.847  0.0686  0.1430  0.1259
 2999TIP3    H130412   2.261   1.874   0.843  0.3334 -0.3235 -2.2676
 2999TIP3    H230413   2.190   1.764   0.766 -2.4927 -0.2840  0.2046
 3000TIP3   OH230414   1.152   3.950  10.903  0.0389  0.4099 -0.1841
 3000TIP3    H130415   1.152   4.040  10.870 -1.6268  0.0902 -1.1284
 3000TIP3    H230416   1.218   3.905  10.849  0.5031  0.9317 -0.0599
 3001TIP3   OH230417   2.470   1.183   4.736 -0.8639 -0.5705  0.1695
 3001TIP3    H130418   2.443   1.178   4.828  1.2618 -1.8590  0.7583
 3001TIP3    H230419   2.565   1.182   4.739 -0.7690 -1.2064 -2.0870
 3002TIP3   OH230420   1.532   2.735   0.940 -0.2123  0.2080 -0.1263
 3002TIP3    H130421   1.574   2.669   0.885 -1.5319 -0.7269 -0.0474
 3002TIP3    H230422   1.493   2.796   0.878  1.1457  1.0184 -0.2000
 3003TIP3   OH230423   2.109   1.131   0.076  0.3726  0.2873 -0.3136
 3003TIP3    H130424   2.159   1.149   0.156 -0.1059 -0.3584  0.1391
 3003TIP3    H230425   2.147   1.189   0.010 -0.6020  2.3386  0.8891
 3004TIP3   OH230426   2.554   0.374  12.110 -0.2311 -0.0485  0.2639
 3004TIP3    H130427   2.549   0.463  12.074 -1.8868 -0.1688  0.1684
 3004TIP3    H230428   2.549   0.317  12.033  0.5031 -0.2413  0.3534
 3005TIP3   OH230429   4.071   4.732   2.825 -0.4181 -0.1710 -1.0100
 3005TIP3    H130430   4.153   4.771   2.797 -0.4440  0.1311 -0.6690
 3005TIP3    H230431   4.096   4.650   2.868 -0.1069  1.0269  1.1663
 3006TIP3   OH230432   5.747   4.225   4.974  0.1192  0.1958 -0.3128
 3006TIP3    H130433   5.746   4.130   4.975  0.5003  0.1940 -0.0111
 3006TIP3    H230434   5.655   4.251   4.983  0.1625 -0.1294  1.2107
 3007TIP3   OH230435   5.769   5.746  14.648  0.0508  0.2489 -0.0349
 3007TIP3    H130436   5.716   5.677  14.688 -1.2754  0.7873 -0.7998
 3007TIP3    H230437   5.781   5.718  14.557  0.0499  0.7129 -0.1799
 3008TIP3   OH230438   4.780   3.352  12.961 -0.3094  0.2778  0.7280
 3008TIP3    H130439   4.804   3.441  12.987 -1.0109  0.7436 -0.1636
 3008TIP3    H230440   4.795   3.351  12.866 -1.1841 -0.2677  0.5946
 3009TIP3   OH230441   5.543   2.920   3.170  0.3657 -0.4741  0.5012
 3009TIP3    H130442   5.458   2.884   3.145  0.5149 -1.2012  1.0079
 3009TIP3    H230443   5.521   2.995   3.226  0.0529 -0.2827  0.1241
 3010TIP3   OH230444   5.486   0.763   1.373 -0.4537  0.1198  0.3362
 3010TIP3    H130445   5.422   0.830   1.348 -0.0822 -0.2386 -1.5845
 3010TIP3    H230446   5.466   0.688   1.318  2.3292  0.3829 -1.1081
 3011TIP3   OH230447   5.935   6.234   1.128  0.1053 -0.2287  0.0840
 3011TIP3    H130448   6.028   6.245   1.147  0.8508 -1.4702 -2.5424
 3011TIP3    H230449   5.894   6.220   1.213  2.2751  0.6342  1.2914
 3012TIP3   OH230450   3.034   6.655  12.047 -0.0045  0.0407  0.0676
 3012TIP3    H130451   2.962   6.718  12.053 -0.7034 -0.7340 -0.1665
 3012TIP3    H230452   3.084   6.668  12.128  0.5493  1.7117 -0.5161
 3013TIP3   OH230453   2.348   3.346   4.743 -0.0636 -0.0116  0.7368
 3013TIP3    H130454   2.344   3.299   4.659 -1.0110  1.3313  0.0097
 3013TIP3    H230455   2.395   3.286   4.801  0.2107 -1.1613 -0.6213
 3014TIP3   OH230456   6.325   0.996   0.718 -0.2405 -0.8838  0.0182
 3014TIP3    H130457   6.302   1.065   0.780  1.0942 -0.0045 -0.4700
 3014TIP3    H230458   6.256   1.000   0.651  0.3353  0.5866 -0.5035
 3015TIP3   OH230459   6.663   6.005   4.024  0.0867  0.5412  0.1689
 3015TIP3    H130460   6.626   6.072   4.081  1.7128  2.1936 -0.6850
 3015TIP3    H230461   6.755   6.000   4.048  0.2744 -0.4037 -0.7084
 3016TIP3   OH230462   2.379   6.018   0.550  0.3899 -0.6755  0.2711
 3016TIP3    H130463   2.299   6.044   0.504  0.8438 -0.0313 -0.1595
 3016TIP3    H230464   2.450   6.055   0.498  0.9297 -0.2834  1.2692
 3017TIP3   OH230465   1.992   4.104  15.072 -0.2373  0.1516 -0.2235
 3017TIP3    H130466   2.007   4.119  14.978 -1.8201 -0.3570 -0.5773
 3017TIP3    H230467   1.918   4.043  15.074 -0.1592  0.1025  1.3638
 3018TIP3   OH230468   4.243   0.699   0.309  0.5824  0.1624  0.0213
 3018TIP3    H130469   4.324   0.673   0.353  0.6963  0.7866  0.1824
 3018TIP3    H230470   4.250   0.794   0.300  1.0904 -0.0639 -2.3650
 3019TIP3   OH230471   1.445   0.625   0.052  0.0171  0.2588  0.4858
 3019TIP3    H130472   1.517   0.628   0.115  1.0246  3.4210 -0.6724
 3019TIP3    H230473   1.380   0.685   0.088 -0.4674  0.1885 -0.2595
 3020TIP3   OH230474   3.416   0.253   5.973 -0.2781  0.1650 -0.2709
 3020TIP3    H130475   3.487   0.216   5.919  0.0755  1.1431 -0.4929
 3020TIP3    H230476   3.336   0.217   5.935  0.1491 -2.3684  1.0714
 3021TIP3   OH230477   6.440   1.477   5.814  0.7297 -0.3536  0.6300
 3021TIP3    H130478   6.356   1.445   5.782  1.5466 -1.0980 -0.8060
 3021TIP3    H230479   6.420   1.563   5.852 -0.5724 -0.2294 -0.2878
 3022TIP3   OH230480   5.237   2.243  17.052  0.4384  0.4037 -0.2154
 3022TIP3    H130481   5.210   2.309  17.116  0.2102  0.2126 -0.1108
 3022TIP3    H230482   5.218   2.159  17.095  0.5868  0.2737 -0.4055
 3023TIP3   OH230483   5.032   3.611  13.224 -0.1909  0.1966 -0.7815
 3023TIP3    H130484   5.072   3.525  13.232 -3.0836 -0.9616  2.2557
 3023TIP3    H230485   5.036   3.630  13.130  1.4355 -2.7258 -1.3844
 3024TIP3   OH230486   6.064   5.779   2.236  0.3751  0.0890 -0.1566
 3024TIP3    H130487   6.158   5.760   2.235  0.2458 -0.5413 -1.7576
 3024TIP3    H230488   6.058   5.873   2.219  0.6092 -0.5114 -3.9656
 3025TIP3   OH230489   6.324   0.251  12.447 -0.1452  0.0290  0.3583
 3025TIP3    H130490   6.297   0.161  12.426  0.6188 -0.4077  1.1584
 3025TIP3    H230491   6.243   0.302  12.444 -0.7291 -0.8571  0.7342
 3026TIP3   OH230492   5.182   4.123   2.119  0.4305 -0.1231  0.2762
 3026TIP3    H130493   5.174   4.040   2.166 -2.3834  1.5330  2.8821
 3026TIP3    H230494   5.097   4.136   2.077  0.7619  1.5354  0.0796
 3027TIP3   OH230495   6.681   2.688  16.402 -0.2785  0.7578 -0.3212
 3027TIP3    H130496   6.711   2.778  16.413  0.0162  0.4398  1.7153
 3027TIP3    H230497   6.706   2.666  16.312  1.0572  2.1841 -0.3407
 3028TIP3   OH230498   3.541   6.684  16.318  0.5709  0.2454  0.3388
 3028TIP3    H130499   3.452   6.676  16.352  0.4446  0.4022  0.0443
 3028TIP3    H230500   3.583   6.602  16.342 -0.4053 -0.8816 -1.7341
 3029TIP3   OH230501   3.063   2.498  13.372 -0.1925  0.6640 -0.4468
 3029TIP3    H130502   3.125   2.451  13.429 -2.1919 -2.1543 -0.4736
 3029TIP3    H230503   3.118   2.539  13.305  1.7585 -0.4626  0.4182
 3030TIP3   OH230504   3.415   3.182   3.667  0.0182 -0.1328 -0.3420
 3030TIP3    H130505   3.357   3.146   3.734  2.1529 -1.1250  1.0375
 3030TIP3    H230506   3.402   3.277   3.672 -1.3846 -0.3284 -0.0046
 3031TIP3   OH230507   2.530   1.983  12.849 -0.5893 -0.0517 -0.4676
 3031TIP3    H130508   2.524   1.913  12.914 -0.3050  0.9339  0.6231
 3031TIP3    H230509   2.541   1.937  12.766 -0.4152 -1.3029  0.2354
 3032TIP3   OH230510   4.427   5.770  13.094  0.3634  0.4831  0.4641
 3032TIP3    H130511   4.449   5.862  13.079  0.5388  0.3033 -0.3497
 3032TIP3    H230512   4.331   5.769  13.094  0.3524  0.7791  1.1871
 3033TIP3   OH230513   6.028   4.528  13.287  0.0379 -0.4255 -0.1264
 3033TIP3    H130514   5.948   4.578  13.303 -0.3513 -1.6417  1.8806
 3033TIP3    H230515   5.996   4.441  13.262  0.7177 -0.8388  0.4194
 3034TIP3   OH230516   2.300   3.043  15.773 -0.5112 -0.2400  0.2327
 3034TIP3    H130517   2.239   3.064  15.844 -0.9422 -0.3107 -0.1158
 3034TIP3    H230518   2.258   3.079  15.694 -0.6298 -1.2593 -0.1735
 3035TIP3   OH230519   3.108   0.958  16.980 -0.4190  0.0857 -0.1106
 3035TIP3    H130520   3.150   0.982  17.063  0.3237  3.8686 -1.4951
 3035TIP3    H230521   3.181   0.943  16.920 -0.9827 -0.5782 -0.6311
 3036TIP3   OH230522   4.653   2.049  15.790 -0.0821  0.5036 -0.1068
 3036TIP3    H130523   4.635   2.127  15.739 -0.7136  0.1029 -0.5057
 3036TIP3    H230524   4.701   1.992  15.730  0.6461  0.7057  0.2766
 3037TIP3   OH230525   5.691   2.140  13.360  0.4605 -1.0867  0.1161
 3037TIP3    H130526   5.765   2.197  13.383 -1.1138  0.2445  2.0148
 3037TIP3    H230527   5.725   2.051  13.373  1.4478 -0.4755  1.9422
 3038TIP3   OH230528   1.396   3.172   0.598  0.5149  0.2896 -0.1518
 3038TIP3    H130529   1.472   3.226   0.618 -0.3711  1.2175  0.7505
 3038TIP3    H230530   1.362   3.145   0.683 -0.1466 -0.1511 -0.5459
 3039TIP3   OH230531   4.326   2.463  16.744 -0.8892  0.0003 -0.7296
 3039TIP3    H130532   4.344   2.524  16.816 -0.3687 -0.6188 -0.3315
 3039TIP3    H230533   4.275   2.515  16.681 -0.1808  0.9314 -0.5472
 3040TIP3   OH230534   3.436   4.694   5.238  0.7051  0.4409 -0.3543
 3040TIP3    H130535   3.492   4.716   5.312  1.3330 -2.8117  0.2461
 3040TIP3    H230536   3.478   4.733   5.162  1.4580  1.6285  0.6663
 3041TIP3   OH230537   3.346   4.695   5.600  0.0817  0.0107 -0.0068
 3041TIP3    H130538   3.381   4.761   5.541  0.1776 -1.7892 -2.0375
 3041TIP3    H230539   3.252   4.695   5.583  0.2119 -1.0911 -0.8161
 3042TIP3   OH230540   4.348   6.525   1.015  0.2834  0.6629 -0.1975
 3042TIP3    H130541   4.398   6.602   0.987 -2.3173  1.1474 -4.0037
 3042TIP3    H230542   4.256   6.551   1.003 -0.6738 -2.5704 -0.3908
 3043TIP3   OH230543   0.039   2.389   0.169 -0.2444  0.1775 -0.7298
 3043TIP3    H130544   0.025   2.296   0.150 -0.6813  0.2856 -0.9388
 3043TIP3    H230545   0.058   2.428   0.083  1.3374  0.0379 -0.4661
 3044TIP3   OH230546   4.107   4.977   0.321 -0.3184  0.3617 -0.2184
 3044TIP3    H130547   4.060   5.008   0.398  3.0501  1.6441  1.4479
 3044TIP3    H230548   4.083   5.038   0.251 -0.8999  1.1645  0.6793
 3045TIP3   OH230549   5.179   6.357   5.244 -0.9363  0.0198  0.2381
 3045TIP3    H130550   5.211   6.365   5.155 -1.4488  0.1614  0.0616
 3045TIP3    H230551   5.199   6.267   5.269 -1.7827 -0.3573 -0.4158
 3046TIP3   OH230552   1.299   6.345  12.350 -0.4394  0.3308  0.2905
 3046TIP3    H130553   1.224   6.395  12.318 -0.7322  0.0593  0.5385
 3046TIP3    H230554   1.290   6.348  12.445 -0.3262  0.0116  0.3125
 3047TIP3   OH230555   3.619   5.637   2.310 -0.0319 -0.3112 -0.1570
 3047TIP3    H130556   3.533   5.672   2.289 -0.6133 -1.4764  0.2652
 3047TIP3    H230557   3.652   5.694   2.379 -0.5745 -0.0187 -0.1369
 3048TIP3   OH230558   1.507   4.745   0.563  0.2060  0.1096  0.4339
 3048TIP3    H130559   1.494   4.829   0.521 -0.3851  0.6310  1.6366
 3048TIP3    H230560   1.442   4.687   0.522 -0.3427  0.6038  0.5966
 3049TIP3   OH230561   5.576   5.195  14.936 -0.4965 -0.2433 -0.1120
 3049TIP3    H130562   5.560   5.267  14.874 -1.1250 -2.1745 -2.2729
 3049TIP3    H230563   5.510   5.207  15.004 -0.4946  1.3054 -0.3616
 3050TIP3   OH230564   6.572   1.560   0.752 -0.4097  0.3024  0.7181
 3050TIP3    H130565   6.621   1.630   0.795  0.4063 -0.6797  1.4259
 3050TIP3    H230566   6.488   1.599   0.730  0.6363  2.0096 -0.4298
 3051TIP3   OH230567   1.867   6.211   4.046  0.1236 -0.2009  0.5850
 3051TIP3    H130568   1.953   6.251   4.034  0.0037 -0.1721 -0.1629
 3051TIP3    H230569   1.830   6.207   3.959 -0.1605 -1.3010  0.7526
 3052TIP3   OH230570   4.020   6.526   5.268  0.8179  0.1150  0.2747
 3052TIP3    H130571   4.089   6.542   5.203  1.1416  1.8627  1.0064
 3052TIP3    H230572   4.051   6.570   5.347 -0.7360  0.1586  0.8777
 3053TIP3   OH230573   1.558   2.051   5.747  0.0061 -0.8416  0.3488
 3053TIP3    H130574   1.562   2.126   5.688 -0.6993  0.0077  1.3685
 3053TIP3    H230575   1.466   2.041   5.768  0.2781 -0.9133  1.5724
 3054TIP3   OH230576   0.713   3.622  15.923 -0.0406  0.0673  0.2065
 3054TIP3    H130577   0.642   3.671  15.883  1.2842  1.5893 -0.3414
 3054TIP3    H230578   0.674   3.582  16.001 -1.8326 -0.2865 -0.8453
 3055TIP3   OH230579   1.344   3.500   4.601  0.5138 -0.2055  0.7725
 3055TIP3    H130580   1.270   3.555   4.628  0.5813  0.3566 -0.1538
 3055TIP3    H230581   1.345   3.508   4.505  0.9831 -1.2393  0.6899
 3056TIP3   OH230582   1.724   4.206   0.285  0.2906 -0.1654  0.4489
 3056TIP3    H130583   1.664   4.156   0.230  0.9232  0.4927 -0.8564
 3056TIP3    H230584   1.667   4.252   0.347 -0.5126 -0.0419 -0.3650
 3057TIP3   OH230585   1.268   1.722   0.411 -0.4271 -0.0365  0.1981
 3057TIP3    H130586   1.338   1.658   0.398  1.2827  1.7353  0.5239
 3057TIP3    H230587   1.308   1.793   0.461 -2.4968  0.9502  0.5348
 3058TIP3   OH230588   4.344   0.122   2.330 -0.3909 -0.2432  0.2823
 3058TIP3    H130589   4.292   0.129   2.250 -0.3959 -1.4120  0.1691
 3058TIP3    H230590   4.396   0.203   2.332 -1.6751  0.6059  0.0252
 3059TIP3   OH230591   0.531   3.691  14.025 -0.6789 -0.4253 -0.6912
 3059TIP3    H130592   0.485   3.675  13.942  0.5644 -3.1058 -0.9007
 3059TIP3    H230593   0.623   3.699  14.000 -0.3301 -0.9447  0.4172
 3060TIP3   OH230594   4.367   2.649  16.951  0.3315  0.1705 -0.4286
 3060TIP3    H130595   4.314   2.715  16.906 -1.7775 -1.4499 -0.3924
 3060TIP3    H230596   4.321   2.631  17.032  1.8763 -0.0211  0.4304
 3061TIP3   OH230597   1.891   2.062   1.121  0.2784  0.3437  0.0317
 3061TIP3    H130598   1.846   1.991   1.075  0.7410 -0.5677  0.9482
 3061TIP3    H230599   1.822   2.125   1.141 -0.3914 -0.4735  0.3526
 3062TIP3   OH230600   6.291   5.108  15.367  0.3749  0.5123 -0.1004
 3062TIP3    H130601   6.315   5.081  15.278 -0.4752 -1.9215  0.3495
 3062TIP3    H230602   6.198   5.132  15.360  0.0896 -0.4457  0.2551
 3063TIP3   OH230603   3.722   6.555   5.640  0.3963  0.2374  0.4510
 3063TIP3    H130604   3.712   6.486   5.575  0.8914 -0.1997  0.8306
 3063TIP3    H230605   3.801   6.530   5.689 -0.0166  0.5082  1.2673
 3064TIP3   OH230606   2.897   5.479  16.488  0.7958  0.6587 -0.1499
 3064TIP3    H130607   2.887   5.478  16.392 -0.7211  2.2410 -0.0289
 3064TIP3    H230608   2.893   5.572  16.511 -0.5359  0.1931  1.6126
 3065TIP3   OH230609   6.436   5.760   4.632  0.1773  0.1312 -0.2877
 3065TIP3    H130610   6.394   5.839   4.598  1.9455  0.7423 -1.1003
 3065TIP3    H230611   6.426   5.696   4.562 -0.9906 -0.2879  0.2498
 3066TIP3   OH230612   6.598   2.893  12.520  0.3053  0.4076  0.4495
 3066TIP3    H130613   6.670   2.832  12.529  0.6152  0.7555  0.3434
 3066TIP3    H230614   6.571   2.912  12.610  0.6758  0.6609  0.5118
 3067TIP3   OH230615   6.631   1.213   5.657  0.1073 -0.3081  0.2609
 3067TIP3    H130616   6.612   1.254   5.573 -0.8320 -3.1895 -1.0010
 3067TIP3    H230617   6.546   1.201   5.698  0.4994  0.4132  1.3067
 3068TIP3   OH230618   3.820   1.072   1.139  0.4611  0.0077 -0.0959
 3068TIP3    H130619   3.894   1.049   1.083 -0.1374 -0.3434 -0.7540
 3068TIP3    H230620   3.808   1.166   1.125  1.1139  0.1671  0.4149
 3069TIP3   OH230621   5.370   5.681   0.312 -0.2327  0.2426 -0.2805
 3069TIP3    H130622   5.358   5.646   0.400  1.6542 -1.1254 -0.5316
 3069TIP3    H230623   5.314   5.626   0.257  0.8502 -0.8502 -0.3226
 3070TIP3   OH230624   0.672   3.578   1.814 -0.0580 -0.0192 -0.2964
 3070TIP3    H130625   0.701   3.546   1.729 -0.2695  0.9024 -0.7178
 3070TIP3    H230626   0.747   3.566   1.872  0.4032  0.2766 -0.8431
 3071TIP3   OH230627   0.214   5.613  12.752 -0.1492 -0.3252  0.4658
 3071TIP3    H130628   0.142   5.573  12.799 -1.7906  1.9998  0.0125
 3071TIP3    H230629   0.182   5.623  12.662  0.7634  0.5730  0.2239
 3072TIP3   OH230630   2.484   3.129   2.678 -0.2890 -0.9279  0.1407
 3072TIP3    H130631   2.438   3.104   2.758  0.9957 -0.7347  0.9581
 3072TIP3    H230632   2.475   3.053   2.620 -2.3862 -0.5374 -0.0495
 3073TIP3   OH230633   0.321   1.758   3.575 -0.5997 -0.3929  0.1770
 3073TIP3    H130634   0.266   1.827   3.537 -1.3353 -1.7031 -1.2061
 3073TIP3    H230635   0.260   1.699   3.619 -0.1613 -1.0891 -0.1326
 3074TIP3   OH230636   3.804   5.141   2.268 -0.2017  0.0116  0.8264
 3074TIP3    H130637   3.876   5.204   2.277  0.5499 -0.7683  0.3506
 3074TIP3    H230638   3.830   5.068   2.323 -1.6628  0.6227  2.3615
 3075TIP3   OH230639   1.747   5.012   1.991 -0.0216  0.7682  0.1638
 3075TIP3    H130640   1.704   5.091   2.024  1.8580  1.5180  0.8937
 3075TIP3    H230641   1.808   4.987   2.061 -0.7328 -1.4642  0.0433
 3076TIP3   OH230642   3.773   6.778  15.170 -0.2905 -0.2945 -0.7247
 3076TIP3    H130643   3.692   6.737  15.200 -0.2223  0.0247 -0.0798
 3076TIP3    H230644   3.794   6.842  15.239 -0.8674  1.4576 -2.1374
 3077TIP3   OH230645   3.062   3.632   2.254  0.3263 -0.4777 -0.5346
 3077TIP3    H130646   3.024   3.701   2.200  1.6885 -0.4554 -1.4792
 3077TIP3    H230647   3.064   3.669   2.342 -1.0518 -0.1672 -0.6277
 3078TIP3   OH230648   3.819   2.289   0.256 -0.1966  0.8111 -0.2580
 3078TIP3    H130649   3.761   2.239   0.313 -0.4594  0.9419 -0.4099
 3078TIP3    H230650   3.899   2.236   0.251 -0.8239 -0.0689 -1.1974
 3079TIP3   OH230651   5.217   0.525   4.131 -0.1719 -0.2792  0.2667
 3079TIP3    H130652   5.263   0.507   4.213  1.1176  1.9962  0.0574
 3079TIP3    H230653   5.278   0.579   4.080 -1.1279 -1.2989 -2.0221
 3080TIP3   OH230654   3.772   4.842  14.755  0.5714 -0.5636  0.2821
 3080TIP3    H130655   3.850   4.785  14.756  3.1524  2.8290  0.7248
 3080TIP3    H230656   3.739   4.838  14.845  1.7284 -0.0552  0.7342
 3081TIP3   OH230657   5.838   1.617   5.239  0.4100  0.0043 -0.2339
 3081TIP3    H130658   5.879   1.703   5.251  2.7979 -0.8894 -1.6009
 3081TIP3    H230659   5.827   1.583   5.328  0.0343  1.4676  0.2870
 3082TIP3   OH230660   2.239   3.771  14.314 -0.4311 -0.2550 -0.1222
 3082TIP3    H130661   2.181   3.841  14.345 -0.0132 -0.3607  0.9498
 3082TIP3    H230662   2.292   3.813  14.246 -0.8863  0.1933 -0.2048
 3083TIP3   OH230663   1.668   6.299   4.209  1.0516 -0.1114 -0.2654
 3083TIP3    H130664   1.735   6.287   4.143  1.3678 -0.1494  0.0617
 3083TIP3    H230665   1.714   6.291   4.292  0.5766 -0.5360 -0.0375
 3084TIP3   OH230666   5.266   4.221   3.977  0.1009 -0.0585  0.6336
 3084TIP3    H130667   5.197   4.154   3.979  0.9375 -0.9456  0.4816
 3084TIP3    H230668   5.320   4.202   4.054  0.7685 -0.0200  0.1787
 3085TIP3   OH230669   1.091   5.978   4.056  0.4716  0.1648  0.4949
 3085TIP3    H130670   1.138   6.011   3.979  0.0803  0.6030  0.4434
 3085TIP3    H230671   1.154   5.988   4.128  1.6887 -2.3866 -0.1464
 3086TIP3   OH230672   4.793   1.063   2.393  0.0317 -0.5196 -0.0016
 3086TIP3    H130673   4.719   1.095   2.340 -0.1909 -0.5907  0.2673
 3086TIP3    H230674   4.854   1.027   2.329  0.6750  1.2213 -0.3795
 3087TIP3   OH230675   2.556   5.476   0.345  0.2146 -0.3488 -0.4103
 3087TIP3    H130676   2.573   5.466   0.438 -1.3318  0.9080  0.0243
 3087TIP3    H230677   2.493   5.407   0.324  0.9094 -0.9233 -0.6388
 3088TIP3   OH230678   0.706   6.052   5.408  0.1110  0.2775  0.6646
 3088TIP3    H130679   0.792   6.049   5.449  0.2539  2.1081  0.5260
 3088TIP3    H230680   0.658   6.120   5.456 -0.3036  1.2238 -1.0550
 3089TIP3   OH230681   2.299   0.890   0.298  0.1481  0.4534 -0.3073
 3089TIP3    H130682   2.258   0.848   0.374 -0.9968  1.7129 -0.2081
 3089TIP3    H230683   2.298   0.983   0.319 -0.5394  0.8574 -2.0433
 3090TIP3   OH230684   0.680   4.832  12.219 -0.0199 -0.4529  0.2005
 3090TIP3    H130685   0.619   4.906  12.222  1.5879  1.0459 -2.6973
 3090TIP3    H230686   0.764   4.868  12.245  0.6423 -1.4063 -0.5779
 3091TIP3   OH230687   4.188   1.213  15.912 -0.8316  0.0109 -0.1202
 3091TIP3    H130688   4.276   1.202  15.876 -1.0616 -0.7846 -0.4642
 3091TIP3    H230689   4.132   1.161  15.853 -1.6125  1.0058 -0.2638
 3092TIP3   OH230690   6.654   1.980  11.116 -0.1739 -0.4848 -0.0286
 3092TIP3    H130691   6.735   1.975  11.167 -0.5533 -0.5393  0.5648
 3092TIP3    H230692   6.678   1.947  11.030 -0.1207 -2.6271  0.7955
 3093TIP3   OH230693   0.402   4.652   5.233 -0.4489  0.5965  0.3564
 3093TIP3    H130694   0.346   4.642   5.156 -1.6581 -0.6738  1.3548
 3093TIP3    H230695   0.431   4.563   5.253  2.0733  1.2652 -0.2263
 3094TIP3   OH230696   0.297   3.227  11.531  0.0823  0.0512 -0.8382
 3094TIP3    H130697   0.262   3.178  11.456 -0.3176 -1.1418  0.1117
 3094TIP3    H230698   0.328   3.159  11.591 -0.1462  0.9898  0.3466
 3095TIP3   OH230699   5.622   1.187   3.276 -0.3786  0.1642  0.1155
 3095TIP3    H130700   5.626   1.278   3.305  1.5862 -0.8723  3.3466
 3095TIP3    H230701   5.558   1.146   3.334 -1.6208 -0.4751 -1.6379
 3096TIP3   OH230702   4.133   6.570  14.113  0.7102  0.3066 -0.3792
 3096TIP3    H130703   4.051   6.580  14.064  0.4473 -1.9317 -0.4524
 3096TIP3    H230704   4.106   6.573  14.205  0.8403  1.7390 -0.3834
 3097TIP3   OH230705   5.887   0.540  11.900 -0.1166 -0.2550  0.3794
 3097TIP3    H130706   5.877   0.616  11.843 -2.6754 -1.3131 -0.7179
 3097TIP3    H230707   5.949   0.567  11.967 -0.1442  2.4175 -0.6118
 3098TIP3   OH230708   0.191   2.959   5.665  1.0433  0.2417 -0.3577
 3098TIP3    H130709   0.139   3.013   5.725  1.5500  1.1523 -0.7243
 3098TIP3    H230710   0.241   2.901   5.722 -0.7449 -1.0009 -0.0159
 3099TIP3   OH230711   6.688   3.967   1.906 -0.1833 -0.5098  0.4042
 3099TIP3    H130712   6.783   3.960   1.894  0.1248  1.0531  1.7724
 3099TIP3    H230713   6.657   4.002   1.822  0.7684  1.3442  0.8058
 3100TIP3   OH230714   2.517   2.722   4.492 -0.2905  0.3344 -0.3935
 3100TIP3    H130715   2.494   2.794   4.552 -2.1757 -0.3947 -0.2095
 3100TIP3    H230716   2.441   2.664   4.493  1.1254 -1.5996 -0.6764
 3101TIP3   OH230717   6.400   0.129  15.801  0.0876 -0.4500 -0.4096
 3101TIP3    H130718   6.346   0.173  15.867  1.2010 -0.8209  0.7684
 3101TIP3    H230719   6.357   0.043  15.790  0.0294 -0.4761 -0.0006
 3102TIP3   OH230720   2.084   5.125  10.781 -0.0801 -0.4493  0.4684
 3102TIP3    H130721   2.095   5.192  10.714  0.1988  1.0229  1.9546
 3102TIP3    H230722   2.011   5.156  10.835  0.9991 -0.5548  2.0433
 3103TIP3   OH230723   5.838   0.385   4.979 -0.0394  0.3958  0.2001
 3103TIP3    H130724   5.745   0.381   5.002  0.0431  0.5302  0.5602
 3103TIP3    H230725   5.840   0.434   4.897 -0.3795 -0.5308 -0.3688
 3104TIP3   OH230726   2.583   6.486   5.982  0.3191 -0.5297 -0.3032
 3104TIP3    H130727   2.594   6.571   6.025 -2.1941  0.4723 -1.5415
 3104TIP3    H230728   2.536   6.433   6.047 -1.7500  0.3736 -0.9923
 3105TIP3   OH230729   0.058   1.521   1.479 -0.1996 -0.3773  0.4246
 3105TIP3    H130730  -0.000   1.484   1.413  0.1280  1.3420 -0.8505
 3105TIP3    H230731   0.021   1.607   1.499  1.8692  0.7548 -0.4129
 3106TIP3   OH230732   5.423   5.640  10.298  0.8207  0.8324 -0.2512
 3106TIP3    H130733   5.488   5.592  10.349 -0.4854 -0.1905  0.4944
 3106TIP3    H230734   5.420   5.727  10.339  0.1464  0.1810  1.1295
 3107TIP3   OH230735   2.813   4.260  16.963  0.6462  0.6653  0.0932
 3107TIP3    H130736   2.741   4.304  16.918 -0.8529 -0.5199  1.2696
 3107TIP3    H230737   2.826   4.311  17.043 -0.1142 -0.1391  0.7484
 3108TIP3   OH230738   1.651   3.613   3.216  0.2863 -0.1221 -0.5931
 3108TIP3    H130739   1.597   3.544   3.177 -1.0393  1.2392 -1.2351
 3108TIP3    H230740   1.657   3.591   3.308 -0.5348 -0.8352 -0.7097
 3109TIP3   OH230741   6.053   6.344  15.693 -0.0158  0.0920  0.1052
 3109TIP3    H130742   6.067   6.250  15.683  1.4502  0.4835 -1.7369
 3109TIP3    H230743   6.141   6.382  15.699 -0.5986  1.3031  1.5643
 3110TIP3   OH230744   1.169   5.993  17.132 -0.1504 -0.0848 -0.2577
 3110TIP3    H130745   1.169   5.957  17.043  2.8667  0.6851 -0.6225
 3110TIP3    H230746   1.141   6.084  17.121 -0.7300 -0.2654 -0.2870
 3111TIP3   OH230747   4.580   0.452  12.657 -0.0986  0.0422 -0.2991
 3111TIP3    H130748   4.603   0.427  12.746  1.4745 -1.3950 -1.0788
 3111TIP3    H230749   4.659   0.437  12.606 -1.1869  0.1598 -2.0891
 3112TIP3   OH230750   0.254   4.534   2.852  0.0879  0.1285 -0.7183
 3112TIP3    H130751   0.348   4.520   2.861 -0.2546 -1.0450  1.1960
 3112TIP3    H230752   0.220   4.451   2.821 -0.1358  1.0221 -2.9233
 3113TIP3   OH230753   2.210   5.989  13.958  0.1326  0.0595 -0.0499
 3113TIP3    H130754   2.119   5.977  13.930 -0.0255 -0.6812  0.7592
 3113TIP3    H230755   2.221   5.927  14.030  1.6283 -0.6873 -0.8961
 3114TIP3   OH230756   3.120   4.374  12.510 -0.4681  0.2733  0.0744
 3114TIP3    H130757   3.197   4.378  12.453 -0.9517  3.6355 -0.4882
 3114TIP3    H230758   3.150   4.326  12.587  2.3178  1.7156 -0.0175
 3115TIP3   OH230759   5.799   2.652   0.344 -0.2945 -0.2147  0.2139
 3115TIP3    H130760   5.807   2.747   0.355  0.4545 -0.2354 -0.1350
 3115TIP3    H230761   5.872   2.616   0.394 -1.1126 -0.6605  1.1087
 3116TIP3   OH230762   2.701   1.058   4.509 -0.1110 -0.3041 -0.5484
 3116TIP3    H130763   2.612   1.069   4.544  0.3382 -1.6296  1.1045
 3116TIP3    H230764   2.757   1.100   4.575  0.5200  0.3512 -1.4897
 3117TIP3   OH230765   3.414   2.852  13.558  0.3158  0.2446 -0.8171
 3117TIP3    H130766   3.455   2.780  13.509 -1.5880 -1.5516  0.2072
 3117TIP3    H230767   3.446   2.841  13.647 -1.8349 -0.7878 -0.1482
 3118TIP3   OH230768   1.262   1.840   3.581 -0.4331  0.5889 -0.5282
 3118TIP3    H130769   1.356   1.852   3.590 -0.1246 -0.1658 -2.5672
 3118TIP3    H230770   1.247   1.832   3.487 -2.6375  1.5076 -0.3050
 3119TIP3   OH230771   5.835   0.873   5.979  0.0231  0.0871 -0.8208
 3119TIP3    H130772   5.783   0.907   5.907 -0.4596  0.7100 -0.1855
 3119TIP3    H230773   5.776   0.875   6.055  0.4893 -0.6437 -0.4258
 3120TIP3   OH230774   6.665   4.770  16.808 -0.3557  0.1417  0.0833
 3120TIP3    H130775   6.686   4.725  16.889 -0.8971  0.8423  0.6211
 3120TIP3    H230776   6.570   4.762  16.800 -0.0814 -1.7825 -1.5879
 3121TIP3   OH230777   0.588   4.679  11.043  0.0574 -0.1614 -0.0860
 3121TIP3    H130778   0.555   4.678  11.133 -0.4976 -1.8262 -0.2807
 3121TIP3    H230779   0.611   4.588  11.026  1.4150  0.3843 -1.1822
 3122TIP3   OH230780   3.446   4.114   3.017  0.0578 -0.6019 -0.6059
 3122TIP3    H130781   3.479   4.202   3.003 -0.5599 -0.2558  0.1145
 3122TIP3    H230782   3.516   4.056   2.985 -0.1417  0.1487 -2.4822
 3123TIP3   OH230783   6.010   3.469  12.736 -0.2625 -0.3160  0.1140
 3123TIP3    H130784   5.973   3.494  12.820  1.6497  3.0820  0.0291
 3123TIP3    H230785   6.084   3.412  12.757 -1.0006 -1.0926  0.6206
 3124TIP3   OH230786   0.105   0.687   4.818 -0.1616  0.0946  0.2247
 3124TIP3    H130787   0.036   0.645   4.768  0.9790 -0.4881 -0.8924
 3124TIP3    H230788   0.146   0.748   4.757 -1.3536  2.3640  1.6316
 3125TIP3   OH230789   5.284   5.380  15.437 -0.6532  0.0796  0.1611
 3125TIP3    H130790   5.198   5.355  15.403  0.6893 -0.6492 -2.8738
 3125TIP3    H230791   5.264   5.437  15.511 -3.7428 -1.4815  0.6336
 3126TIP3   OH230792   3.798   1.672   2.240  0.2184  0.2682  0.5339
 3126TIP3    H130793   3.847   1.726   2.178  0.9388 -1.6261 -0.5941
 3126TIP3    H230794   3.778   1.731   2.313  0.4993  2.1836 -0.9042
 3127TIP3   OH230795   1.245   4.323  15.252  0.0813  0.0646  0.0613
 3127TIP3    H130796   1.214   4.387  15.316 -2.3550 -0.2080 -0.8018
 3127TIP3    H230797   1.224   4.238  15.291  2.8399 -0.2570  0.9715
 3128TIP3   OH230798   2.277   4.450   0.474  0.1672  0.1243 -0.9016
 3128TIP3    H130799   2.248   4.538   0.449 -0.5207  0.9518  2.5870
 3128TIP3    H230800   2.366   4.463   0.507  0.1472 -0.5332 -0.5905
 3129TIP3   OH230801   4.318   1.746   3.006 -0.2846  0.2474 -0.4721
 3129TIP3    H130802   4.300   1.653   2.988 -0.1713  0.0168  0.5715
 3129TIP3    H230803   4.414   1.751   3.007 -0.2741 -0.0146  1.3640
 3130TIP3   OH230804   2.362   1.566  15.179 -0.0273  0.0911  0.4774
 3130TIP3    H130805   2.360   1.656  15.210  1.9120  0.7413 -1.1828
 3130TIP3    H230806   2.273   1.534  15.192 -1.2026  2.8073 -0.5914
 3131TIP3   OH230807   4.721   3.874   5.928 -0.2864  0.6006  0.7193
 3131TIP3    H130808   4.791   3.888   5.991 -0.5508 -0.9135  1.3539
 3131TIP3    H230809   4.642   3.864   5.981 -0.6368  0.0924  0.1069
 3132TIP3   OH230810   4.182   5.278  11.721  0.3206 -0.3408  0.1747
 3132TIP3    H130811   4.136   5.213  11.669 -0.2596  0.7476 -0.6673
 3132TIP3    H230812   4.261   5.232  11.751  0.0999 -1.3188 -0.7068
 3133TIP3   OH230813   3.006   5.172   4.368  0.8716  0.2739 -0.4049
 3133TIP3    H130814   3.017   5.188   4.462 -0.4799  0.8380 -0.3368
 3133TIP3    H230815   3.094   5.183   4.332  1.4262 -0.0670  0.8090
 3134TIP3   OH230816   5.163   3.371  13.143  0.1028  0.9534 -0.1777
 3134TIP3    H130817   5.224   3.443  13.135 -0.5035  1.3716 -1.1404
 3134TIP3    H230818   5.172   3.322  13.061  0.8798 -0.3715  0.6659
 3135TIP3   OH230819   1.058   1.464  14.129 -0.2878  0.0823  0.2220
 3135TIP3    H130820   1.024   1.544  14.089 -1.6770  0.4291  2.0224
 3135TIP3    H230821   1.152   1.478  14.136 -0.2082  0.5854 -1.6100
 3136TIP3   OH230822   4.947   2.127  16.545 -0.1662 -0.4167 -0.1730
 3136TIP3    H130823   4.915   2.124  16.635  2.0080  1.3104  0.7211
 3136TIP3    H230824   4.874   2.162  16.494 -1.1857 -0.7522  1.0395
 3137TIP3   OH230825   4.397   5.364   1.143  0.1126  0.1630  0.3388
 3137TIP3    H130826   4.433   5.338   1.227  2.6981 -0.2878 -0.8506
 3137TIP3    H230827   4.354   5.447   1.159  0.8955  0.2498  2.0207
 3138TIP3   OH230828   3.581   3.365   2.501 -0.3358 -0.8657 -0.9101
 3138TIP3    H130829   3.542   3.408   2.425 -0.6638  0.8447  0.2274
 3138TIP3    H230830   3.508   3.321   2.544 -0.8711  1.5522  0.6892
 3139TIP3   OH230831   3.731   4.549   2.425  0.2542 -0.2558  0.1900
 3139TIP3    H130832   3.719   4.603   2.503 -0.4773 -0.1100 -0.0219
 3139TIP3    H230833   3.717   4.459   2.456  0.4946 -0.2412  0.3381
 3140TIP3   OH230834   0.689   2.549  16.731  0.6371  0.2182  0.0171
 3140TIP3    H130835   0.649   2.631  16.758  0.6315  0.3230 -0.3173
 3140TIP3    H230836   0.629   2.481  16.763  0.5048  0.3514  0.0520
 3141TIP3   OH230837   6.449   6.177  14.986 -0.0575 -0.3336 -0.4543
 3141TIP3    H130838   6.461   6.091  14.946 -1.6649 -0.4570 -0.7049
 3141TIP3    H230839   6.377   6.217  14.938  0.0730  0.7941  0.2488
 3142TIP3   OH230840   0.893   3.816   3.294 -0.2791 -0.3552  0.3791
 3142TIP3    H130841   0.832   3.874   3.341  1.5072  1.0330  1.0466
 3142TIP3    H230842   0.836   3.756   3.246 -2.1965  1.2717  0.5176
 3143TIP3   OH230843   0.285   0.801  17.067 -0.6568  0.3548 -0.2383
 3143TIP3    H130844   0.310   0.763  17.150  0.4763 -0.0334 -0.7492
 3143TIP3    H230845   0.267   0.726  17.010 -1.8404  0.6191 -0.2231
 3144TIP3   OH230846   2.742   2.466  12.150  0.8725  0.8208 -0.3172
 3144TIP3    H130847   2.714   2.467  12.242  1.4556  1.3972 -0.1412
 3144TIP3    H230848   2.743   2.558  12.125 -2.7461  0.5109 -1.9830
 3145TIP3   OH230849   2.372   6.198   3.847  0.2012  0.3236  0.1765
 3145TIP3    H130850   2.369   6.280   3.797 -1.0929  0.2730  0.1510
 3145TIP3    H230851   2.451   6.206   3.900 -1.3427  2.8281  2.2408
 3146TIP3   OH230852   0.109   0.273  14.393 -0.0580  1.0547 -0.1003
 3146TIP3    H130853   0.016   0.253  14.385  0.1584  0.2121 -0.5666
 3146TIP3    H230854   0.142   0.269  14.303  0.9265 -1.1566  0.3203
 3147TIP3   OH230855   5.381   5.270  12.776 -0.4265  0.2719  0.4605
 3147TIP3    H130856   5.475   5.248  12.776 -0.5402 -0.4421  2.9514
 3147TIP3    H230857   5.369   5.323  12.698  1.8638 -0.4766 -0.4592
 3148TIP3   OH230858   1.996   1.501   0.193  0.3610  0.5454 -0.5599
 3148TIP3    H130859   2.003   1.596   0.202  0.3871  0.5570 -0.7023
 3148TIP3    H230860   2.042   1.467   0.270  0.8151  0.6417 -0.7853
 3149TIP3   OH230861   4.507   3.829   6.093  0.3096  0.3368  0.2021
 3149TIP3    H130862   4.460   3.908   6.067  1.3061  0.6596 -0.6993
 3149TIP3    H230863   4.450   3.757   6.069 -0.2086  0.7562  0.1762
 3150TIP3   OH230864   1.085   5.649   2.161  0.7451  0.1117  0.0263
 3150TIP3    H130865   1.170   5.689   2.142 -1.0416  2.4859 -3.5107
 3150TIP3    H230866   1.074   5.581   2.095 -0.8550  1.0793 -0.7473
 3151TIP3   OH230867   0.961   2.708  10.507  0.5174 -0.2886  0.0857
 3151TIP3    H130868   0.943   2.780  10.446  1.1323  1.6198  2.0958
 3151TIP3    H230869   1.054   2.690  10.497  0.4685 -0.4668 -0.0530
 3152TIP3   OH230870   3.982   4.654  11.593 -0.3539 -0.6378  0.1812
 3152TIP3    H130871   4.048   4.716  11.561 -0.8815 -0.9227 -1.5442
 3152TIP3    H230872   3.899   4.688  11.559 -0.8387 -1.4159  0.5681
 3153TIP3   OH230873   5.072   6.552   3.074  0.2530 -0.7743 -0.3733
 3153TIP3    H130874   5.143   6.500   3.035  1.4687  0.2123  0.4711
 3153TIP3    H230875   5.021   6.489   3.124  2.2779 -1.0487  1.4264
 3154TIP3   OH230876   0.871   5.120   5.185 -0.8628 -0.1478  0.4316
 3154TIP3    H130877   0.836   5.114   5.273  2.0557  2.6893  1.8750
 3154TIP3    H230878   0.931   5.045   5.178  1.1164  1.2279  1.9849
 3155TIP3   OH230879   3.156   2.970   2.597 -0.2258  0.0464 -0.1043
 3155TIP3    H130880   3.086   2.996   2.657 -0.2847 -0.7583  0.1926
 3155TIP3    H230881   3.170   2.877   2.616  1.6665  0.4412  0.6075
 3156TIP3   OH230882   5.263   5.236   2.321 -0.2674  0.4092  0.2268
 3156TIP3    H130883   5.321   5.310   2.336  0.2065  0.1743 -0.4450
 3156TIP3    H230884   5.184   5.257   2.371  0.8688  0.1404  2.2187
 3157TIP3   OH230885   3.056   2.434  14.529  0.1847  0.6485 -0.4623
 3157TIP3    H130886   3.109   2.397  14.600  2.1222  2.0465 -1.1393
 3157TIP3    H230887   3.002   2.361  14.499 -0.8466  0.0891  2.5930
 3158TIP3   OH230888   0.645   1.427   2.259  0.2471 -0.2196  0.1069
 3158TIP3    H130889   0.701   1.505   2.267  0.1244 -0.3309  2.3499
 3158TIP3    H230890   0.606   1.417   2.346 -1.7549 -1.2861 -0.8922
 3159TIP3   OH230891   6.281   1.879  13.248 -0.4125  0.1189  0.0454
 3159TIP3    H130892   6.338   1.883  13.171  0.0095  1.6503  0.4136
 3159TIP3    H230893   6.254   1.787  13.253  3.8970 -1.2341  1.1839
 3160TIP3   OH230894   6.582   6.557  15.813 -0.8898  1.1539 -0.8160
 3160TIP3    H130895   6.633   6.631  15.782  2.6965 -0.5059  0.7818
 3160TIP3    H230896   6.595   6.489  15.747  0.1599  0.2807  0.2569
 3161TIP3   OH230897   6.761   3.194  15.934 -0.6588  0.1681 -0.1764
 3161TIP3    H130898   6.833   3.135  15.913 -0.9982  0.0504 -1.0587
 3161TIP3    H230899   6.801   3.280  15.937 -0.1918 -0.0844  0.9324
 3162TIP3   OH230900   1.835   3.963   4.445 -0.4212 -0.1431 -0.4088
 3162TIP3    H130901   1.865   4.026   4.380 -0.8610 -0.9574 -1.4154
 3162TIP3    H230902   1.911   3.906   4.460 -0.5887 -0.5004 -0.8861
 3163TIP3   OH230903   1.099   6.111   2.803  0.7044 -0.0379  0.3902
 3163TIP3    H130904   1.006   6.132   2.792 -0.0926 -2.2149  2.3669
 3163TIP3    H230905   1.120   6.057   2.727 -0.4712 -1.8764  1.3088
 3164TIP3   OH230906   4.224   0.706  15.627 -0.6006 -0.0243 -0.7531
 3164TIP3    H130907   4.244   0.778  15.688  0.6897 -0.5151 -0.5747
 3164TIP3    H230908   4.294   0.642  15.641 -1.4875 -1.1285 -1.2262
 3165TIP3   OH230909   4.188   0.641  11.349  0.1635 -0.1046  0.2221
 3165TIP3    H130910   4.273   0.599  11.344  0.0166 -0.3540 -0.2038
 3165TIP3    H230911   4.128   0.579  11.307 -0.1660  0.2293  0.1977
 3166TIP3   OH230912   6.295   5.726  11.215 -0.5732  0.1315 -0.1008
 3166TIP3    H130913   6.365   5.785  11.187  0.5925 -0.6240  1.1784
 3166TIP3    H230914   6.215   5.778  11.205  0.0543  0.7575 -2.2971
 3167TIP3   OH230915   1.904   3.369   4.268 -0.0653 -0.7828 -0.1234
 3167TIP3    H130916   1.908   3.435   4.199 -1.4008  1.7066  2.0773
 3167TIP3    H230917   1.995   3.348   4.287  0.6265  3.4221  1.8016
 3168TIP3   OH230918   6.781   2.295  15.716 -0.0166  0.1793  0.1424
 3168TIP3    H130919   6.850   2.323  15.657 -0.7838 -0.0236 -0.8796
 3168TIP3    H230920   6.773   2.366  15.780  1.1618  0.1730  0.2983
 3169TIP3   OH230921   0.879   3.378   5.847  0.3426 -0.0589 -0.0260
 3169TIP3    H130922   0.878   3.383   5.942  3.0190  2.2926 -0.0575
 3169TIP3    H230923   0.962   3.336   5.826  0.3022  0.4925 -1.3491
 3170TIP3   OH230924   4.195   1.140  12.726  0.0282  0.2648  0.2451
 3170TIP3    H130925   4.191   1.127  12.821 -0.3789  0.2007  0.2200
 3170TIP3    H230926   4.287   1.124  12.704 -0.2023 -1.3411  0.3963
 3171TIP3   OH230927   3.225   4.531   4.715  0.3897 -0.2475  0.0005
 3171TIP3    H130928   3.164   4.471   4.672  3.0212 -2.3526 -0.8796
 3171TIP3    H230929   3.245   4.490   4.798 -0.0564  0.8918  0.6839
 3172TIP3   OH230930   0.799   4.588  17.133 -0.6255 -0.3419  0.5666
 3172TIP3    H130931   0.730   4.546  17.184 -1.4183 -0.2836 -0.4356
 3172TIP3    H230932   0.880   4.547  17.163 -0.7521  1.6911  3.8992
 3173TIP3   OH230933   2.520   6.241   2.497  0.2582  0.1085 -0.0116
 3173TIP3    H130934   2.547   6.156   2.461  1.4156  0.9559 -1.1873
 3173TIP3    H230935   2.598   6.275   2.541  0.1460  1.0900 -0.5587
 3174TIP3   OH230936   2.194   3.604  10.580 -0.3514  0.1402  0.0659
 3174TIP3    H130937   2.187   3.555  10.662 -1.4464  0.0376 -0.0776
 3174TIP3    H230938   2.258   3.555  10.528  0.8159  0.5563  1.0879
 3175TIP3   OH230939   1.986   3.898   1.216 -0.5076 -0.4765 -0.2312
 3175TIP3    H130940   1.956   3.883   1.306  0.9217  1.4528  0.5976
 3175TIP3    H230941   1.915   3.946   1.175 -0.5531 -0.0639  0.3176
 3176TIP3   OH230942   5.861   5.342   0.971 -0.1620  0.3422 -0.0494
 3176TIP3    H130943   5.937   5.397   0.988 -0.5703  1.1651 -0.8188
 3176TIP3    H230944   5.794   5.373   1.032 -0.4599  0.8543 -0.6282
 3177TIP3   OH230945   3.561   2.939  14.762 -0.7855 -0.2785 -0.2107
 3177TIP3    H130946   3.526   2.868  14.707 -0.0994 -1.5027  0.9141
 3177TIP3    H230947   3.487   2.965  14.816 -0.3767 -1.9218  1.1892
 3178TIP3   OH230948   2.436   6.381  12.466 -0.6123  0.3762 -0.6607
 3178TIP3    H130949   2.389   6.301  12.490 -1.9811  1.0594 -1.0351
 3178TIP3    H230950   2.370   6.436  12.424  0.8346  0.7875 -2.4798
 3179TIP3   OH230951   0.432   6.575   0.571  0.4624  0.4234  0.0221
 3179TIP3    H130952   0.508   6.518   0.567  1.1857  1.1916  2.1509
 3179TIP3    H230953   0.358   6.519   0.549  1.5669 -0.4877 -1.3589
 3180TIP3   OH230954   4.540   0.744   3.281  0.5907 -0.2303 -0.1595
 3180TIP3    H130955   4.548   0.742   3.186  0.8414 -0.4011 -0.1367
 3180TIP3    H230956   4.586   0.824   3.307  1.6076 -0.8256 -0.0879
 3181TIP3   OH230957   4.193   2.881  13.112  0.1466 -0.7697 -0.3044
 3181TIP3    H130958   4.256   2.916  13.049 -0.6875  2.9572  0.7924
 3181TIP3    H230959   4.227   2.908  13.197 -1.1890 -1.6359  0.5233
 3182TIP3   OH230960   0.601   4.275   1.614 -0.1850 -0.3194 -0.3332
 3182TIP3    H130961   0.632   4.365   1.609 -1.0952  0.0112 -0.2078
 3182TIP3    H230962   0.529   4.277   1.678 -1.2602 -0.8100 -1.4937
 3183TIP3   OH230963   1.689   2.282   1.102 -0.1311  0.4488  0.0011
 3183TIP3    H130964   1.685   2.375   1.124 -0.3269  1.1262 -2.6482
 3183TIP3    H230965   1.601   2.249   1.123 -0.4815  1.1746 -0.2986
 3184TIP3   OH230966   0.544   2.008  13.002  1.0370 -0.1343 -0.8451
 3184TIP3    H130967   0.490   1.972  13.072  0.6223 -1.8678 -2.0369
 3184TIP3    H230968   0.600   2.073  13.046 -0.4219  0.0653  0.7753
 3185TIP3   OH230969   2.299   4.031  13.876  0.7129  0.1239  0.1874
 3185TIP3    H130970   2.386   4.014  13.841  0.0985 -0.1413 -1.2232
 3185TIP3    H230971   2.246   3.958  13.845 -0.6667  1.7478 -1.3231
 3186TIP3   OH230972   2.167   3.374  10.715 -0.6164 -0.1302 -0.0776
 3186TIP3    H130973   2.236   3.311  10.695 -1.0947 -0.2820 -1.2595
 3186TIP3    H230974   2.093   3.320  10.743 -1.2099 -0.1396 -1.6256
 3187TIP3   OH230975   4.587   3.307   1.123  0.0491  0.0445  0.1554
 3187TIP3    H130976   4.620   3.221   1.149 -0.3730 -0.9834 -2.4989
 3187TIP3    H230977   4.664   3.352   1.089 -0.0331  0.0970  0.0384
 3188TIP3   OH230978   3.543   2.894  16.242 -0.4515 -0.7995  0.0087
 3188TIP3    H130979   3.621   2.888  16.298 -0.8878 -1.1082  0.5863
 3188TIP3    H230980   3.577   2.880  16.154  0.2106 -0.5105  0.2112
 3189TIP3   OH230981   4.129   3.905   6.742  0.3219  0.1214  0.2990
 3189TIP3    H130982   4.211   3.891   6.695  0.8531 -1.5778  1.7270
 3189TIP3    H230983   4.077   3.827   6.723 -0.9864  1.1606 -0.5583
 3190TIP3   OH230984   4.863   0.760   4.830  0.2906  0.0882 -0.2083
 3190TIP3    H130985   4.840   0.691   4.768  2.0159  1.2283 -2.1741
 3190TIP3    H230986   4.899   0.714   4.906 -2.0169 -1.3316  0.1012
 3191TIP3   OH230987   3.225   1.678  13.346  0.0679  0.1042  0.4916
 3191TIP3    H130988   3.272   1.748  13.391 -1.8242  2.7252 -1.4488
 3191TIP3    H230989   3.145   1.667  13.398 -0.2801  0.3774  0.0182
 3192TIP3   OH230990   1.348   6.502  16.377  0.3599 -0.1313 -0.5356
 3192TIP3    H130991   1.278   6.547  16.330  1.6571 -0.8356 -3.2284
 3192TIP3    H230992   1.303   6.457  16.449 -1.4826  2.0170 -0.2721
 3193TIP3   OH230993   6.639   2.798  13.902  0.4035 -0.0866  0.0652
 3193TIP3    H130994   6.685   2.815  13.820  1.3557 -3.8401 -0.2519
 3193TIP3    H230995   6.547   2.787  13.877  0.1422  2.0191 -0.0099
 3194TIP3   OH230996   2.458   6.505   2.416  0.2474  0.1344 -0.0723
 3194TIP3    H130997   2.467   6.418   2.453  0.0618  0.2903  0.3386
 3194TIP3    H230998   2.526   6.510   2.349  0.4344 -0.2261  0.0912
 3195TIP3   OH230999   5.866   5.427  12.876  0.0933  0.1134  0.3650
 3195TIP3    H131000   5.906   5.478  12.805  0.9058 -1.5643 -0.4015
 3195TIP3    H231001   5.925   5.352  12.887 -0.3397  0.0762  2.4351
 3196TIP3   OH231002   2.225   3.086   3.786  0.2787 -0.2292  0.8776
 3196TIP3    H131003   2.316   3.117   3.782  0.1100  0.0481 -1.4865
 3196TIP3    H231004   2.231   2.993   3.766 -0.2308  0.4147 -2.5516
 3197TIP3   OH231005   1.232   3.377   3.227  0.3574 -0.3756 -0.5667
 3197TIP3    H131006   1.303   3.399   3.166  0.6487 -0.7707 -0.3703
 3197TIP3    H231007   1.262   3.298   3.272  0.1936 -0.0206  0.1748
 3198TIP3   OH231008   4.838   4.063   2.137 -0.1467  0.2018  0.3907
 3198TIP3    H131009   4.862   4.010   2.213  0.2425 -0.2978 -0.0747
 3198TIP3    H231010   4.837   4.001   2.064  2.5702  1.2186 -0.5838
 3199TIP3   OH231011   2.050   0.224  11.761  0.0075  0.3624  0.0412
 3199TIP3    H131012   1.995   0.235  11.683 -0.5401  0.2149  0.3994
 3199TIP3    H231013   2.007   0.276  11.828 -0.2486 -0.5426  0.5946
 3200TIP3   OH231014   6.377   5.755  11.723 -0.6272  0.3597  0.5566
 3200TIP3    H131015   6.392   5.739  11.817  0.0443  1.9871  0.7564
 3200TIP3    H231016   6.465   5.754  11.685 -1.0452 -2.3344 -0.4430
 3201TIP3   OH231017   2.184   4.862   4.951  0.0828 -0.4405  0.3348
 3201TIP3    H131018   2.123   4.920   4.904 -0.0122 -0.5827  0.2824
 3201TIP3    H231019   2.235   4.921   5.007  0.2861 -0.2571 -0.0449
 3202TIP3   OH231020   6.198   5.395   0.553  0.2967  0.1494 -0.5009
 3202TIP3    H131021   6.133   5.451   0.596  0.9037  0.1262  0.4485
 3202TIP3    H231022   6.281   5.440   0.563  0.5359 -0.1257 -1.1759
 3203TIP3   OH231023   2.583   2.608   4.241 -0.3514  0.3973 -0.0040
 3203TIP3    H131024   2.509   2.547   4.242  0.6005 -0.8107 -0.9244
 3203TIP3    H231025   2.576   2.655   4.323 -0.8661 -1.2666  0.9320
 3204TIP3   OH231026   1.317   1.788  15.938 -0.0189  0.2159 -0.6570
 3204TIP3    H131027   1.235   1.739  15.943 -0.7630  1.5108  0.2701
 3204TIP3    H231028   1.384   1.724  15.961 -0.7630 -0.8580 -1.4197
 3205TIP3   OH231029   4.137   6.283   1.705  0.4582 -0.4823 -0.2505
 3205TIP3    H131030   4.192   6.341   1.759  0.5403 -1.4343  0.7101
 3205TIP3    H231031   4.131   6.202   1.756 -1.9192 -0.3708 -0.2927
 3206TIP3   OH231032   5.304   1.366  12.728 -0.0969  0.2071  0.1909
 3206TIP3    H131033   5.375   1.348  12.666  0.6711  0.9181  0.8444
 3206TIP3    H231034   5.238   1.299  12.710  1.4984 -1.5601  0.7435
 3207TIP3   OH231035   0.119   2.681  14.398  0.0799 -0.1468  0.1340
 3207TIP3    H131036   0.061   2.754  14.419 -0.3523 -0.4612  0.0428
 3207TIP3    H231037   0.084   2.607  14.447  0.2031 -0.4205 -0.1844
 3208TIP3   OH231038   0.151   1.618   6.176  0.4174  0.0099  0.5243
 3208TIP3    H131039   0.154   1.677   6.251 -1.0333  0.2776  0.3931
 3208TIP3    H231040   0.091   1.548   6.203 -1.0925  0.7417 -0.8026
 3209TIP3   OH231041   2.645   4.562   5.507  0.1569 -0.7873 -0.2727
 3209TIP3    H131042   2.667   4.567   5.600  1.6949  0.4437 -0.6823
 3209TIP3    H231043   2.554   4.592   5.502 -0.3746 -2.1333  0.9817
 3210TIP3   OH231044   4.917   5.573  10.871 -0.1139  0.1362  0.1311
 3210TIP3    H131045   4.974   5.502  10.840  2.0369  1.6504  0.4877
 3210TIP3    H231046   4.906   5.629  10.794  0.2880  0.7498  0.5221
 3211TIP3   OH231047   3.679   0.259   5.809 -0.2844  0.0202 -0.1226
 3211TIP3    H131048   3.640   0.246   5.723 -1.9508  0.0699  0.5898
 3211TIP3    H231049   3.671   0.353   5.825  2.7653  0.4963 -1.1507
 3212TIP3   OH231050   4.283   6.069  14.903 -0.0728 -0.1169  0.4320
 3212TIP3    H131051   4.369   6.110  14.913  0.8028 -2.0011  0.7712
 3212TIP3    H231052   4.221   6.133  14.939  0.9180  2.2283 -1.8313
 3213TIP3   OH231053   6.655   5.178  15.062  0.2410  0.0346  0.5520
 3213TIP3    H131054   6.698   5.186  15.147 -0.1359 -1.4628  0.8953
 3213TIP3    H231055   6.661   5.265  15.024  0.4011  0.7230  2.1202
 3214TIP3   OH231056   3.386   2.014  12.254 -0.5390 -0.1703  0.0913
 3214TIP3    H131057   3.318   2.048  12.196 -0.4345 -0.9987 -0.5192
 3214TIP3    H231058   3.466   2.059  12.227 -0.2213 -1.5314 -1.3183
 3215TIP3   OH231059   2.837   5.374   5.564 -0.6291  0.0773 -0.0206
 3215TIP3    H131060   2.806   5.447   5.617 -0.4945 -0.9316  1.5006
 3215TIP3    H231061   2.865   5.308   5.628 -0.2757 -1.1062 -1.3539
 3216TIP3   OH231062   3.367   6.232  16.793  0.1039  0.8325  0.2804
 3216TIP3    H131063   3.288   6.276  16.826 -0.0224  1.0149 -0.2521
 3216TIP3    H231064   3.414   6.205  16.871  0.6823  2.7960  0.6391
 3217TIP3   OH231065   2.104   6.428  12.992 -1.0366 -0.0558 -0.6209
 3217TIP3    H131066   2.148   6.382  13.064  0.6105  0.3835 -1.3326
 3217TIP3    H231067   2.053   6.497  13.036 -0.1455  0.1216  0.1510
 3218TIP3   OH231068   2.669   3.459  12.093 -0.0300  0.3195  0.3573
 3218TIP3    H131069   2.684   3.513  12.171  0.3994 -1.6807  1.6809
 3218TIP3    H231070   2.576   3.468  12.074 -0.5394 -0.6991  2.2633
 3219TIP3   OH231071   0.376   0.391   2.066 -0.2201  0.1034  0.3052
 3219TIP3    H131072   0.444   0.396   1.999 -0.8387  0.6695 -0.2858
 3219TIP3    H231073   0.293   0.393   2.017 -0.6585 -1.2595  0.9770
 3220TIP3   OH231074   0.350   2.377  12.015  0.0994  0.1755  0.0512
 3220TIP3    H131075   0.412   2.331  11.959 -0.1880 -0.8735  0.5866
 3220TIP3    H231076   0.302   2.308  12.060 -1.0043  0.9859  0.1456
 3221TIP3   OH231077   4.031   4.871   3.633 -0.1777 -0.4206 -0.4871
 3221TIP3    H131078   3.976   4.936   3.677  1.3220  1.9084 -1.9689
 3221TIP3    H231079   3.969   4.805   3.602 -1.7189  0.2081  1.1266
 3222TIP3   OH231080   5.429   6.069  15.527  1.1618 -0.4062 -0.0081
 3222TIP3    H131081   5.493   6.001  15.506  2.0992  0.3734  0.2838
 3222TIP3    H231082   5.482   6.146  15.550  0.1256  0.1122  0.7028
 3223TIP3   OH231083   6.164   6.247   4.526 -0.0007  0.7813  0.1300
 3223TIP3    H131084   6.097   6.186   4.558  0.2124  0.3295 -0.2902
 3223TIP3    H231085   6.117   6.305   4.466  0.1274  0.0298 -0.6986
 3224TIP3   OH231086   4.227   6.272  11.948  0.3606 -0.1241  0.3831
 3224TIP3    H131087   4.269   6.305  12.028 -2.2910  1.4504  1.2305
 3224TIP3    H231088   4.156   6.216  11.980  0.4227 -0.9603 -0.9206
 3225TIP3   OH231089   2.194   5.441  17.018 -0.2218  0.5428 -0.4413
 3225TIP3    H131090   2.155   5.358  16.992  1.5236 -0.2953 -0.4444
 3225TIP3    H231091   2.251   5.465  16.945  1.5806  0.2161  0.8056
 3226TIP3   OH231092   2.903   5.042  15.094  0.1642 -0.4573  0.4347
 3226TIP3    H131093   2.983   5.090  15.117  0.2207 -0.1616 -0.3778
 3226TIP3    H231094   2.841   5.109  15.067  1.5143 -1.0233 -4.5990
 3227TIP3   OH231095   5.299   2.770  12.936  0.0322 -0.5055 -1.1128
 3227TIP3    H131096   5.286   2.775  12.841 -0.3769  1.4287 -0.9680
 3227TIP3    H231097   5.243   2.838  12.972  0.6052 -0.8584  0.4929
 3228TIP3   OH231098   5.011   5.846  11.791 -0.8899 -0.5385  0.1421
 3228TIP3    H131099   4.925   5.887  11.790 -0.0698  1.1882 -0.1266
 3228TIP3    H231100   4.992   5.752  11.782 -2.6493 -0.0425 -1.7944
 3229TIP3   OH231101   6.023   1.008  14.661 -0.4085  0.0764 -0.0547
 3229TIP3    H131102   5.951   0.953  14.694  1.3060 -1.8252  0.6188
 3229TIP3    H231103   6.098   0.949  14.659  1.3807  2.3075  0.2374
 3230TIP3   OH231104   0.191   5.014   3.028 -0.1178 -0.0817  0.2124
 3230TIP3    H131105   0.182   4.919   3.035 -0.4460 -0.0988 -0.4195
 3230TIP3    H231106   0.102   5.047   3.039 -0.0151  0.1468  0.3516
 3231TIP3   OH231107   6.625   4.601  15.598 -0.4721 -0.2529  0.2941
 3231TIP3    H131108   6.708   4.632  15.562 -2.0305  1.7326 -1.6702
 3231TIP3    H231109   6.597   4.670  15.658 -0.9112 -0.7337  0.6538
 3232TIP3   OH231110   2.047   5.866   6.431  0.2705 -0.2958  0.4892
 3232TIP3    H131111   1.988   5.791   6.422 -0.4451  0.1272  1.6342
 3232TIP3    H231112   2.108   5.841   6.500 -0.6842  0.6071  1.7038
 3233TIP3   OH231113   3.955   1.154   2.214  0.5921  0.1797 -0.0966
 3233TIP3    H131114   3.878   1.106   2.183  0.1183  0.9389 -0.1055
 3233TIP3    H231115   3.934   1.246   2.198  1.6508  0.3739 -0.4412
 3234TIP3   OH231116   4.592   1.336  16.774  0.0547 -0.2341  0.1960
 3234TIP3    H131117   4.590   1.301  16.685 -3.1628 -1.5352  0.6993
 3234TIP3    H231118   4.668   1.294  16.814  0.0783 -1.5834 -1.1962
 3235TIP3   OH231119   1.424   6.611   4.472 -0.7482 -0.2492  0.0551
 3235TIP3    H131120   1.392   6.536   4.522 -0.3552 -0.3091  0.2200
 3235TIP3    H231121   1.478   6.660   4.534 -1.4425  0.4627  0.0992
 3236TIP3   OH231122   5.494   4.574  12.135 -0.0639  0.5468 -0.1533
 3236TIP3    H131123   5.453   4.490  12.154  2.1757 -0.5434  0.0333
 3236TIP3    H231124   5.475   4.629  12.211  0.0177 -0.3831  0.5382
 3237TIP3   OH231125   6.312   3.217   3.727  0.1291  0.6477  0.2642
 3237TIP3    H131126   6.287   3.294   3.675 -0.0710  0.8535  0.6615
 3237TIP3    H231127   6.405   3.232   3.747  0.3340  0.3376 -0.4261
 3238TIP3   OH231128   4.926   4.632   0.570  0.6358  0.1558 -0.4583
 3238TIP3    H131129   4.982   4.702   0.604 -1.8747  2.4449 -0.8552
 3238TIP3    H231130   4.868   4.610   0.643 -0.6019  0.6675 -1.2633
 3239TIP3   OH231131   1.761   2.170  10.967  0.7378  0.1596 -0.4190
 3239TIP3    H131132   1.702   2.202  10.899 -0.6936  0.3950  0.9141
 3239TIP3    H231133   1.704   2.132  11.034  2.1554 -0.7406  0.3260
 3240TIP3   OH231134   5.055   5.025  16.264  0.3301  0.4227 -0.3450
 3240TIP3    H131135   5.075   4.988  16.349 -3.1827  0.1241  0.4589
 3240TIP3    H231136   5.056   5.120  16.279 -2.4245  0.3470  0.6584
 3241TIP3   OH231137   4.604   6.521  14.708  0.0835  0.6918 -0.3529
 3241TIP3    H131138   4.567   6.469  14.637  0.3754 -0.9284  0.6568
 3241TIP3    H231139   4.603   6.611  14.674 -2.7395  0.4077 -1.1670
 3242TIP3   OH231140   3.095   0.874   0.443 -0.2205 -0.4361 -0.3983
 3242TIP3    H131141   3.103   0.785   0.409 -1.6519 -0.5297 -0.5160
 3242TIP3    H231142   3.083   0.864   0.537  0.3870 -0.3237 -0.3044
 3243TIP3   OH231143   2.893   5.006  14.382  0.2867 -0.8538  0.0198
 3243TIP3    H131144   2.960   4.937  14.383  1.7457  0.5216  1.0194
 3243TIP3    H231145   2.906   5.052  14.465 -1.0560  0.2533 -0.3777
 3244TIP3   OH231146   0.344   4.477   3.387 -0.0960  1.1285 -0.9358
 3244TIP3    H131147   0.284   4.423   3.335  0.2890 -1.7109  1.4107
 3244TIP3    H231148   0.287   4.532   3.441 -0.6143 -0.2322 -0.0606
 3245TIP3   OH231149   5.556   4.738  12.528  0.1799  0.1332 -0.3696
 3245TIP3    H131150   5.492   4.666  12.520 -1.5983  1.5796  0.4137
 3245TIP3    H231151   5.541   4.773  12.616  2.8160 -0.1662  0.2315
 3246TIP3   OH231152   1.110   2.961  12.773  0.3932  0.4752  0.4754
 3246TIP3    H131153   1.151   3.041  12.806  1.4173  0.3449 -0.4148
 3246TIP3    H231154   1.134   2.960  12.680  0.1079 -0.6981  0.4132
 3247TIP3   OH231155   2.368   0.506   3.430 -0.1355  0.1476  0.4324
 3247TIP3    H131156   2.392   0.496   3.523 -0.1620  1.4123  0.5850
 3247TIP3    H231157   2.451   0.523   3.386 -0.2050  0.2136  0.3279
 3248TIP3   OH231158   0.573   1.145  12.634  0.2046  0.3585  0.1559
 3248TIP3    H131159   0.548   1.140  12.726 -0.4252 -1.5180 -0.0985
 3248TIP3    H231160   0.526   1.073  12.592  3.1775 -0.9844 -1.0124
 3249TIP3   OH231161   5.308   6.729   0.432  0.8904  0.3604 -0.4695
 3249TIP3    H131162   5.261   6.807   0.464  0.6706 -0.0998  0.3384
 3249TIP3    H231163   5.242   6.660   0.432  1.3554 -0.0824 -0.1701
 3250TIP3   OH231164   3.323   0.527  17.107 -0.2083 -0.3758  0.6124
 3250TIP3    H131165   3.302   0.532  17.200  0.5196 -2.2840  0.9194
 3250TIP3    H231166   3.380   0.450  17.100  1.0227  0.6628 -1.1799
 3251TIP3   OH231167   6.316   4.859   3.404  0.3016 -0.7267  0.8461
 3251TIP3    H131168   6.226   4.892   3.398  0.5445 -0.1800  0.1318
 3251TIP3    H231169   6.312   4.790   3.471 -0.1908  0.8469  2.4968
 3252TIP3   OH231170   0.925   4.863   0.146 -0.3265  0.2998 -0.5472
 3252TIP3    H131171   1.009   4.824   0.171 -0.7875  0.7144  1.7417
 3252TIP3    H231172   0.925   4.859   0.051  0.3898 -3.7070 -0.4704
 3253TIP3   OH231173   0.994   2.654  15.592  0.0341 -0.7398 -0.0480
 3253TIP3    H131174   0.928   2.596  15.632 -0.4786 -1.1271 -1.4042
 3253TIP3    H231175   0.960   2.670  15.503  1.3662 -0.2853 -0.4832
 3254TIP3   OH231176   1.233   5.891   1.869 -0.0672  0.0417  0.2158
 3254TIP3    H131177   1.148   5.849   1.881  0.3733 -0.5874  1.2609
 3254TIP3    H231178   1.218   5.959   1.803 -0.7548 -1.8632 -1.6297
 3255TIP3   OH231179   0.300   6.134  11.446  0.9412 -0.2054  0.2588
 3255TIP3    H131180   0.225   6.080  11.420 -0.4234  0.4367  2.7203
 3255TIP3    H231181   0.293   6.212  11.391  1.7182 -1.5777 -1.8401
 3256TIP3   OH231182   0.299   1.450  13.207  0.1001 -0.6004  0.1328
 3256TIP3    H131183   0.245   1.480  13.281  0.1644 -1.7644  0.6689
 3256TIP3    H231184   0.328   1.530  13.164 -1.1996  0.0621  0.4684
 3257TIP3   OH231185   5.186   6.283  11.863 -0.4575  0.2669  0.2288
 3257TIP3    H131186   5.168   6.369  11.825  1.5671 -0.0800 -1.6442
 3257TIP3    H231187   5.156   6.221  11.797 -4.1731 -0.5707  2.6198
 3258TIP3   OH231188   1.741   6.703   1.552  0.4568 -0.4125 -0.4655
 3258TIP3    H131189   1.709   6.780   1.598 -0.9688 -1.6397  0.6215
 3258TIP3    H231190   1.693   6.703   1.469  0.6395 -0.0088 -0.5750
 3259TIP3   OH231191   6.047   1.185  15.397  0.1167 -0.1539  0.3334
 3259TIP3    H131192   5.957   1.173  15.368 -0.0255 -0.1280  0.7656
 3259TIP3    H231193   6.059   1.280  15.399  0.1629 -0.1574  0.2547
 3260TIP3   OH231194   2.907   4.386  12.835  0.3289 -0.4188 -0.5696
 3260TIP3    H131195   2.879   4.463  12.785  0.3884  0.3806  0.6056
 3260TIP3    H231196   2.933   4.323  12.768 -1.5079 -0.1234 -1.6217
 3261TIP3   OH231197   3.139   4.217  12.039 -0.4240  0.6890 -0.7083
 3261TIP3    H131198   3.167   4.299  11.997  0.5820  1.4680  1.4245
 3261TIP3    H231199   3.066   4.242  12.095 -0.2413  0.0883 -0.1924
 3262TIP3   OH231200   2.051   5.901   5.486 -0.1051  0.3382 -0.5333
 3262TIP3    H131201   2.133   5.866   5.450 -0.4433 -2.0293  0.8478
 3262TIP3    H231202   1.983   5.871   5.426 -0.2005  0.2234 -0.3700
 3263TIP3   OH231203   1.990   0.689  16.951  0.1067 -0.4634  0.0779
 3263TIP3    H131204   2.015   0.599  16.930  0.9657 -0.0002 -0.8957
 3263TIP3    H231205   2.050   0.715  17.021  0.8172 -0.1564 -0.6394
 3264TIP3   OH231206   2.253   1.001  15.865  0.2733 -0.0209 -0.0718
 3264TIP3    H131207   2.226   1.007  15.774 -1.3102 -1.0979  0.3071
 3264TIP3    H231208   2.246   1.090  15.899 -0.0638  0.2125 -0.7556
 3265TIP3   OH231209   4.344   6.740   4.855  0.0219 -0.1068  0.8302
 3265TIP3    H131210   4.394   6.663   4.830  0.9649  0.7351  0.0743
 3265TIP3    H231211   4.316   6.723   4.945 -0.4150 -1.6443  0.4243
 3266TIP3   OH231212   1.146   0.623   2.982 -0.6728  0.5155  0.2399
 3266TIP3    H131213   1.066   0.576   3.009 -0.3666  0.1785  0.5651
 3266TIP3    H231214   1.146   0.617   2.887 -0.2500 -0.7932  0.3129
 3267TIP3   OH231215   3.209   2.287   2.219  0.1453  0.0943  0.4052
 3267TIP3    H131216   3.250   2.357   2.168 -0.6997 -0.1181 -0.5659
 3267TIP3    H231217   3.268   2.212   2.209 -0.1725 -0.0381 -0.5165
 3268TIP3   OH231218   3.533   1.563  11.879 -0.1207 -0.0214 -0.1217
 3268TIP3    H131219   3.575   1.486  11.841  0.3965 -0.3988  1.2061
 3268TIP3    H231220   3.570   1.636  11.830  1.2340 -0.4320  0.2566
 3269TIP3   OH231221   1.352   2.389   1.844 -0.3109  0.5454 -0.3891
 3269TIP3    H131222   1.279   2.343   1.802 -0.3878  1.7275 -1.5996
 3269TIP3    H231223   1.332   2.482   1.830  0.2897  0.9277  1.2324
 3270TIP3   OH231224   4.745   1.503  13.200 -0.4917 -0.5227 -0.5647
 3270TIP3    H131225   4.660   1.504  13.243 -0.1888  0.2438  0.0384
 3270TIP3    H231226   4.790   1.427  13.238  0.0611  0.5871  1.0819
 3271TIP3   OH231227   5.487   4.331   0.494  0.2213  0.1192 -0.0901
 3271TIP3    H131228   5.583   4.323   0.498  0.1843 -0.5143 -0.3474
 3271TIP3    H231229   5.458   4.245   0.463 -0.4906  0.0259  0.8177
 3272TIP3   OH231230   3.782   2.042  12.553 -0.2365 -0.3473  1.0857
 3272TIP3    H131231   3.747   1.986  12.483 -2.3340 -1.8098  3.2397
 3272TIP3    H231232   3.812   1.981  12.619  0.7693  1.0497  1.9386
 3273TIP3   OH231233   1.492   4.860  10.645 -0.1959 -0.3103 -0.1858
 3273TIP3    H131234   1.488   4.829  10.555  0.4156 -1.6326  0.2316
 3273TIP3    H231235   1.404   4.893  10.664 -0.6946 -1.2806 -0.8195
 3274TIP3   OH231236   4.453   0.870  12.658  0.2558  0.2539  0.0266
 3274TIP3    H131237   4.406   0.807  12.712 -0.9988  1.5151  0.4323
 3274TIP3    H231238   4.544   0.863  12.686  0.2448 -1.8174 -0.3782
 3275TIP3   OH231239   4.843   1.371   6.060  0.3390 -0.1647 -0.1776
 3275TIP3    H131240   4.877   1.310   6.126 -0.2873 -0.3583 -0.0299
 3275TIP3    H231241   4.803   1.314   5.994 -2.3587  0.1272  1.1171
 3276TIP3   OH231242   1.322   0.651  12.588  0.1115 -0.3899 -0.2045
 3276TIP3    H131243   1.272   0.574  12.617 -0.5054  0.2022  0.3261
 3276TIP3    H231244   1.258   0.704  12.540  1.5102 -2.1380 -4.1063
 3277TIP3   OH231245   3.792   4.483  11.976  0.0819 -0.4460 -0.6615
 3277TIP3    H131246   3.721   4.504  11.915  1.3193 -0.6694 -2.2188
 3277TIP3    H231247   3.749   4.436  12.047 -1.2557 -1.0581 -1.8411
 3278TIP3   OH231248   0.829   5.890   1.636 -0.0441  0.0043 -0.1985
 3278TIP3    H131249   0.828   5.955   1.566  2.7967 -0.7536 -0.9905
 3278TIP3    H231250   0.836   5.806   1.590 -2.2735 -0.8171  0.8699
 3279TIP3   OH231251   6.383   6.646   1.001  0.2879 -0.2623  0.0023
 3279TIP3    H131252   6.454   6.588   1.029  1.3303  1.0976  0.2586
 3279TIP3    H231253   6.423   6.699   0.931 -0.9284 -0.4961 -0.8871
 3280TIP3   OH231254   4.800   5.781   4.991  0.7137 -0.2195  0.3255
 3280TIP3    H131255   4.853   5.773   4.912 -0.3325 -0.0148 -0.4067
 3280TIP3    H231256   4.858   5.821   5.056  1.6092 -0.5059 -0.2970
 3281TIP3   OH231257   0.746   0.801   1.719 -0.1883 -0.2594 -0.0915
 3281TIP3    H131258   0.670   0.859   1.731  1.6153  2.2224 -0.4047
 3281TIP3    H231259   0.819   0.860   1.703  2.3402 -2.4912  2.6890
 3282TIP3   OH231260   6.287   3.060  11.442 -0.4298 -0.1270 -0.1987
 3282TIP3    H131261   6.233   3.026  11.371 -0.6305  1.5634 -0.8879
 3282TIP3    H231262   6.288   3.155  11.428  1.1661  0.0454  0.8938
 3283TIP3   OH231263   4.286   3.064  11.721  0.1230  0.1147  0.4023
 3283TIP3    H131264   4.191   3.077  11.715  0.4231  2.2397 -0.0243
 3283TIP3    H231265   4.321   3.107  11.643  1.4909 -0.1197  0.8761
 3284TIP3   OH231266   6.198   0.411  16.302 -0.3303 -0.3545 -0.1012
 3284TIP3    H131267   6.158   0.339  16.254  0.0751 -0.5798 -0.1027
 3284TIP3    H231268   6.203   0.483  16.240 -1.1472 -0.1830  0.0360
 3285TIP3   OH231269   0.359   1.525   6.405 -0.0117  0.0958  0.7365
 3285TIP3    H131270   0.377   1.619   6.409 -1.7961  0.6175 -2.0972
 3285TIP3    H231271   0.277   1.514   6.454  0.6349 -0.1267  1.7781
 3286TIP3   OH231272   1.116   4.631   1.453 -0.7246  0.6607 -0.1240
 3286TIP3    H131273   1.191   4.616   1.397  0.1157 -2.1554  1.6203
 3286TIP3    H231274   1.055   4.560   1.431 -0.5833 -0.2058  2.1164
 3287TIP3   OH231275   2.116   2.004   0.575 -0.0996 -0.7264 -0.3552
 3287TIP3    H131276   2.120   2.081   0.632 -1.6602 -0.8023 -0.1044
 3287TIP3    H231277   2.042   2.022   0.517  0.5606 -1.3140 -1.3766
 3288TIP3   OH231278   3.074   3.886   3.870 -0.0061 -0.0648  0.1263
 3288TIP3    H131279   3.050   3.901   3.962  0.3935 -0.1886  0.2503
 3288TIP3    H231280   3.107   3.796   3.869 -1.9295 -0.8065 -0.5160
 3289TIP3   OH231281   1.168   6.555   3.861 -0.7942 -0.1527 -0.1178
 3289TIP3    H131282   1.106   6.494   3.902  0.2971 -1.4665 -0.3618
 3289TIP3    H231283   1.181   6.623   3.927 -0.8198 -1.0195  0.8088
 3290TIP3   OH231284   0.973   0.815   1.085  0.0369 -0.2785 -0.3180
 3290TIP3    H131285   0.952   0.868   1.008 -0.2500 -0.9069 -0.6870
 3290TIP3    H231286   1.021   0.740   1.049 -0.6014 -0.8666  0.0471
 3291TIP3   OH231287   0.547   2.996   1.835  0.6444  0.3357 -0.1044
 3291TIP3    H131288   0.499   2.920   1.867  3.0258 -0.6740  1.2261
 3291TIP3    H231289   0.527   3.000   1.741  2.0648 -3.1460 -0.6198
 3292TIP3   OH231290   3.717   3.711  14.788  0.1950  0.1349  0.2879
 3292TIP3    H131291   3.742   3.803  14.789  0.2417  0.1220  0.2572
 3292TIP3    H231292   3.661   3.701  14.866 -0.2590  0.3148 -0.0110
 3293TIP3   OH231293   5.452   6.664   0.220 -0.3398 -0.0568 -0.1477
 3293TIP3    H131294   5.395   6.686   0.293 -0.5773 -0.2524 -0.2749
 3293TIP3    H231295   5.414   6.585   0.182 -1.0983  0.8947 -1.4343
 3294TIP3   OH231296   6.603   3.562  11.517  0.1039  0.4618  0.6023
 3294TIP3    H131297   6.639   3.490  11.466 -0.9306  0.0880  0.3801
 3294TIP3    H231298   6.508   3.552  11.509 -0.0479  2.1315  0.1816
 3295TIP3   OH231299   2.069   0.538   2.116  0.1718 -0.4992  0.0409
 3295TIP3    H131300   2.132   0.585   2.171  0.3256 -1.2734  0.5354
 3295TIP3    H231301   2.121   0.470   2.074  0.1269  0.2877 -1.3419
 3296TIP3   OH231302   2.407   4.355  13.875  0.7704 -0.4417 -0.1010
 3296TIP3    H131303   2.348   4.417  13.833 -0.3848 -0.9813  0.7020
 3296TIP3    H231304   2.388   4.271  13.832  0.0881 -0.8528  0.9785
 3297TIP3   OH231305   2.513   3.524   1.103  0.3463  0.3673  1.0802
 3297TIP3    H131306   2.465   3.557   1.027  1.9953  1.1531  0.3621
 3297TIP3    H231307   2.468   3.443   1.126 -2.2616  1.8511  1.3676
 3298TIP3   OH231308   0.702   1.405  16.683 -0.0530  0.2929  0.0978
 3298TIP3    H131309   0.649   1.351  16.624  0.4634  2.4451 -2.4206
 3298TIP3    H231310   0.791   1.371  16.671  0.1293  1.0628 -0.7741
 3299TIP3   OH231311   2.407   2.147   0.054  0.2133  0.1413 -0.1513
 3299TIP3    H131312   2.399   2.178  -0.036 -0.8088  0.6804  0.1272
 3299TIP3    H231313   2.433   2.225   0.104  1.0314 -0.2120 -0.0160
 3300TIP3   OH231314   6.665   1.814   4.743 -0.1129 -0.7012  0.7263
 3300TIP3    H131315   6.687   1.855   4.827  0.4771 -0.9997  0.7252
 3300TIP3    H231316   6.668   1.885   4.680  1.0514 -0.7546  0.7005
 3301TIP3   OH231317   4.345   2.590   5.954 -0.4723 -0.2028  0.7897
 3301TIP3    H131318   4.421   2.589   6.012  0.9465  0.4342 -0.9800
 3301TIP3    H231319   4.383   2.584   5.866 -2.4726  0.2573 -0.1288
 3302TIP3   OH231320   5.234   5.916   0.146 -0.0406  0.8206  0.2319
 3302TIP3    H131321   5.207   5.969   0.071  0.3380  0.8619  0.1244
 3302TIP3    H231322   5.291   5.849   0.109 -1.1940 -0.1823  0.2520
 3303TIP3   OH231323   1.611   4.117  14.826  0.0579 -0.3586 -0.3320
 3303TIP3    H131324   1.621   4.074  14.741 -1.8496 -0.9975 -0.2430
 3303TIP3    H231325   1.526   4.160  14.822  0.0948 -0.1078  1.1448
 3304TIP3   OH231326   4.706   0.552   2.420 -0.0994  0.4714 -0.4130
 3304TIP3    H131327   4.675   0.503   2.344  1.5840  0.3765 -1.0759
 3304TIP3    H231328   4.656   0.517   2.494 -1.6033  0.4211 -1.4436
 3305TIP3   OH231329   5.814   6.722   3.442  0.3425  0.5192 -0.2044
 3305TIP3    H131330   5.888   6.691   3.389  1.1526  3.9140 -1.1364
 3305TIP3    H231331   5.746   6.742   3.379  0.3619  2.0400  0.2447
 3306TIP3   OH231332   0.933   1.024   4.640 -0.3498 -0.1280  0.1041
 3306TIP3    H131333   0.935   0.929   4.651 -3.9494 -0.7616 -3.4299
 3306TIP3    H231334   0.864   1.054   4.699 -0.7865 -0.0276 -0.4513
 3307TIP3   OH231335   4.113   0.598  12.745  0.3018  0.0924 -0.4231
 3307TIP3    H131336   4.051   0.643  12.687 -0.8742  1.0967  1.5603
 3307TIP3    H231337   4.062   0.527  12.785  0.9429 -0.2349 -0.1658
 3308TIP3   OH231338   5.205   1.813   6.109 -0.2429  0.3652  0.1144
 3308TIP3    H131339   5.131   1.753   6.115  0.1046 -0.1524 -0.7938
 3308TIP3    H231340   5.282   1.759   6.124 -0.0263  0.8907  0.9845
 3309TIP3   OH231341   6.196   6.082   1.340 -0.5449  0.0974 -0.0835
 3309TIP3    H131342   6.143   6.035   1.275 -0.4413  0.7806 -0.6589
 3309TIP3    H231343   6.222   6.163   1.296  1.7887 -0.6377 -0.1811
 3310TIP3   OH231344   6.687   2.460   0.404 -0.2063 -0.3945 -0.6809
 3310TIP3    H131345   6.715   2.423   0.321  0.3153 -0.3762 -0.5139
 3310TIP3    H231346   6.608   2.411   0.428 -0.2935 -0.4697 -1.1296
 3311TIP3   OH231347   5.064   0.702  14.231  0.0757 -0.2581 -0.1191
 3311TIP3    H131348   5.116   0.725  14.308  0.7650 -1.1379 -0.3207
 3311TIP3    H231349   5.115   0.635  14.186 -0.7351 -0.3715 -0.8854
 3312TIP3   OH231350   0.018   4.700  16.512  0.4531  0.0117  0.0953
 3312TIP3    H131351  -0.030   4.721  16.432  1.4636 -1.3828 -0.8983
 3312TIP3    H231352  -0.027   4.624  16.547  1.3396 -0.7183 -0.3321
 3313TIP3   OH231353   0.063   2.802  15.648 -0.2121  0.3997 -0.4283
 3313TIP3    H131354   0.064   2.749  15.568 -0.5602  0.4038 -0.4361
 3313TIP3    H231355   0.037   2.889  15.619  1.9854  1.0150 -0.6718
 3314TIP3   OH231356   1.164   4.669  13.368  0.0481  0.0911  0.2874
 3314TIP3    H131357   1.196   4.587  13.329  1.3593  0.5676  0.3392
 3314TIP3    H231358   1.155   4.649  13.461 -0.4407 -0.2329  0.1754
 3315TIP3   OH231359   0.983   3.037   5.045 -0.6985  0.0941  0.1960
 3315TIP3    H131360   1.058   3.058   4.989  0.2561 -2.6390  0.3346
 3315TIP3    H231361   1.023   3.012   5.128 -1.7676 -1.2698  0.3106
 3316TIP3   OH231362   4.297   4.277  17.070 -0.0334  0.0436  0.1297
 3316TIP3    H131363   4.325   4.326  17.147  0.5564  0.8631 -0.5957
 3316TIP3    H231364   4.370   4.284  17.009 -0.0045 -1.6430 -0.0403
 3317TIP3   OH231365   4.472   6.664  12.333 -0.6574 -0.2564  0.0084
 3317TIP3    H131366   4.521   6.597  12.283 -0.1893 -0.3958  0.6431
 3317TIP3    H231367   4.471   6.740  12.276 -2.4893 -1.2625 -1.3611
 3318TIP3   OH231368   5.530   6.187  11.766 -0.6825 -0.0498  0.1248
 3318TIP3    H131369   5.507   6.255  11.830 -1.7619  1.1953 -1.5559
 3318TIP3    H231370   5.626   6.186  11.766 -0.6283  2.1216 -0.4925
 3319TIP3   OH231371   5.077   2.566   1.236 -0.0280  0.0411 -0.9972
 3319TIP3    H131372   5.050   2.501   1.171  0.4480  1.0619 -2.2187
 3319TIP3    H231373   5.171   2.577   1.222 -0.0922  0.9354 -0.7316
 3320TIP3   OH231374   1.221   3.652  11.346 -0.0503 -0.1087 -1.2168
 3320TIP3    H131375   1.170   3.720  11.301 -0.5465  0.6330  0.4496
 3320TIP3    H231376   1.308   3.660  11.308 -0.4352  0.5717 -1.9901
 3321TIP3   OH231377   5.801   1.226  13.347 -0.8326 -0.4315 -0.2543
 3321TIP3    H131378   5.849   1.233  13.430 -1.0543  1.0782 -0.2263
 3321TIP3    H231379   5.759   1.312  13.338  0.2338 -0.1206 -2.5476
 3322TIP3   OH231380   3.034   4.578  13.596 -0.1161  0.3839  0.6186
 3322TIP3    H131381   2.973   4.506  13.578  0.4863  0.2631 -1.0379
 3322TIP3    H231382   2.980   4.657  13.590 -0.1495  0.2748 -0.8244
 3323TIP3   OH231383   6.414   4.166  12.762  0.4198  0.3805 -0.4984
 3323TIP3    H131384   6.418   4.254  12.801  1.5349  0.4038 -0.6428
 3323TIP3    H231385   6.336   4.168  12.707 -1.7046  0.0728  2.3694
 3324TIP3   OH231386   5.631   5.765  16.140  0.3508  0.1667 -0.4765
 3324TIP3    H131387   5.611   5.841  16.193  0.6914 -0.2252  0.2244
 3324TIP3    H231388   5.568   5.769  16.068  0.8808  1.5304 -0.8761
 3325TIP3   OH231389   6.612   3.763  15.337  0.1999 -0.0513  0.1522
 3325TIP3    H131390   6.658   3.844  15.357 -0.3129  0.1290  0.5965
 3325TIP3    H231391   6.572   3.778  15.252  1.1555 -0.2912 -0.3461
 3326TIP3   OH231392   5.842   6.135  15.143 -0.2807 -0.2076  0.1251
 3326TIP3    H131393   5.882   6.180  15.069 -2.0133  1.5122  0.1810
 3326TIP3    H231394   5.915   6.118  15.203  0.7426  0.6170 -0.8573
 3327TIP3   OH231395   3.236   3.935  14.067  0.3837 -0.3052 -0.9353
 3327TIP3    H131396   3.194   4.007  14.020 -0.0921  0.0217 -0.0072
 3327TIP3    H231397   3.170   3.905  14.130  0.7564 -1.2252 -0.9696
 3328TIP3   OH231398   6.472   2.639   3.007  0.2727 -0.0633  0.4923
 3328TIP3    H131399   6.541   2.576   2.984 -0.6548 -1.5955  1.7668
 3328TIP3    H231400   6.515   2.700   3.066  0.8521 -0.2984  0.3188
 3329TIP3   OH231401   1.939   5.700   0.726  0.1781  0.2229  0.4017
 3329TIP3    H131402   1.962   5.620   0.679 -3.3401 -0.7630  0.1664
 3329TIP3    H231403   1.993   5.698   0.804  2.3408 -0.8093 -1.0793
 3330TIP3   OH231404   5.140   3.967  16.045  0.0200  0.1370  0.1742
 3330TIP3    H131405   5.160   3.879  16.013 -2.4245 -0.6442  0.7182
 3330TIP3    H231406   5.052   3.985  16.014  0.1070  2.0089  0.9362
 3331TIP3   OH231407   4.977   3.368  16.676 -0.4572 -0.5066 -0.5960
 3331TIP3    H131408   4.892   3.328  16.659 -0.3021 -1.1540  0.1229
 3331TIP3    H231409   4.956   3.455  16.710 -0.8662 -1.0918  0.6919
 3332TIP3   OH231410   0.734   1.639  11.996  0.3339  0.4177 -0.4890
 3332TIP3    H131411   0.723   1.609  12.086 -1.0436 -0.9625 -1.0761
 3332TIP3    H231412   0.648   1.673  11.972  0.5608  0.3456 -1.4251
 3333TIP3   OH231413   1.557   3.086   3.930  0.8004 -0.0233 -0.5658
 3333TIP3    H131414   1.603   3.103   4.013  0.9184  1.4539 -0.9085
 3333TIP3    H231415   1.564   3.169   3.882  0.2590 -0.6951 -1.8268
 3334TIP3   OH231416   2.535   5.023  11.875 -0.4421  0.0645  0.0053
 3334TIP3    H131417   2.565   5.031  11.785  2.6902 -1.5086  0.8494
 3334TIP3    H231418   2.567   5.102  11.919 -1.9896  0.8450 -0.2415
 3335TIP3   OH231419   0.258   6.181  13.163 -0.0368  0.1615 -0.4734
 3335TIP3    H131420   0.336   6.156  13.115  0.2542  3.3842 -1.8233
 3335TIP3    H231421   0.191   6.119  13.135  0.9199  0.1045 -2.7359
 3336TIP3   OH231422   4.056   6.120  15.392 -0.1990 -0.0803  0.1193
 3336TIP3    H131423   3.969   6.144  15.359  0.1992  0.4913 -0.5462
 3336TIP3    H231424   4.039   6.058  15.462 -1.3055  2.2880  2.0132
 3337TIP3   OH231425   2.470   6.339   4.770  0.2186  0.2201 -0.2759
 3337TIP3    H131426   2.443   6.381   4.689  0.2730 -0.2862 -0.5559
 3337TIP3    H231427   2.551   6.385   4.795 -0.4804  1.2347  0.1783
 3338TIP3   OH231428   3.585   1.082   4.548  0.1095  0.2511  0.1610
 3338TIP3    H131429   3.661   1.053   4.497 -0.4626  0.0929 -0.6243
 3338TIP3    H231430   3.621   1.107   4.633  0.8498 -1.0895  0.2539
 3339TIP3   OH231431   0.364   4.841   4.780 -0.2584  0.0284  0.4317
 3339TIP3    H131432   0.324   4.798   4.704  2.6657 -0.9685 -0.5937
 3339TIP3    H231433   0.291   4.886   4.824 -2.1603 -0.2480 -2.3690
 3340TIP3   OH231434   2.233   6.767  14.980 -0.1337  0.5993 -0.3111
 3340TIP3    H131435   2.275   6.709  15.043  0.5544  0.3730 -0.9687
 3340TIP3    H231436   2.288   6.845  14.978  0.2328  0.3305 -1.1247
 3341TIP3   OH231437   5.852   0.986   3.850  0.2483  0.0509  0.2349
 3341TIP3    H131438   5.894   1.071   3.834 -0.7946  0.2345 -1.6440
 3341TIP3    H231439   5.836   0.985   3.944  2.4579  0.9154  0.6593
 3342TIP3   OH231440   2.643   1.337  11.512  0.1649  0.2112 -0.0350
 3342TIP3    H131441   2.735   1.349  11.536  0.0428  2.3145 -0.4829
 3342TIP3    H231442   2.631   1.392  11.435 -1.2698 -0.7007 -0.4818
 3343TIP3   OH231443   1.983   5.735   3.366 -0.1836 -0.3241 -0.0797
 3343TIP3    H131444   2.009   5.737   3.458 -0.5763  1.3458  0.0147
 3343TIP3    H231445   1.970   5.642   3.346 -0.0226 -0.7008  1.5213
 3344TIP3   OH231446   3.936   5.190  15.576 -0.2099 -0.4442  0.2477
 3344TIP3    H131447   3.937   5.196  15.672  1.3127 -0.5445  0.2530
 3344TIP3    H231448   3.855   5.143  15.556  0.0588 -1.5132  1.5627
 3345TIP3   OH231449   5.635   1.853  17.231  0.1162  0.0335  0.3335
 3345TIP3    H131450   5.596   1.929  17.274 -0.7221 -0.9140  1.2669
 3345TIP3    H231451   5.630   1.873  17.137  0.3945  1.3517  0.5975
 3346TIP3   OH231452   1.714   4.565   0.390  0.5115  0.0585 -0.2291
 3346TIP3    H131453   1.707   4.599   0.480  0.6355 -0.6977  0.0694
 3346TIP3    H231454   1.645   4.499   0.384  1.0639 -0.5037 -0.4148
 3347TIP3   OH231455   4.344   3.639   4.025  0.3890  0.6584  0.3168
 3347TIP3    H131456   4.430   3.676   4.043  1.7261 -1.6199 -1.1115
 3347TIP3    H231457   4.349   3.608   3.935 -1.3009 -1.1581  0.8072
 3348TIP3   OH231458   0.894   3.747   1.387 -0.2629 -0.3641 -0.6865
 3348TIP3    H131459   0.944   3.667   1.405  0.4231 -0.1001 -1.4015
 3348TIP3    H231460   0.956   3.818   1.406 -1.1185  0.0222  0.7173
 3349TIP3   OH231461   0.507   3.141   4.700 -0.5413  0.0397 -0.7874
 3349TIP3    H131462   0.529   3.075   4.765 -0.0659  0.0425 -0.9431
 3349TIP3    H231463   0.589   3.159   4.655 -0.8784 -0.0123 -1.4326
 3350TIP3   OH231464   4.567   3.403   4.177 -0.2860 -0.2098 -0.1242
 3350TIP3    H131465   4.645   3.459   4.183  2.5395 -3.9341 -0.2745
 3350TIP3    H231466   4.552   3.373   4.267 -1.0014 -0.1987 -0.2386
 3351TIP3   OH231467   1.669   1.954   3.183 -0.1531  0.2187  0.2462
 3351TIP3    H131468   1.625   2.018   3.127  0.1670 -0.2641 -0.5629
 3351TIP3    H231469   1.676   1.876   3.128 -0.2699 -0.4103  1.1272
 3352TIP3   OH231470   1.770   4.584   5.931 -0.2491 -0.4084 -0.4323
 3352TIP3    H131471   1.756   4.498   5.970 -0.3025  0.2790  1.1174
 3352TIP3    H231472   1.833   4.627   5.989  0.4288  0.3037 -1.6555
 3353TIP3   OH231473   2.699   3.099   0.904  0.1040  0.2358 -0.7903
 3353TIP3    H131474   2.610   3.120   0.876  0.1373  0.3455 -0.8111
 3353TIP3    H231475   2.754   3.162   0.858  0.1522  0.4600 -0.4175
 3354TIP3   OH231476   5.095   6.539  11.774 -0.2559  0.1488  0.1180
 3354TIP3    H131477   5.186   6.570  11.771  0.2751 -1.3974 -0.3513
 3354TIP3    H231478   5.071   6.526  11.682 -0.1592 -1.6410  0.3256
 3355TIP3   OH231479   3.073   0.878   0.737  0.1854 -0.1839 -0.0036
 3355TIP3    H131480   3.115   0.941   0.795  1.2104 -2.5579  1.9326
 3355TIP3    H231481   2.982   0.873   0.768  1.2564 -3.0531  2.9511
 3356TIP3   OH231482   2.079   5.177  16.943 -0.4885 -0.0406 -0.1523
 3356TIP3    H131483   2.089   5.159  16.849 -0.1958 -0.5503 -0.0220
 3356TIP3    H231484   1.984   5.181  16.956 -0.6015 -2.6611  0.0350
 3357TIP3   OH231485   3.990   5.337  15.310  0.2063 -0.5171 -0.1538
 3357TIP3    H131486   3.969   5.263  15.367 -0.7198  0.5440  0.9021
 3357TIP3    H231487   4.014   5.408  15.370 -1.7924  0.9389 -1.0145
 3358TIP3   OH231488   1.059   6.004   0.171 -0.4182 -0.4172 -0.6330
 3358TIP3    H131489   1.104   5.981   0.090 -0.2075  0.2575 -0.7097
 3358TIP3    H231490   1.072   5.929   0.228 -0.3667 -0.7982 -1.1406
 3359TIP3   OH231491   3.641   4.478  14.649  0.3974  0.3118  0.1359
 3359TIP3    H131492   3.701   4.405  14.635 -0.7043 -0.5573 -0.1396
 3359TIP3    H231493   3.668   4.544  14.586  1.2683  0.0547  0.2361
 3360TIP3   OH231494   2.540   3.959  13.352  0.1476  0.0411  0.0572
 3360TIP3    H131495   2.487   3.910  13.414 -1.8352  1.1938 -0.6961
 3360TIP3    H231496   2.478   3.996  13.290  2.1021 -1.0573 -2.6314
 3361TIP3   OH231497   2.165   1.131  11.023 -0.0077  0.1650 -0.5896
 3361TIP3    H131498   2.165   1.130  10.927  0.8936 -1.1332 -0.5843
 3361TIP3    H231499   2.186   1.041  11.048  1.2530  0.8330  0.8175
 3362TIP3   OH231500   1.572   2.395  14.112  0.2131 -0.3954 -0.1409
 3362TIP3    H131501   1.488   2.426  14.147  0.9823  0.0146  1.4118
 3362TIP3    H231502   1.637   2.447  14.159  1.3584 -1.0310 -1.0067
 3363TIP3   OH231503   4.778   3.509   0.135  0.2626 -0.2229  0.0487
 3363TIP3    H131504   4.798   3.481   0.224 -0.7530 -0.2669  0.2760
 3363TIP3    H231505   4.817   3.442   0.079  0.3090 -0.5641  0.4886
 3364TIP3   OH231506   3.811   3.285  13.043 -0.0139 -0.5288 -0.4579
 3364TIP3    H131507   3.813   3.199  13.000 -0.2451 -0.9182  0.2951
 3364TIP3    H231508   3.762   3.270  13.124 -0.3473  0.3933 -0.4829
 3365TIP3   OH231509   4.754   3.006  14.884  0.3404  0.3642 -0.1533
 3365TIP3    H131510   4.768   2.948  14.958  2.4494 -0.3762 -1.0929
 3365TIP3    H231511   4.697   2.957  14.825  0.6574 -0.0418 -0.1259
 3366TIP3   OH231512   1.341   0.101   1.941  0.0680  0.1295 -0.2297
 3366TIP3    H131513   1.288   0.022   1.936 -0.3826  0.3118  1.5730
 3366TIP3    H231514   1.278   0.173   1.936  0.4692  0.3908 -1.7895
 3367TIP3   OH231515   3.494   4.331   4.026  0.0097 -0.0969  0.0322
 3367TIP3    H131516   3.400   4.313   4.036  0.1951 -1.7520 -1.0018
 3367TIP3    H231517   3.502   4.424   4.046 -2.1155  0.4416 -1.3548
 3368TIP3   OH231518   4.862   5.532   4.987 -0.4577 -0.2445 -0.2984
 3368TIP3    H131519   4.818   5.611   5.019 -1.0455 -0.4022 -0.7009
 3368TIP3    H231520   4.815   5.460   5.029  0.1297 -0.3750  0.1284
 3369TIP3   OH231521   6.275   4.243   3.143  0.4032 -0.0843  0.4827
 3369TIP3    H131522   6.266   4.173   3.209 -3.1932  0.4060  0.5802
 3369TIP3    H231523   6.296   4.197   3.062 -1.1380 -1.2614  0.7235
 3370TIP3   OH231524   0.794   1.785   3.550 -0.3292  0.0917  0.1289
 3370TIP3    H131525   0.728   1.854   3.548 -0.0622  0.3360 -2.6622
 3370TIP3    H231526   0.775   1.734   3.629 -1.7788  2.1344  1.1185
 3371TIP3   OH231527   4.812   1.859  13.336  0.2699 -0.0100 -0.3556
 3371TIP3    H131528   4.748   1.789  13.347  0.6952  0.0199  2.5420
 3371TIP3    H231529   4.774   1.933  13.382  1.5618  0.5452 -0.1850
 3372TIP3   OH231530   2.623   2.937  12.908  0.4562 -0.2071  0.2160
 3372TIP3    H131531   2.646   3.020  12.865  0.7903 -0.7125 -0.5851
 3372TIP3    H231532   2.528   2.943  12.919  0.5050  0.3748  0.3525
 3373TIP3   OH231533   5.518   4.076  11.770  0.6208 -0.1420 -0.0375
 3373TIP3    H131534   5.455   4.139  11.805 -0.0780  0.0269 -1.5650
 3373TIP3    H231535   5.482   3.990  11.794  1.2109  0.0124  1.4284
 3374TIP3   OH231536   3.923   0.078   2.295  0.0674  0.0460 -0.1594
 3374TIP3    H131537   3.953  -0.000   2.250  1.3794  0.9947 -0.9781
 3374TIP3    H231538   4.003   0.122   2.324 -0.6428  1.0683  0.3207
 3375TIP3   OH231539   5.139   3.863  14.479 -0.0275 -0.2314 -0.5441
 3375TIP3    H131540   5.104   3.861  14.390 -0.3279 -0.3018 -0.4261
 3375TIP3    H231541   5.233   3.878  14.468 -0.1123  0.0712 -0.8581
 3376TIP3   OH231542   5.860   6.310  12.789 -0.2225 -0.4657  0.1224
 3376TIP3    H131543   5.815   6.387  12.824 -1.5583 -0.9485 -0.5029
 3376TIP3    H231544   5.904   6.271  12.864  0.0994  0.6643  0.5207
 3377TIP3   OH231545   1.113   0.633  13.271  0.4396  0.2676  0.3418
 3377TIP3    H131546   1.136   0.545  13.242 -0.5901  0.2851 -0.5293
 3377TIP3    H231547   1.179   0.689  13.230 -0.6881  0.2354 -1.5766
 3378TIP3   OH231548   4.324   1.984   2.563  0.2822 -0.3369  0.3101
 3378TIP3    H131549   4.333   2.025   2.649  0.9335  0.9024 -0.3422
 3378TIP3    H231550   4.407   2.003   2.519 -0.7974  0.7121 -1.3186
 3379TIP3   OH231551   3.378   3.642  13.744  0.1117 -0.0836  0.2915
 3379TIP3    H131552   3.465   3.682  13.736 -0.5055  0.8294 -2.3443
 3379TIP3    H231553   3.396   3.547  13.745  1.0834  0.0306 -1.9232
 3380TIP3   OH231554   4.520   4.156   2.359  0.4387 -0.6697 -0.0982
 3380TIP3    H131555   4.439   4.205   2.347  1.3651  0.3604 -2.4021
 3380TIP3    H231556   4.535   4.157   2.454 -2.2361 -0.9342  0.3643
 3381TIP3   OH231557   3.750   0.659  11.009  0.5672 -0.2843  0.5172
 3381TIP3    H131558   3.779   0.592  11.071  3.1145  1.1310  0.9200
 3381TIP3    H231559   3.823   0.722  11.005 -1.4722  2.1254 -0.3422
 3382TIP3   OH231560   0.837   5.570  16.425  0.3829  0.5301 -0.4661
 3382TIP3    H131561   0.786   5.602  16.499 -0.3704  0.2796 -0.8746
 3382TIP3    H231562   0.925   5.557  16.461 -0.1710 -0.3736  0.5966
 3383TIP3   OH231563   0.683   3.103   0.158  0.5582  0.7818  0.6944
 3383TIP3    H131564   0.708   3.163   0.228  0.1544  1.2927  0.4045
 3383TIP3    H231565   0.688   3.156   0.078 -3.1993  1.4410  0.8107
 3384TIP3   OH231566   3.334   6.073  17.148  0.2155  0.4890 -0.2274
 3384TIP3    H131567   3.402   6.101  17.086  1.2209 -0.2526  0.5319
 3384TIP3    H231568   3.310   6.153  17.195  2.4184  0.2893  1.3054
 3385TIP3   OH231569   2.636   2.829   1.097  0.4503 -0.3968 -0.0676
 3385TIP3    H131570   2.608   2.744   1.063  0.1027 -0.5785  0.6663
 3385TIP3    H231571   2.614   2.891   1.027  1.2072 -0.9793 -0.8322
 3386TIP3   OH231572   5.465   6.325  12.706  0.0396  0.2055 -0.0293
 3386TIP3    H131573   5.541   6.294  12.756  0.8096  2.1227  0.0233
 3386TIP3    H231574   5.391   6.312  12.765  0.5295 -0.3666  0.4655
 3387TIP3   OH231575   5.894   2.725   3.304  0.2481  0.4013 -0.7365
 3387TIP3    H131576   5.808   2.687   3.288 -0.5671  2.1070 -0.5696
 3387TIP3    H231577   5.877   2.819   3.315  2.3388  1.0655 -2.6197
 3388TIP3   OH231578   2.231   2.367   4.067 -0.4182  0.1533 -0.2530
 3388TIP3    H131579   2.270   2.431   4.007  0.7006 -1.1570 -0.9643
 3388TIP3    H231580   2.296   2.297   4.072 -0.5691  0.1633  2.4007
 3389TIP3   OH231581   0.239   6.211   3.961  0.9742 -0.3775 -0.3339
 3389TIP3    H131582   0.204   6.202   3.872 -1.3021 -0.9536  0.5838
 3389TIP3    H231583   0.274   6.300   3.964  1.1452 -0.3756 -1.8083
 3390TIP3   OH231584   1.308   2.429   5.165  0.5052 -0.4036 -0.0073
 3390TIP3    H131585   1.381   2.367   5.167  0.7260 -0.1309  0.5264
 3390TIP3    H231586   1.259   2.407   5.085  2.6394  1.1013 -1.7948
 3391TIP3   OH231587   2.981   5.134  14.607 -0.4902 -0.1722 -0.4184
 3391TIP3    H131588   3.076   5.138  14.608 -0.4537 -0.9771  0.3400
 3391TIP3    H231589   2.953   5.203  14.667 -0.4130  0.5637 -1.2210
 3392TIP3   OH231590   4.837   0.462   2.086 -0.2777  0.4321 -0.2383
 3392TIP3    H131591   4.839   0.429   2.176 -3.2857 -0.6450 -0.4898
 3392TIP3    H231592   4.828   0.383   2.033  0.1062  1.1694 -1.4048
 3393TIP3   OH231593   3.935   5.810   2.918 -0.0934  0.4983 -0.2590
 3393TIP3    H131594   4.007   5.830   2.859 -0.0611  2.0122  0.2644
 3393TIP3    H231595   3.902   5.725   2.888 -1.5444  2.2343 -3.8556
 3394TIP3   OH231596   4.908   3.589   2.598  0.2080 -0.1122  0.3552
 3394TIP3    H131597   5.002   3.583   2.614  0.3477  2.6469  0.8309
 3394TIP3    H231598   4.883   3.676   2.628 -2.3386 -0.4249 -0.6365
 3395TIP3   OH231599   1.564   2.159  12.962 -0.0335  0.0745  0.0675
 3395TIP3    H131600   1.627   2.193  12.898  2.6666 -2.7134  1.1533
 3395TIP3    H231601   1.532   2.077  12.923 -0.9458  0.0947  0.7589
 3396TIP3   OH231602   4.668   0.934   2.028 -0.4211 -0.9459  0.0794
 3396TIP3    H131603   4.617   0.911   2.105 -1.7916  0.3714 -0.3999
 3396TIP3    H231604   4.732   0.999   2.059 -0.5315 -0.9145  0.2379
 3397TIP3   OH231605   0.586   0.417   2.297 -0.3341  0.0133 -0.4582
 3397TIP3    H131606   0.659   0.372   2.254 -0.0347  0.0596  0.0003
 3397TIP3    H231607   0.534   0.453   2.225 -0.7940 -1.3884 -0.8588
 3398TIP3   OH231608   4.819   4.750   5.626 -1.1031  0.1481 -0.0243
 3398TIP3    H131609   4.783   4.681   5.681 -0.9549 -0.4469 -0.6675
 3398TIP3    H231610   4.804   4.830   5.676 -1.5135 -0.3149  0.6087
 3399TIP3   OH231611   3.349   0.745   5.235 -0.3526 -0.2235  1.1286
 3399TIP3    H131612   3.392   0.703   5.310 -1.1225 -2.1929  0.4888
 3399TIP3    H231613   3.316   0.673   5.182 -1.7104  1.1949 -0.0131
 3400TIP3   OH231614   6.742   4.147   1.229 -0.5192  0.1208  0.2577
 3400TIP3    H131615   6.752   4.191   1.314 -5.4975 -0.3522  1.2800
 3400TIP3    H231616   6.727   4.055   1.251 -2.0060  0.0244 -1.0434
 3401TIP3   OH231617   0.190   4.604   0.546 -0.1752  0.3442  0.1896
 3401TIP3    H131618   0.149   4.669   0.490 -2.2581 -0.1488  1.1026
 3401TIP3    H231619   0.183   4.522   0.497 -0.1159  0.2965  0.2604
 3402TIP3   OH231620   0.744   6.225   4.605 -0.3415  0.1348 -0.7635
 3402TIP3    H131621   0.678   6.161   4.579 -0.4777  0.1438 -0.4351
 3402TIP3    H231622   0.737   6.230   4.701  0.2870 -0.0388 -0.7038
 3403TIP3   OH231623   1.769   5.914   1.969 -0.3781  0.1463  0.1483
 3403TIP3    H131624   1.861   5.911   1.943 -0.1493  0.9481  0.8358
 3403TIP3    H231625   1.721   5.924   1.887  0.0408 -1.8280 -0.3639
 3404TIP3   OH231626   2.896   6.006  15.077  0.4012 -1.0035  0.3203
 3404TIP3    H131627   2.898   6.069  15.004  2.6057 -0.3132  0.9350
 3404TIP3    H231628   2.988   5.994  15.100 -0.0550 -3.9131  0.7182
 3405TIP3   OH231629   3.024   5.095   3.145  0.1477 -0.0051 -0.0053
 3405TIP3    H131630   2.991   5.185   3.150  0.8309  0.3643 -1.8122
 3405TIP3    H231631   2.947   5.044   3.118 -0.0577  0.1579  0.2698
 3406TIP3   OH231632   4.907   0.205  16.447 -0.4615 -0.4309  0.3044
 3406TIP3    H131633   4.884   0.244  16.532  2.2799 -0.1630  0.9436
 3406TIP3    H231634   4.882   0.113  16.456 -2.0605  0.0149  0.6527
 3407TIP3   OH231635   4.662   2.449  15.528 -0.0802 -0.4293 -0.1731
 3407TIP3    H131636   4.613   2.420  15.605 -1.8402  1.0892 -0.6717
 3407TIP3    H231637   4.738   2.391  15.525  1.0260  0.6380  3.7461
 3408TIP3   OH231638   6.778   1.045   2.993 -0.2619 -0.4748  0.6311
 3408TIP3    H131639   6.782   1.068   3.085  2.3113  2.9168 -0.2208
 3408TIP3    H231640   6.735   1.120   2.951  0.9066 -0.7922 -1.2154
 3409TIP3   OH231641   4.578   1.852   3.155  0.4668  0.3221  0.0001
 3409TIP3    H131642   4.643   1.799   3.110  0.2951 -0.6650  0.8940
 3409TIP3    H231643   4.556   1.801   3.234  0.1398  1.6137  0.7519
 3410TIP3   OH231644   2.387   2.944   0.116 -0.5811 -0.5912  0.3629
 3410TIP3    H131645   2.330   2.967   0.190 -2.6598 -1.6131 -0.8967
 3410TIP3    H231646   2.472   2.925   0.157 -1.4396 -0.2041  2.3944
 3411TIP3   OH231647   5.076   2.998  11.869 -0.1141 -0.3816 -0.1566
 3411TIP3    H131648   5.170   3.017  11.869 -0.6994  2.7236 -0.5457
 3411TIP3    H231649   5.070   2.906  11.846  2.8881 -0.8891  0.9178
 3412TIP3   OH231650   0.612   2.141   5.656 -0.4433  0.1764 -0.0489
 3412TIP3    H131651   0.618   2.236   5.670 -1.9515  0.4383 -1.1196
 3412TIP3    H231652   0.522   2.119   5.682  0.2055 -1.1405  1.1563
 3413TIP3   OH231653   3.721   2.971   6.263 -0.4862  0.2528  0.4029
 3413TIP3    H131654   3.809   2.984   6.298  0.4507  0.3693 -1.9340
 3413TIP3    H231655   3.710   2.876   6.259 -0.2974  0.2378  0.2637
 3414TIP3   OH231656   4.475   5.553  12.932  0.3399  0.3930  0.6941
 3414TIP3    H131657   4.552   5.535  12.987 -1.3502 -0.9235  2.7029
 3414TIP3    H231658   4.417   5.604  12.987 -0.9545 -0.0363 -0.2495
 3415TIP3   OH231659   2.527   4.575   4.415  0.3788 -0.3295  0.2913
 3415TIP3    H131660   2.445   4.564   4.462 -0.2635  0.9119 -0.4988
 3415TIP3    H231661   2.572   4.646   4.460  0.7884 -0.6557  0.4044
 3416TIP3   OH231662   1.383   4.723  15.484  0.4985  0.2041  0.5119
 3416TIP3    H131663   1.441   4.775  15.540  0.6377 -0.1611  0.7049
 3416TIP3    H231664   1.420   4.635  15.486 -1.1231 -0.4682  2.1308
 3417TIP3   OH231665   5.320   1.097  15.717 -0.2147 -0.3191  0.2723
 3417TIP3    H131666   5.361   1.061  15.638 -1.7123 -1.6304  0.0694
 3417TIP3    H231667   5.315   1.191  15.700  0.3690 -0.4642 -0.7809
 3418TIP3   OH231668   2.249   0.598  16.650  0.8731 -0.2570 -0.2719
 3418TIP3    H131669   2.319   0.571  16.710  0.7937 -1.5836 -0.7595
 3418TIP3    H231670   2.289   0.593  16.563  0.2887 -0.6708 -0.5232
 3419TIP3   OH231671   5.715   3.467   3.602  0.2253 -0.4756 -0.3084
 3419TIP3    H131672   5.782   3.512   3.549  1.3055  2.3542  3.2604
 3419TIP3    H231673   5.632   3.495   3.565  0.9572 -0.3162 -1.8752
 3420TIP3   OH231674   1.975   1.188   1.650  0.0625  0.2326  0.0706
 3420TIP3    H131675   2.033   1.205   1.724 -1.1018 -0.5194  1.1854
 3420TIP3    H231676   1.888   1.213   1.683 -0.4769 -0.2226 -1.0031
 3421TIP3   OH231677   3.067   2.286  14.184  0.2117 -0.1654 -0.1394
 3421TIP3    H131678   3.117   2.320  14.109 -1.2426  0.9702 -0.6340
 3421TIP3    H231679   3.035   2.201  14.155 -0.9441  0.5736 -1.1284
 3422TIP3   OH231680   2.275   2.332  16.646 -0.0201 -0.6888 -0.1807
 3422TIP3    H131681   2.366   2.305  16.659  0.5655  1.7603  1.0981
 3422TIP3    H231682   2.224   2.255  16.669  1.7026 -1.9663 -0.5088
 3423TIP3   OH231683   2.434   5.482   4.532 -0.1531 -0.1983 -0.1409
 3423TIP3    H131684   2.483   5.520   4.459 -1.2652 -0.4059 -1.0218
 3423TIP3    H231685   2.500   5.462   4.598  0.4167  4.0667  0.7572
 3424TIP3   OH231686   0.182   5.867  10.898 -0.3541 -0.7025 -0.3097
 3424TIP3    H131687   0.231   5.949  10.895 -1.0842 -0.2538 -0.2760
 3424TIP3    H231688   0.173   5.840  10.807  0.4290 -1.0759 -0.2763
 3425TIP3   OH231689   1.532   5.298   4.416  0.4740  0.0041 -0.0254
 3425TIP3    H131690   1.492   5.288   4.330  0.6501 -0.0598 -0.0994
 3425TIP3    H231691   1.460   5.287   4.478  0.2010  0.8241 -0.1889
 3426TIP3   OH231692   3.924   4.074  13.286  0.2536  0.3239  0.0017
 3426TIP3    H131693   3.839   4.094  13.247  1.3649 -0.1792 -2.8488
 3426TIP3    H231694   3.972   4.157  13.285 -0.0302  0.5102  1.1876
 3427TIP3   OH231695   2.370   4.865  16.759 -0.0062  0.1073 -0.3220
 3427TIP3    H131696   2.412   4.909  16.833 -1.3588 -0.2011  0.6331
 3427TIP3    H231697   2.381   4.926  16.686 -0.7689  1.4942  0.6983
 3428TIP3   OH231698   4.641   1.554   6.022  0.4692  0.3981  0.5733
 3428TIP3    H131699   4.706   1.484   6.032  0.6553  0.7825  2.2790
 3428TIP3    H231700   4.594   1.554   6.105 -2.1801 -0.3077 -0.8696
 3429TIP3   OH231701   3.585   5.546  16.032  0.3188  0.0975  0.4056
 3429TIP3    H131702   3.634   5.474  16.072 -0.8375 -1.4851 -0.9800
 3429TIP3    H231703   3.501   5.546  16.077 -0.1147 -0.1707 -0.4027
 3430TIP3   OH231704   5.425   2.308   4.259 -0.4631 -0.0332 -0.3338
 3430TIP3    H131705   5.459   2.386   4.216  0.1123 -0.6572 -1.0142
 3430TIP3    H231706   5.334   2.302   4.229 -0.2342 -0.1415 -1.0203
 3431TIP3   OH231707   0.973   3.226   5.400 -0.0445  0.0368  0.3748
 3431TIP3    H131708   1.037   3.156   5.388  0.0026  0.0183  0.7189
 3431TIP3    H231709   0.911   3.191   5.464 -0.5748 -0.0617 -0.1997
 3432TIP3   OH231710   0.666   0.514  16.723  0.5579  0.7089 -0.0385
 3432TIP3    H131711   0.746   0.542  16.678  0.6505  1.2568  0.4491
 3432TIP3    H231712   0.661   0.420  16.707  0.7568  0.8432 -0.9153
 3433TIP3   OH231713   5.191   4.124   6.444 -0.2396 -0.6375 -0.8498
 3433TIP3    H131714   5.139   4.098   6.521  2.8449  1.9694  2.2908
 3433TIP3    H231715   5.237   4.044   6.418 -2.1462 -1.8177 -0.7105
 3434TIP3   OH231716   5.785   3.880   4.231  0.8537  0.0902  0.2001
 3434TIP3    H131717   5.739   3.945   4.178  2.2428 -0.2707 -1.5202
 3434TIP3    H231718   5.856   3.849   4.174  0.6786 -2.3734  1.2378
 3435TIP3   OH231719   3.130   4.459   0.044 -0.2146 -0.8230  0.5478
 3435TIP3    H131720   3.064   4.390   0.031 -1.4935  0.1122  1.9153
 3435TIP3    H231721   3.098   4.509   0.119  1.9403 -0.1801  1.0762
 3436TIP3   OH231722   0.816   5.095  16.190 -0.2672 -0.4182 -0.3273
 3436TIP3    H131723   0.740   5.039  16.174  0.3942 -1.3714 -0.2053
 3436TIP3    H231724   0.891   5.037  16.179  0.4361  0.4407 -0.1483
 3437TIP3   OH231725   6.408   6.638  12.421  0.2756  0.0735  0.2620
 3437TIP3    H131726   6.351   6.570  12.456  0.4990 -0.3181 -0.1247
 3437TIP3    H231727   6.354   6.685  12.357  0.0368  0.4367  0.7286
 3438TIP3   OH231728   5.602   4.633   5.435 -0.3281 -0.2818 -0.5269
 3438TIP3    H131729   5.647   4.555   5.468  0.9493  0.6864  0.1138
 3438TIP3    H231730   5.543   4.658   5.507  0.5926  0.3671  0.0187
 3439TIP3   OH231731   0.323   5.349   5.135 -0.1766  0.0284  0.2632
 3439TIP3    H131732   0.344   5.277   5.076  0.1147  1.2059 -1.1119
 3439TIP3    H231733   0.309   5.424   5.077 -0.8082  0.9997  1.6414
 3440TIP3   OH231734   3.526   5.083  15.157 -0.5599 -0.1224  0.7292
 3440TIP3    H131735   3.522   5.116  15.247  3.6722 -4.5858  2.8672
 3440TIP3    H231736   3.473   5.003  15.159 -1.0754  0.1604 -0.9797
 3441TIP3   OH231737   1.591   4.749   2.745  0.0788  0.5484  0.1512
 3441TIP3    H131738   1.515   4.793   2.782 -0.7434 -0.7413  0.0454
 3441TIP3    H231739   1.577   4.656   2.766  1.1617  0.1904 -0.6740
 3442TIP3   OH231740   4.637   1.247  14.980 -0.4118 -0.2739  0.1152
 3442TIP3    H131741   4.714   1.305  14.986 -0.9959  0.6442 -0.9454
 3442TIP3    H231742   4.595   1.253  15.065 -0.3538  0.7164  0.0779
 3443TIP3   OH231743   2.096   4.100  16.242  0.8033 -0.2606  0.0538
 3443TIP3    H131744   2.188   4.075  16.235  0.6548 -1.0517  0.8516
 3443TIP3    H231745   2.067   4.064  16.325 -0.4146 -0.6039 -0.4954
 3444TIP3   OH231746   3.834   6.548   0.744  0.2189 -0.5325  0.8059
 3444TIP3    H131747   3.822   6.488   0.817 -3.9307 -0.4833  0.2711
 3444TIP3    H231748   3.778   6.622   0.764 -0.0444  0.0413 -1.8394
 3445TIP3   OH231749   5.460   5.452  16.603 -0.1776  0.4715  0.3893
 3445TIP3    H131750   5.535   5.494  16.561  0.2633  1.5112  2.1641
 3445TIP3    H231751   5.425   5.392  16.536  3.6603 -1.8570  0.3538
 3446TIP3   OH231752   2.022   2.839  13.815 -0.2526 -0.1776 -0.2982
 3446TIP3    H131753   2.002   2.916  13.763  0.2720 -1.5372 -2.5910
 3446TIP3    H231754   1.951   2.778  13.797 -0.8163 -0.1409  1.7155
 3447TIP3   OH231755   4.253   2.096   4.618  0.4127  0.2285  0.1540
 3447TIP3    H131756   4.284   2.186   4.622 -0.8167  0.6625  0.0647
 3447TIP3    H231757   4.262   2.063   4.707 -1.5759  1.2690  0.7453
 3448TIP3   OH231758   2.582   3.207   1.147  0.0622  0.5279 -0.4012
 3448TIP3    H131759   2.625   3.149   1.085  0.7418  1.1228 -0.4928
 3448TIP3    H231760   2.488   3.189   1.135  0.3244 -2.0957  1.1165
 3449TIP3   OH231761   1.067   4.597  12.971 -0.1509 -0.0481  0.1945
 3449TIP3    H131762   1.139   4.610  12.909 -1.1042  0.6468 -0.7828
 3449TIP3    H231763   1.074   4.672  13.030 -0.5144  0.4191 -0.3472
 3450TIP3   OH231764   6.674   6.665  16.087 -0.0827 -0.6531  0.2878
 3450TIP3    H131765   6.595   6.618  16.058 -1.3556  0.8263  1.2797
 3450TIP3    H231766   6.711   6.700  16.006 -0.1254 -1.8117 -0.2500
 3451TIP3   OH231767   0.443   5.008   5.961 -0.3156  0.7666  0.5786
 3451TIP3    H131768   0.500   5.000   6.037  0.0270  0.8511  0.3310
 3451TIP3    H231769   0.492   5.063   5.899  0.7122 -1.7713 -0.9539
 3452TIP3   OH231770   1.830   0.139   0.467 -0.0217 -0.3829  0.5539
 3452TIP3    H131771   1.828   0.232   0.443 -1.0948 -0.4999  0.1837
 3452TIP3    H231772   1.805   0.093   0.387  0.1425 -0.9734  0.8423
 3453TIP3   OH231773   1.591   5.145  17.225 -0.3661  0.7314  0.6069
 3453TIP3    H131774   1.608   5.090  17.302  2.0877 -1.0409 -1.0945
 3453TIP3    H231775   1.531   5.093  17.171 -0.3913  0.9943  0.3794
 3454TIP3   OH231776   0.599   2.163   1.532  0.5772  0.2153 -0.2823
 3454TIP3    H131777   0.554   2.185   1.451 -1.3284  1.3260  1.0406
 3454TIP3    H231778   0.655   2.088   1.509 -1.2004 -0.5645 -2.1947
 3455TIP3   OH231779   0.480   4.415  10.916 -0.5389 -0.5443  0.3234
 3455TIP3    H131780   0.564   4.371  10.902 -0.5515 -0.0461 -1.4788
 3455TIP3    H231781   0.431   4.398  10.835 -0.7755  2.2464 -0.1435
 3456TIP3   OH231782   4.210   2.148   0.617  0.3454 -0.3315 -0.1401
 3456TIP3    H131783   4.185   2.198   0.695  1.4518 -0.8452  0.5568
 3456TIP3    H231784   4.279   2.200   0.576  1.7043 -1.3931  0.7458
 3457TIP3   OH231785   5.733   3.403   2.020 -0.6102  0.2406  0.0612
 3457TIP3    H131786   5.653   3.352   2.031  0.3765 -1.1109  1.1698
 3457TIP3    H231787   5.804   3.341   2.037  0.6454  1.7465  0.5069
 3458TIP3   OH231788   4.981   1.902   2.458 -0.5796 -0.6204  0.4124
 3458TIP3    H131789   4.989   1.820   2.505 -1.2208 -0.7606  0.2847
 3458TIP3    H231790   4.997   1.879   2.366 -1.9158 -0.8251  0.2145
 3459TIP3   OH231791   3.965   2.721  11.383  0.8831  0.6077  0.4027
 3459TIP3    H131792   3.882   2.755  11.418 -0.9766 -2.4810 -0.8280
 3459TIP3    H231793   3.999   2.665  11.453  0.5493 -0.2688 -0.1316
 3460TIP3   OH231794   2.504   1.252  15.979  0.7798  0.5712 -0.4685
 3460TIP3    H131795   2.592   1.222  16.000  0.2369 -1.7834 -1.4444
 3460TIP3    H231796   2.468   1.184  15.922 -2.4710  0.3331  1.6914
 3461TIP3   OH231797   1.965   5.181  13.453 -0.1802  0.3233  0.7994
 3461TIP3    H131798   1.952   5.091  13.424 -0.9912  0.3731  0.9989
 3461TIP3    H231799   2.043   5.177  13.509 -0.9513 -0.4815  1.8433
 3462TIP3   OH231800   5.944   4.990  10.816 -0.5892  0.0411 -0.4075
 3462TIP3    H131801   5.919   4.907  10.774 -1.7222  0.4547 -0.5682
 3462TIP3    H231802   5.935   4.972  10.910  1.0112 -0.5893 -0.3606
 3463TIP3   OH231803   3.828   6.402   4.470  0.7974 -0.6616  0.5466
 3463TIP3    H131804   3.853   6.483   4.515  3.0528 -0.4889 -0.9559
 3463TIP3    H231805   3.799   6.344   4.541  0.2703  1.0418  1.7668
 3464TIP3   OH231806   3.401   1.557  13.656  0.1638  0.5746  0.4366
 3464TIP3    H131807   3.437   1.621  13.596  2.5459 -1.2201 -0.1290
 3464TIP3    H231808   3.407   1.598  13.743 -0.0982  1.8242 -0.1371
 3465TIP3   OH231809   3.433   3.892  14.602 -0.3799  0.3655 -0.4191
 3465TIP3    H131810   3.453   3.800  14.617 -0.0214  0.7435  1.5565
 3465TIP3    H231811   3.337   3.895  14.593 -0.6672  0.1573  2.3199
 3466TIP3   OH231812   4.979   2.433  10.913  0.0521  0.0829  0.4092
 3466TIP3    H131813   5.057   2.459  10.865 -0.5285  0.4583 -0.3481
 3466TIP3    H231814   4.954   2.511  10.962 -0.6077  0.3790 -0.3897
 3467TIP3   OH231815   1.453   1.668  15.368  1.0653  0.2267 -0.6961
 3467TIP3    H131816   1.419   1.580  15.353  0.4587  0.4359 -0.5785
 3467TIP3    H231817   1.448   1.710  15.282 -1.0168  0.9478 -0.2629
 3468TIP3   OH231818   0.543   4.220  13.113  0.3352 -0.1883  0.2331
 3468TIP3    H131819   0.485   4.295  13.127 -0.1839 -0.8460  1.6940
 3468TIP3    H231820   0.554   4.216  13.018 -0.5030  1.0812  0.0687
 3469TIP3   OH231821   5.399   1.214  13.899 -1.0886 -0.0035 -0.0528
 3469TIP3    H131822   5.308   1.199  13.924 -0.7518  0.4133  1.5128
 3469TIP3    H231823   5.441   1.129  13.909 -1.4441 -0.3490 -1.4360
 3470TIP3   OH231824   3.562   4.004   1.602  0.2210  0.0304 -0.3567
 3470TIP3    H131825   3.610   4.024   1.521 -0.7806  2.7104 -0.3599
 3470TIP3    H231826   3.624   4.025   1.672  0.5015 -0.6231 -0.4082
 3471TIP3   OH231827   2.566   4.108  12.003 -0.8622  0.6880 -0.3609
 3471TIP3    H131828   2.624   4.036  11.979 -2.3817 -0.5546 -0.3340
 3471TIP3    H231829   2.625   4.176  12.036  0.5497 -0.7019  0.0355
 3472TIP3   OH231830   3.042   1.988   2.175 -0.3766  0.0826  0.0329
 3472TIP3    H131831   3.003   2.045   2.241 -1.9630  0.0911 -0.8698
 3472TIP3    H231832   3.106   2.044   2.131 -0.8705  0.7373  0.1289
 3473TIP3   OH231833   3.956   1.821  16.783 -0.2706  0.1376  0.1449
 3473TIP3    H131834   3.988   1.748  16.729 -1.6399 -2.0361  2.1619
 3473TIP3    H231835   4.023   1.888  16.774  2.2920 -2.3043  0.1453
 3474TIP3   OH231836   0.295   3.641   2.166  0.3215  0.4807 -0.0183
 3474TIP3    H131837   0.360   3.575   2.143 -0.2036  0.0818 -0.3660
 3474TIP3    H231838   0.304   3.708   2.098  0.5506  0.5545  0.0841
 3475TIP3   OH231839   1.067   0.384  11.499 -0.2960 -0.7018 -0.0883
 3475TIP3    H131840   1.068   0.479  11.487  0.9595 -0.7478 -0.4508
 3475TIP3    H231841   0.979   0.357  11.473 -0.2618  0.2189 -1.1806
 3476TIP3   OH231842   2.628   3.997   0.359 -0.0887  0.6745  0.3293
 3476TIP3    H131843   2.670   4.046   0.288 -0.7126  0.0213 -0.5150
 3476TIP3    H231844   2.580   4.063   0.409  0.5656  1.1800  0.2929
 3477TIP3   OH231845   6.236   4.308   4.884  0.2555 -0.1745  0.0330
 3477TIP3    H131846   6.173   4.249   4.925 -0.0400  0.8716  1.1085
 3477TIP3    H231847   6.225   4.391   4.930  1.4388  0.4150 -0.7160
 3478TIP3   OH231848   1.478   3.749  15.144  0.0667  0.2594  0.2958
 3478TIP3    H131849   1.476   3.808  15.219  1.5711 -0.6629  1.0903
 3478TIP3    H231850   1.475   3.806  15.068 -1.8391  1.1972  1.0387
 3479TIP3   OH231851   1.707   2.841   3.937 -0.3759 -0.4034 -0.3569
 3479TIP3    H131852   1.629   2.876   3.894 -0.1127  0.3543 -0.2305
 3479TIP3    H231853   1.779   2.894   3.904 -0.2026  0.3829  1.1904
 3480TIP3   OH231854   1.218   5.308   3.784 -0.1746 -0.1691 -0.6679
 3480TIP3    H131855   1.299   5.276   3.824 -0.4803 -0.1262 -0.0060
 3480TIP3    H231856   1.232   5.296   3.690  0.8226  0.3612 -0.5962
 3481TIP3   OH231857   4.896   3.348   2.042  0.0197  0.9520  0.3127
 3481TIP3    H131858   4.923   3.380   2.129 -1.3693 -0.5537  1.3281
 3481TIP3    H231859   4.812   3.392   2.026 -0.2578  0.3921  0.2282
 3482TIP3   OH231860   0.834   3.124  13.723  0.0371  0.4421 -0.2747
 3482TIP3    H131861   0.754   3.119  13.669  1.3305 -2.9953 -2.0406
 3482TIP3    H231862   0.865   3.214  13.711 -0.9467  0.4337 -3.5468
 3483TIP3   OH231863   0.999   1.279   3.044  0.3630 -0.5562 -0.6094
 3483TIP3    H131864   0.945   1.344   2.999 -0.2055 -1.6537 -1.5327
 3483TIP3    H231865   0.935   1.223   3.090  0.6642 -2.1465 -2.0916
 3484TIP3   OH231866   6.449   0.586   5.690  0.1519 -0.1152 -0.0596
 3484TIP3    H131867   6.509   0.519   5.723 -0.3821 -0.2810  0.5635
 3484TIP3    H231868   6.403   0.544   5.618 -0.2230 -0.4364  0.3683
 3485TIP3   OH231869   5.509   2.204  12.282  0.6216 -0.3864  0.6271
 3485TIP3    H131870   5.546   2.139  12.342  1.5812 -1.3881 -1.0000
 3485TIP3    H231871   5.569   2.205  12.208 -0.7707  0.5069 -0.5240
 3486TIP3   OH231872   1.817   2.333   0.869 -0.5304 -0.2572  0.0053
 3486TIP3    H131873   1.879   2.406   0.866  1.0522 -1.5965 -0.1642
 3486TIP3    H231874   1.812   2.310   0.962 -1.8840  0.7568  0.2075
 3487TIP3   OH231875   4.213   1.517  11.526  0.4568 -0.4515  0.1623
 3487TIP3    H131876   4.167   1.434  11.544  0.5534 -0.4560  0.3962
 3487TIP3    H231877   4.144   1.576  11.497  0.0722 -0.0544  1.8384
 3488TIP3   OH231878   2.763   2.172  15.184 -0.3753  0.1872  0.0835
 3488TIP3    H131879   2.815   2.095  15.159  0.5903  1.5293 -2.1720
 3488TIP3    H231880   2.754   2.165  15.279 -0.6996 -2.9632 -0.1104
 3489TIP3   OH231881   3.474   2.517  14.013  0.5479  0.2450  0.2457
 3489TIP3    H131882   3.516   2.462  13.947  0.0046  0.4661 -0.2901
 3489TIP3    H231883   3.459   2.458  14.088  1.2241  0.0112  0.1994
 3490TIP3   OH231884   1.970   6.535  15.026  0.2456  0.1414 -0.3075
 3490TIP3    H131885   2.057   6.560  14.993 -0.0036  1.4744  0.0591
 3490TIP3    H231886   1.911   6.602  14.993 -0.8191 -1.2757 -1.3390
 3491TIP3   OH231887   0.639   6.173  11.700 -0.3790 -0.2457  0.4245
 3491TIP3    H131888   0.594   6.164  11.784 -1.9593 -2.8926 -0.6722
 3491TIP3    H231889   0.572   6.202  11.640  0.5875  0.8979 -0.1304
 3492TIP3   OH231890   4.550   6.332  11.681 -0.2636 -0.2350  0.5191
 3492TIP3    H131891   4.635   6.375  11.672 -0.6701  0.9139  2.0231
 3492TIP3    H231892   4.486   6.400  11.658 -0.8472 -0.6018  1.0481
 3493TIP3   OH231893   4.643   3.876   2.333  0.4546  0.7234  0.1949
 3493TIP3    H131894   4.610   3.954   2.287  3.0562  0.9178 -1.4379
 3493TIP3    H231895   4.715   3.908   2.387  1.1580 -0.4613 -0.0250
 3494TIP3   OH231896   6.638   3.294   6.005 -0.5211 -0.0429  0.0403
 3494TIP3    H131897   6.599   3.338   5.930  1.5994 -0.4329 -1.3285
 3494TIP3    H231898   6.689   3.363   6.048 -0.5901 -0.1605  0.3093
 3495TIP3   OH231899   6.080   5.614   1.850 -0.3370 -0.3143  0.5840
 3495TIP3    H131900   6.035   5.558   1.787  1.7150  0.0734 -1.3011
 3495TIP3    H231901   6.020   5.688   1.864 -0.9510 -0.5539 -0.7096
 3496TIP3   OH231902   1.467   0.149   4.638 -0.1924 -0.0048 -0.1277
 3496TIP3    H131903   1.524   0.084   4.598 -0.7797 -0.1967 -0.6719
 3496TIP3    H231904   1.445   0.112   4.724 -0.1885 -0.3288 -0.2662
 3497TIP3   OH231905   4.946   5.904  12.116 -0.6223 -0.0921  0.1198
 3497TIP3    H131906   4.892   5.975  12.081  0.7862  1.3397  0.7991
 3497TIP3    H231907   4.898   5.873  12.193 -0.9931  0.4868  0.1257
 3498TIP3   OH231908   0.197   1.422   4.716 -0.5699 -0.2423  1.0106
 3498TIP3    H131909   0.252   1.461   4.784 -2.2959  0.8088  1.8407
 3498TIP3    H231910   0.140   1.494   4.688 -1.1277 -1.1647 -0.2323
 3499TIP3   OH231911   2.630   1.719  16.175  0.1756 -0.0027  0.4312
 3499TIP3    H131912   2.646   1.649  16.111  1.5979 -0.9036  1.7279
 3499TIP3    H231913   2.603   1.794  16.123 -2.4382 -1.8241 -0.9126
 3500TIP3   OH231914   3.615   3.523   4.164  0.0408  0.2735 -0.5830
 3500TIP3    H131915   3.627   3.618   4.154  0.3477  0.2621 -0.3708
 3500TIP3    H231916   3.683   3.498   4.227 -0.0341 -0.0891 -0.6464
 3501TIP3   OH231917   2.141   0.118  12.599  0.0478  0.8324  0.2026
 3501TIP3    H131918   2.209   0.109  12.666  0.6165  0.5946 -0.4000
 3501TIP3    H231919   2.083   0.043  12.613 -0.7062  1.6215  1.4052
 3502TIP3   OH231920   6.353   4.755   5.543 -0.5510  0.2391  0.5984
 3502TIP3    H131921   6.429   4.715   5.585 -0.7327 -0.4429  0.2783
 3502TIP3    H231922   6.324   4.821   5.606  2.5262  3.1189 -0.8231
 3503TIP3   OH231923   2.675   0.504  13.138 -0.0500 -0.0146  0.3459
 3503TIP3    H131924   2.682   0.414  13.169 -1.2859  0.2400  1.4098
 3503TIP3    H231925   2.625   0.549  13.207 -1.2932  0.9783 -1.1796
 3504TIP3   OH231926   2.390   2.511  15.207 -0.4960  0.1051  0.3753
 3504TIP3    H131927   2.342   2.491  15.287 -0.4059 -1.0792  0.1425
 3504TIP3    H231928   2.471   2.551  15.237 -1.5464  2.0388  0.7768
 3505TIP3   OH231929   6.574   5.358   1.745 -0.0797 -0.3841  0.1980
 3505TIP3    H131930   6.549   5.286   1.803 -1.5101 -0.8898 -0.9957
 3505TIP3    H231931   6.517   5.431   1.770  0.8948  0.1261  0.9510
 3506TIP3   OH231932   0.975   1.747  15.490 -0.6408 -0.7161  0.2727
 3506TIP3    H131933   1.030   1.771  15.416 -1.4666 -0.6601 -0.3275
 3506TIP3    H231934   1.004   1.804  15.561 -0.1796 -0.4265 -0.1447
 3507TIP3   OH231935   3.805   6.708  13.823  0.3145  0.2700 -0.3555
 3507TIP3    H131936   3.896   6.678  13.824  0.7146  1.4765 -0.5181
 3507TIP3    H231937   3.756   6.634  13.786  1.4242  0.1435 -1.5947
 3508TIP3   OH231938   2.211   0.423   3.201 -0.6588  0.1135  0.1700
 3508TIP3    H131939   2.133   0.419   3.257 -0.6369  1.1028  0.2945
 3508TIP3    H231940   2.284   0.406   3.261 -0.6594  0.8698  0.4012
 3509TIP3   OH231941   3.963   4.309  13.944 -0.2680  0.3295 -0.0434
 3509TIP3    H131942   3.967   4.218  13.974 -0.4078  0.6284  0.8866
 3509TIP3    H231943   3.884   4.345  13.986 -0.9403  0.5218 -1.4200
 3510TIP3   OH231944   2.567   5.359  14.910  0.2680  0.1419  0.3741
 3510TIP3    H131945   2.547   5.421  14.840  0.4687  0.4770  0.6134
 3510TIP3    H231946   2.526   5.277  14.882 -1.2514  0.7565  0.7439
 3511TIP3   OH231947   5.089   0.956   6.296  0.3228  0.0025 -0.6963
 3511TIP3    H131948   5.092   1.031   6.356  0.8522 -0.5696  0.0045
 3511TIP3    H231949   4.997   0.930   6.295  0.5248 -0.8283  0.9359
 3512TIP3   OH231950   5.399   2.117  15.998  0.6081  0.0217 -0.1044
 3512TIP3    H131951   5.430   2.078  16.080 -0.2596 -0.5395 -0.0383
 3512TIP3    H231952   5.394   2.044  15.937 -0.1946  0.1796 -0.2299
 3513TIP3   OH231953   3.931   2.630  16.900  0.1301  0.1741 -0.4788
 3513TIP3    H131954   3.899   2.543  16.925 -1.9284  1.5013  1.7204
 3513TIP3    H231955   3.862   2.690  16.928  0.6423  2.3745 -3.7179
 3514TIP3   OH231956   0.558   4.204  15.000 -0.1321  0.1865 -0.6173
 3514TIP3    H131957   0.611   4.127  14.983 -0.1994 -0.2853  1.2810
 3514TIP3    H231958   0.619   4.277  14.998  0.3638 -0.2066  0.1972
 3515TIP3   OH231959   2.143   1.214  14.964 -0.0024  0.7309  0.1118
 3515TIP3    H131960   2.228   1.233  15.004  0.4198  2.2983 -1.4545
 3515TIP3    H231961   2.083   1.206  15.039  1.9483 -3.1023  1.3962
 3516TIP3   OH231962   3.508   0.836   4.695 -0.0141 -0.0799 -0.6227
 3516TIP3    H131963   3.457   0.778   4.638  1.6923 -0.0986 -2.1421
 3516TIP3    H231964   3.539   0.905   4.637  1.4250  0.1129  0.3736
 3517TIP3   OH231965   3.111   4.119  13.910 -0.1242 -0.1340  0.1755
 3517TIP3    H131966   3.031   4.074  13.884  1.4191 -1.8360 -1.8731
 3517TIP3    H231967   3.114   4.197  13.854 -0.3770 -0.0307  0.3050
 3518TIP3   OH231968   1.571   0.271  16.063  0.1672 -0.3203  0.0514
 3518TIP3    H131969   1.492   0.266  16.010  1.3136 -1.2246 -1.6199
 3518TIP3    H231970   1.640   0.295  16.001  1.4079 -0.6298  1.2745
 3519TIP3   OH231971   3.115   2.617   3.393  0.5405  0.0698  1.0898
 3519TIP3    H131972   3.106   2.685   3.460  1.0972  1.6227 -0.3585
 3519TIP3    H231973   3.118   2.666   3.310 -1.9710 -1.9154 -0.2259
 3520TIP3   OH231974   3.262   2.344  10.850 -0.1845  0.3453  0.6163
 3520TIP3    H131975   3.184   2.292  10.830 -0.6325  1.1018  0.3978
 3520TIP3    H231976   3.240   2.433  10.821  0.8298  0.5193  0.3827
 3521TIP3   OH231977   5.632   3.216  15.122  0.7389 -0.4816  0.3967
 3521TIP3    H131978   5.676   3.167  15.053 -0.2464 -2.2644  0.9842
 3521TIP3    H231979   5.540   3.188  15.116  0.7770 -1.2801  2.9143
 3522TIP3   OH231980   3.419   1.888   5.083  0.5979 -0.2143  0.1234
 3522TIP3    H131981   3.378   1.852   5.161  1.3378 -0.8779  0.2181
 3522TIP3    H231982   3.386   1.977   5.076  1.4010  0.2266  1.8277
 3523TIP3   OH231983   4.998   3.673   3.463 -0.3160  0.3949  0.3207
 3523TIP3    H131984   5.031   3.761   3.482 -0.8966  0.4374  1.1587
 3523TIP3    H231985   4.978   3.675   3.369  0.1078  1.0101  0.2366
 3524TIP3   OH231986   2.651   5.875   2.141 -0.2381  0.4169 -0.1422
 3524TIP3    H131987   2.614   5.815   2.206  0.0567  2.7553  2.2374
 3524TIP3    H231988   2.683   5.817   2.072  0.0824 -2.1997  2.1013
 3525TIP3   OH231989   2.378   1.471   0.252  0.2297 -0.0512 -0.0895
 3525TIP3    H131990   2.430   1.471   0.332  0.1534 -0.6851 -0.0347
 3525TIP3    H231991   2.329   1.389   0.255 -0.2921  0.2438 -0.4511
 3526TIP3   OH231992   6.605   1.428   0.139  0.5947 -0.1379 -0.4840
 3526TIP3    H131993   6.610   1.340   0.178 -0.7960  0.5397  1.2692
 3526TIP3    H231994   6.568   1.413   0.052 -1.1775 -1.1409  0.4076
 3527TIP3   OH231995   0.682   5.718  10.738 -0.1599  0.9031 -0.0469
 3527TIP3    H131996   0.739   5.711  10.661 -1.1864  1.2736 -0.8478
 3527TIP3    H231997   0.742   5.741  10.809  0.8100  0.5123 -0.7147
 3528TIP3   OH231998   5.923   1.864  17.055 -0.4291 -0.4854 -0.3773
 3528TIP3    H131999   5.864   1.913  17.113 -1.6045 -0.7900 -1.3055
 3528TIP3    H232000   5.893   1.884  16.967  0.9023 -0.6060 -0.8720
 3529TIP3   OH232001   5.861   4.815  14.636 -0.7145  0.6669  0.2145
 3529TIP3    H132002   5.947   4.808  14.677 -1.6247  0.7013  2.1407
 3529TIP3    H232003   5.807   4.750  14.681 -2.0058  1.4319 -0.1997
 3530TIP3   OH232004   3.245   1.036  12.218  0.9124 -0.0670 -0.3780
 3530TIP3    H132005   3.200   1.057  12.137 -0.6236 -0.2187  0.4263
 3530TIP3    H232006   3.181   0.989  12.270  1.7264  0.4340  1.1132
 3531TIP3   OH232007   4.848   4.389  14.006  0.5663  0.6883 -0.4896
 3531TIP3    H132008   4.901   4.430  13.938  1.9854  1.0724  0.8247
 3531TIP3    H232009   4.877   4.298  14.008 -1.2771  0.0296 -2.1267
 3532TIP3   OH232010   4.360   4.407   5.602 -0.0624  0.1442 -0.4473
 3532TIP3    H132011   4.381   4.352   5.526  0.3426  0.1036 -0.3077
 3532TIP3    H232012   4.295   4.357   5.650  0.3484 -0.2407 -0.2913
 3533TIP3   OH232013   4.225   3.708   3.513 -0.0538 -0.1580  0.0292
 3533TIP3    H132014   4.245   3.796   3.545 -0.1595 -0.0293 -0.2543
 3533TIP3    H232015   4.212   3.656   3.592  1.1848 -0.1952  0.2065
 3534TIP3   OH232016   1.731   2.070  13.173 -0.3866  0.1138  0.5039
 3534TIP3    H132017   1.750   1.995  13.118  0.2255  0.7783 -0.2144
 3534TIP3    H232018   1.652   2.109  13.136 -0.0325  0.5014  0.1405
 3535TIP3   OH232019   2.057   1.345   4.339  0.5413  0.3050 -0.1680
 3535TIP3    H132020   2.117   1.315   4.270  0.3282  0.8025 -0.5732
 3535TIP3    H232021   2.112   1.398   4.397  0.3630  1.2751 -0.8821
 3536TIP3   OH232022   1.889   6.146   1.649  0.0442  0.2443 -0.6066
 3536TIP3    H132023   1.929   6.060   1.635  1.0666  0.6999 -0.5766
 3536TIP3    H232024   1.800   6.127   1.679  1.1869 -0.8775  2.2710
 3537TIP3   OH232025   3.836   2.917   2.573 -0.4616 -0.3277 -0.8793
 3537TIP3    H132026   3.932   2.906   2.577 -0.4407 -1.1557 -3.1386
 3537TIP3    H232027   3.822   2.979   2.502 -1.6287 -0.8553 -1.1200
 3538TIP3   OH232028   4.623   0.224   1.141  0.4688  0.1070 -0.5688
 3538TIP3    H132029   4.607   0.145   1.192 -0.7823  0.2903 -0.6587
 3538TIP3    H232030   4.711   0.212   1.105  0.8473 -0.6083  0.5526
 3539TIP3   OH232031   3.866   4.535  14.157  0.6226  0.0068 -0.0987
 3539TIP3    H132032   3.810   4.612  14.153  0.2251 -0.1816  1.5861
 3539TIP3    H232033   3.817   4.468  14.109 -0.1056  0.1516  0.4332
 3540TIP3   OH232034   1.262   3.954   5.003 -0.3677 -0.4427 -0.1027
 3540TIP3    H132035   1.257   4.032   5.059  0.5972  1.4453 -2.5730
 3540TIP3    H232036   1.260   3.988   4.914 -2.2722 -3.4211 -1.2701
 3541TIP3   OH232037   5.896   4.157  15.715  0.4465 -0.2059 -0.0987
 3541TIP3    H132038   5.845   4.212  15.655  0.2933 -1.9681 -1.6286
 3541TIP3    H232039   5.955   4.218  15.759 -0.7193  1.3859 -0.7006
 3542TIP3   OH232040   3.477   2.522  17.130  0.3318 -0.1774 -0.1913
 3542TIP3    H132041   3.565   2.511  17.167  0.7332 -0.1485 -1.1203
 3542TIP3    H232042   3.484   2.484  17.042 -0.6123 -0.2538 -0.2305
 3543TIP3   OH232043   5.945   5.807  14.025  0.0203  0.0575  0.1817
 3543TIP3    H132044   5.905   5.725  14.053  0.5599 -0.9259 -1.8538
 3543TIP3    H232045   6.032   5.806  14.067  0.0198 -0.3972  0.1761
 3544TIP3   OH232046   0.597   0.511   1.269  0.1811 -0.0568  0.0169
 3544TIP3    H132047   0.597   0.554   1.183  0.4894  0.5418  0.3138
 3544TIP3    H232048   0.546   0.431   1.255 -0.1703  0.2678 -0.6077
 3545TIP3   OH232049   4.317   3.584  15.341  0.1809  0.1219 -0.3390
 3545TIP3    H132050   4.240   3.607  15.289  0.8024 -1.0538 -1.8184
 3545TIP3    H232051   4.307   3.490  15.358  1.3959 -0.0679 -0.7032
 3546TIP3   OH232052   5.661   2.873  16.851  0.2019 -0.3460 -0.0409
 3546TIP3    H132053   5.684   2.786  16.819  0.4033 -0.9471  1.6510
 3546TIP3    H232054   5.722   2.932  16.808  1.5894 -1.3331  0.5236
 3547TIP3   OH232055   6.589   4.498   5.068 -0.7033 -0.2328  0.5808
 3547TIP3    H132056   6.563   4.587   5.045 -0.6589 -0.2835  0.3302
 3547TIP3    H232057   6.640   4.468   4.993 -0.6195 -0.4283  0.7150
 3548TIP3   OH232058   2.224   2.386   2.664 -0.1265 -0.2350 -0.3184
 3548TIP3    H132059   2.289   2.315   2.668 -1.1841 -1.2458 -0.7513
 3548TIP3    H232060   2.177   2.380   2.747  0.2910  0.4602 -0.0290
 3549TIP3   OH232061   3.115   0.094  14.666  0.2976 -0.7503 -0.2595
 3549TIP3    H132062   3.127   0.025  14.601 -0.6472 -0.5388 -0.6766
 3549TIP3    H232063   3.040   0.064  14.718 -0.4279  0.1859 -0.7500
 3550TIP3   OH232064   0.165   3.958   4.480 -0.4446 -0.0898 -0.4696
 3550TIP3    H132065   0.100   3.904   4.525  0.9802 -0.6239  0.9960
 3550TIP3    H232066   0.119   3.992   4.403 -2.7631  0.4073  1.0892
 3551TIP3   OH232067   2.558   3.590   3.689 -0.0045 -0.2142 -0.2985
 3551TIP3    H132068   2.581   3.649   3.618  0.8285 -0.2227 -0.0417
 3551TIP3    H232069   2.517   3.646   3.756 -1.1581 -0.2694 -0.9372
 3552TIP3   OH232070   1.121   6.248   3.518  0.0834  0.0103 -0.4579
 3552TIP3    H132071   1.092   6.244   3.427  0.5108  1.0098 -0.6447
 3552TIP3    H232072   1.045   6.222   3.569  0.0157 -1.1463 -1.1258
 3553TIP3   OH232073   2.469   1.147   1.398  0.0845 -0.2735  0.1487
 3553TIP3    H132074   2.388   1.137   1.348  0.6422 -0.0865 -0.8299
 3553TIP3    H232075   2.537   1.154   1.330  1.1170 -2.1210  0.9581
 3554TIP3   OH232076   4.266   2.372   2.624  0.1349  0.6939 -0.2550
 3554TIP3    H132077   4.345   2.377   2.676  0.2016  2.7224 -0.5262
 3554TIP3    H232078   4.212   2.445   2.654 -1.9992 -1.1113  0.4871
 3555TIP3   OH232079   3.761   0.899  13.408 -0.8549  0.2240 -0.1697
 3555TIP3    H132080   3.852   0.872  13.420 -0.8587 -0.3843 -1.3457
 3555TIP3    H232081   3.748   0.970  13.470  0.2160 -0.1503  0.5012
 3556TIP3   OH232082   3.614   0.846  11.359 -0.5609  0.1263  0.2046
 3556TIP3    H132083   3.645   0.932  11.385 -0.8654  0.1051  0.6508
 3556TIP3    H232084   3.555   0.819  11.430 -0.0147 -0.6970  0.3581
 3557TIP3   OH232085   2.883   3.877  10.900  0.4048  0.2981 -0.1657
 3557TIP3    H132086   2.919   3.815  10.963  1.9978  1.8688  0.5103
 3557TIP3    H232087   2.959   3.911  10.853 -0.2769  2.6577  0.3535
 3558TIP3   OH232088   5.667   0.692   3.273  0.2894  0.7728 -0.2323
 3558TIP3    H132089   5.654   0.601   3.300 -0.5810  1.4023  1.5867
 3558TIP3    H232090   5.711   0.687   3.188  1.1476 -1.3296  0.3230
 3559TIP3   OH232091   4.624   0.938  13.362  0.2466  0.4705  0.2074
 3559TIP3    H132092   4.639   0.854  13.320  0.4480  0.4044  0.4104
 3559TIP3    H232093   4.544   0.925  13.414  0.3071  0.3891  0.2816
 3560TIP3   OH232094   2.483   3.401   5.726 -0.5386  0.5704 -0.1077
 3560TIP3    H132095   2.565   3.444   5.752  0.6081 -0.5155 -1.7885
 3560TIP3    H232096   2.511   3.333   5.665 -2.9122  1.5955 -2.3988
 3561TIP3   OH232097   0.529   0.426   4.011 -1.0544  0.0942  0.7275
 3561TIP3    H132098   0.485   0.449   3.929  1.1702  0.1532 -0.4750
 3561TIP3    H232099   0.556   0.335   4.000 -0.9990  0.0030  1.5344
 3562TIP3   OH232100   6.501   5.524  16.651 -0.1849 -0.0531  0.0269
 3562TIP3    H132101   6.413   5.524  16.613 -0.4647  0.3352  0.6795
 3562TIP3    H232102   6.519   5.616  16.670  0.4247 -0.1094 -0.2352
 3563TIP3   OH232103   0.806   2.299   2.229 -0.5675  0.1723  0.7772
 3563TIP3    H132104   0.730   2.312   2.286  0.1639  2.4123  1.2869
 3563TIP3    H232105   0.815   2.381   2.181  0.5553 -0.6646 -0.4768
 3564TIP3   OH232106   5.936   4.256  12.966 -0.0943  0.5303 -0.0707
 3564TIP3    H132107   5.860   4.307  12.939  0.9821  1.6397 -1.0451
 3564TIP3    H232108   5.935   4.179  12.909 -0.5329  0.4892 -0.0066
 3565TIP3   OH232109   6.732   4.061  10.847  0.2844  0.3444 -0.6064
 3565TIP3    H132110   6.654   4.068  10.902  1.4084 -0.2906  1.1156
 3565TIP3    H232111   6.747   4.149  10.815  0.0200  0.8772  0.7016
 3566TIP3   OH232112   6.751   4.188   5.469 -0.2757 -0.1425 -0.0140
 3566TIP3    H132113   6.692   4.154   5.402  1.5214  1.0488 -2.3188
 3566TIP3    H232114   6.732   4.282   5.472 -0.1718 -0.1448  0.9951
 3567TIP3   OH232115   5.097   1.999   4.037  0.2575  0.4839 -0.1174
 3567TIP3    H132116   5.050   1.916   4.048  1.7359 -0.7800 -2.8517
 3567TIP3    H232117   5.185   1.982   4.072  1.3189  0.0836 -2.8640
 3568TIP3   OH232118   3.985   5.466   0.559  0.4251  0.6505  0.1659
 3568TIP3    H132119   3.976   5.460   0.654  0.2130 -0.7712  0.0667
 3568TIP3    H232120   3.902   5.504   0.530  0.3211  0.6931  0.5123
 3569TIP3   OH232121   3.888   3.137   0.403 -0.2496 -0.1016 -0.5369
 3569TIP3    H132122   3.942   3.127   0.325 -0.6615 -1.5184 -0.6387
 3569TIP3    H232123   3.938   3.199   0.458  1.3745 -1.2170 -0.7262
 3570TIP3   OH232124   6.570   0.983   5.338 -0.0448  0.4063  0.2819
 3570TIP3    H132125   6.637   0.988   5.405  0.0553  1.3566  0.1194
 3570TIP3    H232126   6.489   1.009   5.383 -0.6454 -2.4181  0.9154
 3571TIP3   OH232127   2.650   4.136   2.506  0.4161 -0.2172 -0.0884
 3571TIP3    H132128   2.728   4.186   2.482  0.4119 -1.1659 -2.2104
 3571TIP3    H232129   2.651   4.135   2.601  1.9144  1.4619 -0.0461
 3572TIP3   OH232130   3.068   1.917   3.456  0.6066  0.2067  0.6251
 3572TIP3    H132131   2.983   1.924   3.412  0.1753  1.6127  1.6420
 3572TIP3    H232132   3.118   1.855   3.403 -0.9871 -0.4795 -0.0945
 3573TIP3   OH232133   5.906   4.168  13.575  0.3218 -0.0683 -0.1281
 3573TIP3    H132134   6.000   4.175  13.558  0.1557  0.9790 -0.7210
 3573TIP3    H232135   5.899   4.135  13.664  1.2876  2.1217  0.8035
 3574TIP3   OH232136   1.421   6.465   0.486 -0.1377  0.6805  0.1736
 3574TIP3    H132137   1.343   6.514   0.511 -1.4236 -0.4664 -1.4376
 3574TIP3    H232138   1.456   6.511   0.410 -2.3905 -1.8080 -2.4895
 3575TIP3   OH232139   6.011   0.908   2.199 -0.2731  0.8053  0.0726
 3575TIP3    H132140   6.044   0.889   2.287 -0.1852 -1.2153 -0.3837
 3575TIP3    H232141   5.920   0.934   2.212 -0.3531  0.2017  0.7313
 3576TIP3   OH232142   2.521   4.309  12.402 -0.9692  0.1739 -0.5039
 3576TIP3    H132143   2.552   4.272  12.484  0.3086  0.4531 -0.8580
 3576TIP3    H232144   2.558   4.253  12.334  0.7318  1.8715 -1.0302
 3577TIP3   OH232145   0.290   0.980   3.157  0.1055 -0.3217  0.4378
 3577TIP3    H132146   0.295   1.002   3.250  0.9900  1.6783 -0.0642
 3577TIP3    H232147   0.214   0.923   3.150  0.9056 -1.7261  2.6182
 3578TIP3   OH232148   5.651   6.155   6.374 -0.0939  0.4868  0.2441
 3578TIP3    H132149   5.743   6.158   6.397  0.6068 -0.9511 -2.1714
 3578TIP3    H232150   5.647   6.099   6.296 -2.6146  2.9599 -1.5026
 3579TIP3   OH232151   5.668   4.851  10.776  0.5259 -0.3728  0.0997
 3579TIP3    H132152   5.708   4.832  10.691  1.3987 -1.6778  0.7810
 3579TIP3    H232153   5.639   4.765  10.808 -3.7282  0.6141 -0.7911
 3580TIP3   OH232154   2.226   3.861   5.831  0.4483  0.3373 -0.1130
 3580TIP3    H132155   2.209   3.775   5.869 -0.2840 -0.6483 -2.6287
 3580TIP3    H232156   2.288   3.902   5.892  0.6568 -1.8715  1.2056
 3581TIP3   OH232157   0.233   5.679  13.850  0.1701 -0.4167  0.1673
 3581TIP3    H132158   0.213   5.586  13.842  2.4891 -0.7639 -2.5068
 3581TIP3    H232159   0.328   5.685  13.835 -0.0327  2.4309 -0.3373
 3582TIP3   OH232160   5.224   6.586  15.843 -0.5086 -0.5221 -0.2381
 3582TIP3    H132161   5.302   6.530  15.848 -0.4837 -0.3898  1.1584
 3582TIP3    H232162   5.195   6.594  15.934  0.8098  3.5886 -0.0890
 3583TIP3   OH232163   5.410   4.622   2.595 -0.2827  0.3392  0.1760
 3583TIP3    H132164   5.345   4.600   2.527 -0.3571  1.7918 -0.2244
 3583TIP3    H232165   5.458   4.696   2.559  0.4644  0.3709  1.2289
 3584TIP3   OH232166   1.146   3.026   2.108  0.0591 -0.5048  0.1804
 3584TIP3    H132167   1.139   3.051   2.015  0.6527  1.7406  0.7124
 3584TIP3    H232168   1.101   3.097   2.155 -0.8636 -1.9854  1.5804
 3585TIP3   OH232169   4.517   0.405  14.068  0.2007  0.2903 -0.0032
 3585TIP3    H132170   4.431   0.431  14.100 -0.3423  0.4564 -1.5597
 3585TIP3    H232171   4.566   0.487  14.062  0.1920  0.2995  0.0468
 3586TIP3   OH232172   1.091   6.264   0.637 -0.0903  0.7669  0.0148
 3586TIP3    H132173   1.116   6.244   0.728  1.6362  1.3615 -0.3150
 3586TIP3    H232174   1.056   6.353   0.641  1.4579  1.3976 -0.1463
 3587TIP3   OH232175   2.702   6.668  16.157 -0.0539  0.3099  0.1216
 3587TIP3    H132176   2.771   6.686  16.093 -1.1661  0.7637 -0.9580
 3587TIP3    H232177   2.627   6.639  16.105 -0.9769  0.6950  1.2071
 3588TIP3   OH232178   5.531   5.417  13.314  0.0067 -0.3689  0.2484
 3588TIP3    H132179   5.559   5.506  13.337  2.2278 -0.8675 -0.3705
 3588TIP3    H232180   5.542   5.366  13.395 -0.7089 -0.2152  0.4469
 3589TIP3   OH232181   2.740   1.706   0.698  0.0423  0.0544  0.6989
 3589TIP3    H132182   2.666   1.734   0.643 -0.0027 -0.7130  0.3649
 3589TIP3    H232183   2.817   1.731   0.648  0.0097 -2.1304 -0.5123
 3590TIP3   OH232184   6.675   2.819  15.876 -0.4386  0.0409 -0.8491
 3590TIP3    H132185   6.747   2.801  15.816  1.5354 -0.3226  1.5583
 3590TIP3    H232186   6.679   2.913  15.891  3.0733 -0.6347  3.4638
 3591TIP3   OH232187   2.933   2.749  15.726 -0.3577 -0.2211  0.4537
 3591TIP3    H132188   2.950   2.682  15.792  1.2988 -1.0959 -0.8328
 3591TIP3    H232189   2.971   2.829  15.763  1.9129 -1.0266 -0.0642
 3592TIP3   OH232190   3.346   0.413  11.024 -0.1388 -0.0722  0.4481
 3592TIP3    H132191   3.432   0.407  11.064 -0.4650  1.9648  1.4768
 3592TIP3    H232192   3.360   0.459  10.941 -0.0899 -0.7333  0.0802
 3593TIP3   OH232193   4.918   4.251  14.771 -0.1313 -0.5615  0.1350
 3593TIP3    H132194   4.905   4.318  14.838 -0.7504 -1.0374  0.4907
 3593TIP3    H232195   4.864   4.279  14.697 -0.6501 -0.8369  0.4058
 3594TIP3   OH232196   5.476   5.527  14.386  0.5731 -1.0033  0.1967
 3594TIP3    H132197   5.521   5.572  14.458 -3.3800  1.0034  1.5408
 3594TIP3    H232198   5.400   5.486  14.427 -1.2134 -0.6967 -2.6570
 3595TIP3   OH232199   1.261   3.515  13.552 -0.2461 -0.6546 -0.0024
 3595TIP3    H132200   1.272   3.506  13.458 -0.6331 -1.2269  0.0002
 3595TIP3    H232201   1.273   3.427  13.586 -0.4918 -0.5213  0.4369
 3596TIP3   OH232202   4.272   6.411  13.280 -0.0816  0.1722  0.7684
 3596TIP3    H132203   4.284   6.340  13.216  4.9501 -0.1231  1.8175
 3596TIP3    H232204   4.290   6.491  13.231  0.9428  0.1661  1.1221
 3597TIP3   OH232205   1.419   5.646   3.972  0.3533  0.0418  0.5947
 3597TIP3    H132206   1.365   5.601   4.037 -0.5521 -1.0835 -0.8937
 3597TIP3    H232207   1.366   5.721   3.945  0.7300  0.5102  1.1350
 3598TIP3   OH232208   4.539   1.520  14.696 -0.2339  0.8959  0.0079
 3598TIP3    H132209   4.571   1.430  14.704  0.0280  1.0126  0.2822
 3598TIP3    H232210   4.478   1.517  14.622 -0.2666  0.4822  0.0497
 3599TIP3   OH232211   6.273   5.630   4.829 -0.6600  0.3628  0.0188
 3599TIP3    H132212   6.196   5.619   4.774 -1.3731  0.5044  0.9773
 3599TIP3    H232213   6.343   5.655   4.768 -1.1845 -0.4809 -0.9536
 3600TIP3   OH232214   2.381   5.781   6.296  0.3470  0.0575  0.7877
 3600TIP3    H132215   2.326   5.726   6.351  0.3490 -1.0637 -0.3115
 3600TIP3    H232216   2.423   5.720   6.235 -0.1572  1.3253 -0.8724
 3601TIP3   OH232217   5.148   2.969  16.030 -0.2160  0.8372 -0.5221
 3601TIP3    H132218   5.072   2.942  15.978  0.1115 -2.1645  0.4483
 3601TIP3    H232219   5.110   3.021  16.101 -1.2827  0.3155 -0.6871
 3602TIP3   OH232220   3.653   1.941  16.182  0.3618 -0.2547  0.2779
 3602TIP3    H132221   3.607   2.025  16.186 -2.6670 -1.8332 -0.1450
 3602TIP3    H232222   3.743   1.964  16.156  0.1039  2.9945  1.9704
 3603TIP3   OH232223   0.072   1.787   1.232 -0.4338 -0.4373 -0.0166
 3603TIP3    H132224   0.053   1.833   1.314 -0.8673 -0.1812 -0.2605
 3603TIP3    H232225   0.160   1.817   1.208 -0.6018  0.0452 -0.0290
 3604TIP3   OH232226   3.204   3.317  13.208  0.2535  0.2260  0.2592
 3604TIP3    H132227   3.293   3.293  13.181  0.9688  1.2648  1.5931
 3604TIP3    H232228   3.167   3.361  13.132  0.9061 -0.1792 -0.3012
 3605TIP3   OH232229   4.910   3.954  13.127 -0.0302 -0.6567  0.4436
 3605TIP3    H132230   4.844   3.908  13.073 -0.2702 -0.3818  0.5014
 3605TIP3    H232231   4.974   3.886  13.148 -0.6093 -1.0778  0.8930
 3606TIP3   OH232232   6.262   5.605   3.599  0.7018 -0.3809  0.3741
 3606TIP3    H132233   6.231   5.632   3.685 -0.5495 -1.4535  0.2837
 3606TIP3    H232234   6.201   5.536   3.572  0.3037  0.8160 -1.9301
 3607TIP3   OH232235   1.437   2.617   0.006 -0.0606 -0.4302 -0.0673
 3607TIP3    H132236   1.488   2.691  -0.026 -1.4677  0.2387 -0.8505
 3607TIP3    H232237   1.491   2.577   0.073  0.9667  0.9831 -0.0339
 3608TIP3   OH232238   6.451   5.182  11.068 -0.0057  0.2299  0.3133
 3608TIP3    H132239   6.444   5.155  10.977  0.1078  1.4273 -0.0627
 3608TIP3    H232240   6.399   5.262  11.073 -0.6321 -0.2342  1.4782
 3609TIP3   OH232241   1.260   3.418   0.031 -0.1429  0.7692 -0.3220
 3609TIP3    H132242   1.281   3.341  -0.022 -1.1868  0.3034 -0.0784
 3609TIP3    H232243   1.281   3.492  -0.025 -0.1622  0.2898 -0.9683
 3610TIP3   OH232244   2.395   5.553  12.228  0.1609 -0.1418 -0.3206
 3610TIP3    H132245   2.450   5.614  12.278 -0.1740  0.2671 -0.4549
 3610TIP3    H232246   2.316   5.603  12.208 -1.9369 -1.9094  3.1228
 3611TIP3   OH232247   3.782   0.496   4.451 -0.3168  0.2863 -0.2376
 3611TIP3    H132248   3.805   0.492   4.544 -1.1274  0.7402 -0.0130
 3611TIP3    H232249   3.857   0.538   4.410 -0.3915  1.0385  0.3710
 3612TIP3   OH232250   4.594   0.144  14.120 -0.5029  0.3934  0.4915
 3612TIP3    H132251   4.510   0.107  14.094 -0.3641  0.4249 -0.0093
 3612TIP3    H232252   4.578   0.239  14.127 -0.5970  0.3592  0.7518
 3613TIP3   OH232253   3.225   4.353   5.342 -0.0871 -0.6133 -0.2037
 3613TIP3    H132254   3.203   4.443   5.318  0.3153 -1.1751 -2.7683
 3613TIP3    H232255   3.152   4.324   5.397 -0.1926  1.2784  0.6867
 3614TIP3   OH232256   6.363   2.647  15.463 -0.1276 -0.2422  0.5915
 3614TIP3    H132257   6.340   2.608  15.547  1.5689  0.9670  1.6509
 3614TIP3    H232258   6.387   2.737  15.484  0.6309 -0.0209 -1.1366
 3615TIP3   OH232259   2.938   4.064   1.000 -0.1937 -0.1969  0.5778
 3615TIP3    H132260   3.003   4.115   0.952  0.0019 -0.1578  0.8829
 3615TIP3    H232261   2.892   4.013   0.932 -1.4293  1.5309  0.0896
 3616TIP3   OH232262   4.901   5.829  13.315  0.5646 -0.1630 -0.7531
 3616TIP3    H132263   4.994   5.854  13.316  0.5306  0.0125 -1.7743
 3616TIP3    H232264   4.884   5.804  13.224 -0.9515  1.9193 -1.0624
 3617TIP3   OH232265   0.944   2.379  16.778 -0.1887 -0.2900 -0.3917
 3617TIP3    H132266   0.922   2.287  16.788  0.3685 -0.3501  0.3260
 3617TIP3    H232267   0.860   2.424  16.768 -0.5233 -0.7437  0.3625
 3618TIP3   OH232268   4.738   0.932   0.143  0.0907 -0.3476  0.2368
 3618TIP3    H132269   4.756   0.839   0.150 -0.5160 -0.5204 -0.4834
 3618TIP3    H232270   4.727   0.948   0.049 -2.7456 -0.1067  0.5731
 3619TIP3   OH232271   4.554   1.120  12.864 -0.1068  0.4203 -0.5382
 3619TIP3    H132272   4.511   1.059  12.924 -2.2453  1.3054 -1.1019
 3619TIP3    H232273   4.631   1.151  12.911 -1.4262  0.6568  1.5337
 3620TIP3   OH232274   4.291   5.010   0.944  0.0398  0.6616  0.3299
 3620TIP3    H132275   4.306   5.091   0.897  2.5856  0.1002  0.1168
 3620TIP3    H232276   4.226   5.033   1.011 -0.4759  2.4616 -0.7672
 3621TIP3   OH232277   5.017   6.784  12.283 -0.5092  0.0818 -0.4104
 3621TIP3    H132278   5.085   6.852  12.278 -0.1316 -0.2305  0.3306
 3621TIP3    H232279   4.950   6.822  12.341 -0.0215 -0.4035  0.4834
 3622TIP3   OH232280   1.177   0.244  16.414  0.1451  0.3061 -0.0997
 3622TIP3    H132281   1.229   0.181  16.464  0.5739  1.8445  1.3994
 3622TIP3    H232282   1.230   0.323  16.410 -2.1423  1.9875  1.6752
 3623TIP3   OH232283   1.787   5.327   5.214  0.0038  0.2781  0.4976
 3623TIP3    H132284   1.786   5.392   5.284 -2.1625 -0.2652  1.0004
 3623TIP3    H232285   1.728   5.258   5.245  2.2197 -1.9278 -0.0349
 3624TIP3   OH232286   0.950   5.845   1.880 -0.5295 -0.6446 -0.0789
 3624TIP3    H132287   0.890   5.796   1.937 -0.5193  0.4431  0.8728
 3624TIP3    H232288   0.897   5.864   1.802 -1.5389  0.5786  0.8831
 3625TIP3   OH232289   2.814   6.597   3.938 -0.0042  0.3684 -0.6288
 3625TIP3    H132290   2.839   6.600   4.030 -0.4350 -1.0594 -0.4543
 3625TIP3    H232291   2.744   6.662   3.931 -0.6451 -0.2043  0.2759
 3626TIP3   OH232292   3.662   0.869   2.824 -1.1575  0.2526  0.1263
 3626TIP3    H132293   3.656   0.918   2.906 -0.8848 -0.1380  0.3771
 3626TIP3    H232294   3.576   0.828   2.815 -0.7006 -0.9153  0.9749
 3627TIP3   OH232295   0.766   6.315   2.005 -0.6060 -0.6625  0.6576
 3627TIP3    H132296   0.841   6.268   1.970 -0.8650 -0.0539 -0.7674
 3627TIP3    H232297   0.748   6.273   2.089  0.9456 -1.1999  0.7392
 3628TIP3   OH232298   1.515   1.300  14.514 -0.3820 -0.3663  0.1604
 3628TIP3    H132299   1.516   1.313  14.419  1.5515  0.4692  0.2660
 3628TIP3    H232300   1.480   1.382  14.548 -1.1059 -0.6787  0.1623
 3629TIP3   OH232301   3.920   6.306  13.197 -0.2449 -0.3879  0.1525
 3629TIP3    H132302   3.892   6.322  13.107 -0.9714  0.5190  0.5285
 3629TIP3    H232303   3.886   6.381  13.246  2.7355  0.6970  0.6564
 3630TIP3   OH232304   0.863   5.251  14.557 -0.0711 -0.5336 -0.2563
 3630TIP3    H132305   0.825   5.335  14.534 -1.9225 -0.8121  1.6877
 3630TIP3    H232306   0.805   5.186  14.518 -0.1247 -0.9440  0.5031
 3631TIP3   OH232307   1.692   5.798  15.369 -0.5804  0.0592  0.8215
 3631TIP3    H132308   1.649   5.883  15.370  0.8158  0.8225 -0.6413
 3631TIP3    H232309   1.786   5.818  15.373 -0.2478 -1.4098  0.8065
 3632TIP3   OH232310   3.733   6.217   4.258  0.2864 -0.3373 -0.7623
 3632TIP3    H132311   3.682   6.264   4.193  2.0590  1.1194 -1.1476
 3632TIP3    H232312   3.756   6.284   4.323 -0.9842 -1.6422  1.1078
 3633TIP3   OH232313   2.997   4.069  11.187  0.1511  0.2936  0.4142
 3633TIP3    H132314   2.943   4.021  11.250 -0.1903 -1.4206 -1.1161
 3633TIP3    H232315   3.071   4.010  11.170 -0.2882  0.2626 -1.5156
 3634TIP3   OH232316   4.350   5.258   4.131 -0.0244 -0.7705 -0.0811
 3634TIP3    H132317   4.316   5.302   4.053 -0.4192 -2.1816 -0.7270
 3634TIP3    H232318   4.338   5.164   4.112 -2.3168 -1.0859  2.6529
 3635TIP3   OH232319   5.463   2.627  16.143  0.2537  0.3756 -0.0765
 3635TIP3    H132320   5.534   2.594  16.088 -0.1446 -0.2770 -0.2137
 3635TIP3    H232321   5.383   2.598  16.098 -0.0742 -0.7375  1.1654
 3636TIP3   OH232322   1.198   1.757   3.276 -0.1815  0.1834 -0.2217
 3636TIP3    H132323   1.287   1.746   3.244 -0.0964 -0.4241  0.1968
 3636TIP3    H232324   1.143   1.757   3.198  0.0607 -0.8768 -0.3981
 3637TIP3   OH232325   4.547   3.385   4.740  0.0703 -0.0233 -0.1339
 3637TIP3    H132326   4.633   3.393   4.780  0.0280 -0.6752  0.0829
 3637TIP3    H232327   4.492   3.347   4.808 -0.1079 -0.7196 -0.6639
 3638TIP3   OH232328   0.083   4.348   5.779  0.4692 -0.1542 -0.4082
 3638TIP3    H132329   0.086   4.258   5.814  0.9864 -0.3603 -0.9754
 3638TIP3    H232330   0.095   4.403   5.856  2.6554 -0.6312 -0.3678
 3639TIP3   OH232331   0.167   5.864   3.741  0.3152 -0.1384  0.5704
 3639TIP3    H132332   0.115   5.840   3.664 -0.8785 -0.0247  1.3345
 3639TIP3    H232333   0.188   5.957   3.728 -0.7205  0.1367  0.8589
 3640TIP3   OH232334   6.055   6.496   5.045  0.3679 -0.0970 -0.0282
 3640TIP3    H132335   6.102   6.512   4.964  1.0617  0.4071  0.4644
 3640TIP3    H232336   6.098   6.553   5.110 -0.0149 -0.6714  0.7427
 3641TIP3   OH232337   2.981   0.212  12.693  0.2223  0.0615  0.1457
 3641TIP3    H132338   3.069   0.198  12.727  0.6421  1.8033 -0.1822
 3641TIP3    H232339   2.932   0.248  12.767  0.3375  1.0042 -0.2253
 3642TIP3   OH232340   3.296   1.731   0.040 -0.4675  0.1462  0.3221
 3642TIP3    H132341   3.236   1.790  -0.004  1.1238  1.3028 -0.3522
 3642TIP3    H232342   3.360   1.707  -0.027 -0.2426 -1.1461  0.9829
 3643TIP3   OH232343   2.131   0.856  13.107  0.6299  0.3203 -0.2615
 3643TIP3    H132344   2.186   0.813  13.041  0.0573  0.0185 -0.5439
 3643TIP3    H232345   2.136   0.949  13.085 -1.4193  0.0141 -2.1650
 3644TIP3   OH232346   1.524   2.239   2.677 -0.9018 -0.2666  0.4281
 3644TIP3    H132347   1.578   2.161   2.679  0.7871  0.8641  0.2750
 3644TIP3    H232348   1.587   2.312   2.672 -2.4435  1.0644 -0.1297
 3645TIP3   OH232349   0.470   0.074  14.335  0.5882  0.0812 -0.0147
 3645TIP3    H132350   0.497   0.018  14.407 -0.0772  0.5576  0.6086
 3645TIP3    H232351   0.443   0.156  14.377 -0.4098  0.1370 -0.7473
 3646TIP3   OH232352   5.607   6.498  11.768 -0.4135  0.3698 -0.0387
 3646TIP3    H132353   5.603   6.515  11.862 -1.0854 -1.8840  0.3703
 3646TIP3    H232354   5.701   6.491  11.749 -0.3439 -1.6705  0.9667
 3647TIP3   OH232355   0.949   4.537   5.134 -0.1771  0.1618 -0.2218
 3647TIP3    H132356   0.868   4.513   5.089 -0.4037 -0.4289  0.5077
 3647TIP3    H232357   0.921   4.572   5.218  0.2892  0.6427 -0.2615
 3648TIP3   OH232358   3.016   5.198   2.158  0.3501 -0.0515 -0.6150
 3648TIP3    H132359   2.993   5.291   2.156 -0.1916 -0.1645  0.3588
 3648TIP3    H232360   3.111   5.197   2.169  0.2009  0.3833  0.7548
 3649TIP3   OH232361   1.088   5.089  12.071 -0.3324  0.7563 -0.2635
 3649TIP3    H132362   1.132   5.170  12.095  1.4122 -0.5388  1.0132
 3649TIP3    H232363   1.009   5.087  12.126 -1.4018  2.4787 -1.6735
 3650TIP3   OH232364   5.121   5.716   3.866  0.4126 -0.0073 -0.4243
 3650TIP3    H132365   5.188   5.653   3.893 -0.3440 -0.8995 -0.6000
 3650TIP3    H232366   5.044   5.692   3.917  0.4542  1.5506  0.4051
 3651TIP3   OH232367   4.115   3.692  12.466  0.0985 -0.2797  0.1355
 3651TIP3    H132368   4.085   3.751  12.397  1.0552  0.0677 -0.0001
 3651TIP3    H232369   4.075   3.608  12.445  0.9667 -0.3612 -1.2851
 3652TIP3   OH232370   3.810   2.501   3.475 -0.1255 -0.0062 -0.2411
 3652TIP3    H132371   3.838   2.592   3.484  2.6151 -0.8669  0.4236
 3652TIP3    H232372   3.891   2.452   3.462 -1.6901 -2.1986 -2.1098
 3653TIP3   OH232373   6.161   3.238  16.920  0.4885 -0.1435 -0.3210
 3653TIP3    H132374   6.111   3.320  16.919  0.8377  0.0655 -0.7957
 3653TIP3    H232375   6.190   3.227  16.830  1.3306 -0.2473 -0.0378
 3654TIP3   OH232376   0.021   5.674   0.234  0.4477 -0.4802 -0.0433
 3654TIP3    H132377  -0.020   5.679   0.147  1.7159 -0.6740 -0.6589
 3654TIP3    H232378  -0.045   5.631   0.289  0.1329 -1.5387 -1.2250
 3655TIP3   OH232379   2.827   3.616  11.489  0.3243 -0.0946 -0.4425
 3655TIP3    H132380   2.812   3.580  11.402  1.1655  0.2164 -0.7150
 3655TIP3    H232381   2.919   3.598  11.507  0.5152  1.1035 -0.1947
 3656TIP3   OH232382   6.437   0.797   3.087  0.1982 -0.3164  0.0464
 3656TIP3    H132383   6.358   0.835   3.050 -0.1422 -0.1570  0.9103
 3656TIP3    H232384   6.453   0.848   3.167  1.4360 -0.0436 -0.3695
 3657TIP3   OH232385   1.336   5.149  12.250 -0.2787  0.1113  0.0280
 3657TIP3    H132386   1.367   5.152  12.160 -0.0332  0.3283  0.1206
 3657TIP3    H232387   1.372   5.228  12.291 -0.8282  0.2948  0.1715
 3658TIP3   OH232388   0.879   0.197   0.546 -0.4731 -0.1679 -0.5553
 3658TIP3    H132389   0.812   0.146   0.592 -0.5501  0.2858 -0.1666
 3658TIP3    H232390   0.912   0.258   0.612 -2.0402  1.9168 -1.6455
 3659TIP3   OH232391   1.245   1.475  11.849 -0.0586  0.8681 -0.0463
 3659TIP3    H132392   1.291   1.559  11.842 -1.0007  1.4739  0.8345
 3659TIP3    H232393   1.219   1.454  11.760  1.6879  0.6478 -0.5213
 3660TIP3   OH232394   4.757   5.991  11.769 -0.1857 -0.1722  0.1884
 3660TIP3    H132395   4.755   6.047  11.692  1.5724  1.2849  1.1691
 3660TIP3    H232396   4.711   5.911  11.742  1.0169  0.0208 -2.5652
 3661TIP3   OH232397   6.380   2.118   3.141 -0.2344 -0.7583 -0.0659
 3661TIP3    H132398   6.355   2.163   3.061  0.3555  0.6325  0.5160
 3661TIP3    H232399   6.470   2.089   3.126 -0.0066 -0.2052  0.2047
 3662TIP3   OH232400   5.594   2.123  15.734  0.2012  0.0622 -0.2793
 3662TIP3    H132401   5.670   2.099  15.786 -1.1835 -0.3885  1.5637
 3662TIP3    H232402   5.618   2.206  15.693  1.7649 -0.2046  0.0701
 3663TIP3   OH232403   1.135   3.667  13.731 -0.6700 -0.4537  0.2951
 3663TIP3    H132404   1.182   3.612  13.668  0.8408  1.1048  0.0390
 3663TIP3    H232405   1.057   3.696  13.683  0.5438  0.8505 -0.9375
 3664TIP3   OH232406   5.129   0.173   1.638 -0.5483 -0.6635  0.0571
 3664TIP3    H132407   5.111   0.110   1.708  1.7886 -0.9113  0.4567
 3664TIP3    H232408   5.161   0.251   1.683 -0.3207 -0.3412 -0.6602
 3665TIP3   OH232409   0.505   1.057  12.903  0.7473 -0.0229  0.1335
 3665TIP3    H132410   0.515   0.965  12.926  2.2873  0.1534  0.2130
 3665TIP3    H232411   0.425   1.085  12.947 -0.1659 -1.5220 -0.5412
 3666TIP3   OH232412   5.829   4.308   1.465  0.3221  0.2875 -0.4267
 3666TIP3    H132413   5.883   4.385   1.477  1.7396 -0.8320  0.5605
 3666TIP3    H232414   5.788   4.293   1.550 -1.8040  1.2982 -1.2423
 3667TIP3   OH232415   3.765   0.648   0.285 -0.6787 -0.1897 -0.1549
 3667TIP3    H132416   3.721   0.570   0.249 -0.0259 -2.8277  4.4293
 3667TIP3    H232417   3.858   0.628   0.277 -0.4858  0.5427  0.2550
 3668TIP3   OH232418   1.750   4.540   4.376 -0.1910  0.4329  0.3655
 3668TIP3    H132419   1.834   4.567   4.413 -0.6422 -1.1726  2.6440
 3668TIP3    H232420   1.689   4.608   4.403  0.0493  0.7364  0.1427
 3669TIP3   OH232421   5.616   0.676  14.954 -0.0646  0.5091  0.0577
 3669TIP3    H132422   5.554   0.697  15.024 -1.1398  0.7279 -0.9400
 3669TIP3    H232423   5.642   0.586  14.971 -0.4516  0.5037  0.6475
 3670TIP3   OH232424   0.537   0.010   5.770  0.4041  0.0755  0.7850
 3670TIP3    H132425   0.578  -0.028   5.692  0.0147 -1.2407  1.2131
 3670TIP3    H232426   0.447  -0.024   5.769 -0.1920  1.5895  0.7702
 3671TIP3   OH232427   0.752   5.145   0.584 -0.0435  0.2335 -0.4843
 3671TIP3    H132428   0.795   5.206   0.524 -0.2164  0.2773 -0.5651
 3671TIP3    H232429   0.662   5.139   0.551 -0.0189 -0.0883 -0.4976
 3672TIP3   OH232430   0.384   1.295   1.414  0.1478 -0.1919  0.0516
 3672TIP3    H132431   0.303   1.248   1.437  0.0324 -0.3215 -0.6158
 3672TIP3    H232432   0.361   1.387   1.422 -0.3456 -0.2051 -1.0405
 3673TIP3   OH232433   5.369   0.158   4.149 -0.7135 -0.4983 -0.2358
 3673TIP3    H132434   5.449   0.205   4.127 -0.2675 -1.3626 -0.4682
 3673TIP3    H232435   5.325   0.214   4.213 -0.3662  0.4053 -0.7735
 3674TIP3   OH232436   0.732   6.453   0.000 -0.1369 -0.0404 -0.0094
 3674TIP3    H132437   0.641   6.472   0.026 -0.3322 -0.3468 -0.4745
 3674TIP3    H232438   0.777   6.537   0.009 -0.2438 -0.0861  1.1476
 3675TIP3   OH232439   1.794   2.746  16.784 -0.1467  0.2159 -0.2099
 3675TIP3    H132440   1.710   2.746  16.738  0.1526 -1.7423 -0.7964
 3675TIP3    H232441   1.772   2.727  16.875 -0.3707  0.0480 -0.2982
 3676TIP3   OH232442   3.362   2.002   1.251 -0.7986  0.1723 -0.1738
 3676TIP3    H132443   3.433   2.037   1.197 -0.1488  0.9257  1.1221
 3676TIP3    H232444   3.405   1.935   1.306 -1.1958  0.2439  0.2297
 3677TIP3   OH232445   1.030   2.663  17.172  0.3396  0.0428 -0.5547
 3677TIP3    H132446   1.076   2.697  17.096 -1.3099  1.3528 -0.9978
 3677TIP3    H232447   0.940   2.650  17.141 -0.3316  0.5372  1.1512
 3678TIP3   OH232448   4.243   2.651  12.327 -0.3849 -0.2018  0.4600
 3678TIP3    H132449   4.268   2.595  12.254 -1.5658  0.2754 -0.3246
 3678TIP3    H232450   4.189   2.595  12.382  0.3430 -0.5040  0.8719
 3679TIP3   OH232451   6.694   3.388  14.309 -0.1191 -0.0468 -0.6758
 3679TIP3    H132452   6.697   3.482  14.292  0.2521 -0.1433 -1.1660
 3679TIP3    H232453   6.735   3.378  14.395 -0.5727  0.2852 -0.4189
 3680TIP3   OH232454   4.042   2.370  15.677  0.2265 -0.0414  0.2342
 3680TIP3    H132455   3.971   2.432  15.661 -0.8562 -1.2430  0.3247
 3680TIP3    H232456   4.092   2.368  15.595  0.5399  1.2777  0.3835
 3681TIP3   OH232457   6.339   3.438  10.811  0.0283 -0.5387  0.1970
 3681TIP3    H132458   6.256   3.434  10.764 -1.3180  1.1629  2.3582
 3681TIP3    H232459   6.406   3.435  10.742 -1.8698  1.3770 -1.7770
 3682TIP3   OH232460   2.196   0.292   3.572 -0.0622  0.4073 -0.8527
 3682TIP3    H132461   2.195   0.364   3.636  0.1583  0.4501 -0.8958
 3682TIP3    H232462   2.124   0.313   3.512 -2.4154 -1.3479  1.2466
 3683TIP3   OH232463   4.255   4.355   1.265 -0.3056 -0.2161  0.5157
 3683TIP3    H132464   4.309   4.300   1.322 -0.4572  1.3320  2.1660
 3683TIP3    H232465   4.306   4.435   1.253 -2.1054  1.1771  1.9160
 3684TIP3   OH232466   4.501   4.667   6.057  0.0435  0.0217  0.7410
 3684TIP3    H132467   4.586   4.624   6.061  0.3020  0.6523  2.0266
 3684TIP3    H232468   4.521   4.760   6.052 -0.4742  0.0151 -3.3674
 3685TIP3   OH232469   0.704   2.792   0.371  0.8668  0.1998  0.8041
 3685TIP3    H132470   0.789   2.836   0.361  0.6220  0.0878 -2.0006
 3685TIP3    H232471   0.646   2.859   0.407  1.4148  1.1399 -0.0419
 3686TIP3   OH232472   3.956   1.729   5.178  1.1389 -0.6376  0.2488
 3686TIP3    H132473   3.960   1.675   5.099 -1.6672  1.9482 -1.7911
 3686TIP3    H232474   3.863   1.750   5.188  1.4141 -0.9922  4.3545
 3687TIP3   OH232475   3.285   2.375   1.181 -0.8445 -0.0211 -0.0149
 3687TIP3    H132476   3.198   2.341   1.202 -0.1960 -1.0024  1.1415
 3687TIP3    H232477   3.312   2.325   1.104 -0.3898 -1.3238  0.9677
 3688TIP3   OH232478   3.997   6.018   4.363 -0.2978  0.0300 -0.0639
 3688TIP3    H132479   3.990   6.055   4.451 -0.2687  0.8802 -0.4061
 3688TIP3    H232480   4.061   6.074   4.319 -1.3446  0.4742 -1.0480
 3689TIP3   OH232481   4.426   4.478   1.798 -0.0783  0.2350  0.0076
 3689TIP3    H132482   4.346   4.433   1.825 -0.1049 -0.5265 -1.3188
 3689TIP3    H232483   4.494   4.410   1.799  0.3058  0.6102 -0.0556
 3690TIP3   OH232484   6.288   2.916   3.735 -0.4423  0.2049  0.1812
 3690TIP3    H132485   6.308   2.905   3.642 -0.3909 -0.0269  0.2185
 3690TIP3    H232486   6.286   3.010   3.748 -0.2096  0.2364 -0.0035
 3691TIP3   OH232487   0.163   6.143   3.697 -0.1188  0.1706  0.4952
 3691TIP3    H132488   0.145   6.098   3.614 -1.1669  0.5783  0.5037
 3691TIP3    H232489   0.216   6.219   3.672  0.2936 -0.1756  0.3024
 3692TIP3   OH232490   4.686   1.419   2.180  0.1333 -0.6795 -0.2786
 3692TIP3    H132491   4.609   1.407   2.125  1.0287 -1.1558 -1.4319
 3692TIP3    H232492   4.715   1.509   2.162  0.6540 -0.9665 -0.8804
 3693TIP3   OH232493   4.493   0.312   0.736  0.3674 -0.3638 -0.1206
 3693TIP3    H132494   4.476   0.244   0.670  2.3646 -0.5156 -0.5060
 3693TIP3    H232495   4.555   0.371   0.694  0.0130  0.7261  0.8657
 3694TIP3   OH232496   6.255   6.314  14.157 -0.1377 -0.4924 -0.5226
 3694TIP3    H132497   6.243   6.406  14.137 -1.1463 -0.9444 -2.0576
 3694TIP3    H232498   6.195   6.268  14.098 -1.2304 -2.0233  1.7254
 3695TIP3   OH232499   0.181   6.420  13.240 -0.2530  0.3620 -0.7698
 3695TIP3    H132500   0.230   6.338  13.245  1.0065  1.1009 -0.9040
 3695TIP3    H232501   0.090   6.392  13.225 -0.0709 -1.0402  0.6058
 3696TIP3   OH232502   4.379   6.367  14.196  0.4272 -0.0337 -0.1518
 3696TIP3    H132503   4.418   6.285  14.166  1.3678  0.3804 -0.0856
 3696TIP3    H232504   4.440   6.399  14.262 -0.8218 -0.1549  1.0957
 3697TIP3   OH232505   2.876   5.162  12.392  0.0415  0.6620  0.0397
 3697TIP3    H132506   2.915   5.147  12.478 -1.6781  0.4241  0.7792
 3697TIP3    H232507   2.834   5.080  12.370  1.0250  0.5126 -1.3410
 3698TIP3   OH232508   4.225   4.997  12.693 -0.2006 -0.3765 -0.4392
 3698TIP3    H132509   4.199   4.912  12.728 -0.2450 -1.2136 -2.4410
 3698TIP3    H232510   4.144   5.034  12.657  0.0751 -0.0863 -0.7745
 3699TIP3   OH232511   3.360   0.500  13.430  0.1113 -0.5913  0.3730
 3699TIP3    H132512   3.315   0.563  13.375 -1.2756 -0.5705  1.5182
 3699TIP3    H232513   3.340   0.527  13.519  1.4153 -1.2885  0.8939
 3700TIP3   OH232514   6.275   0.539  14.813 -0.0078  0.6351 -0.4625
 3700TIP3    H132515   6.312   0.508  14.896  1.0077  0.9291 -0.7895
 3700TIP3    H232516   6.204   0.478  14.793  0.8568 -0.4626 -0.2376
 3701TIP3   OH232517   3.721   1.025  15.098 -0.7639  0.0719  0.3432
 3701TIP3    H132518   3.694   0.942  15.057 -0.6603  0.2190 -0.0247
 3701TIP3    H232519   3.807   1.006  15.136 -0.5150  0.1503 -0.1760
 3702TIP3   OH232520   4.614   2.929  14.255 -0.0406 -0.2945  0.1655
 3702TIP3    H132521   4.535   2.960  14.210 -0.4414 -0.2580  0.9028
 3702TIP3    H232522   4.653   3.008  14.292 -0.3145 -0.4762  0.8469
 3703TIP3   OH232523   3.469   6.568  11.287 -0.2617 -0.2276  0.4850
 3703TIP3    H132524   3.547   6.588  11.236 -0.7308 -0.8420 -0.4921
 3703TIP3    H232525   3.463   6.473  11.288 -1.0569 -0.1892  0.4420
 3704TIP3   OH232526   2.447   0.865   3.339  0.4127  0.7055 -0.1358
 3704TIP3    H132527   2.395   0.855   3.259  0.2480 -1.7990  0.2742
 3704TIP3    H232528   2.395   0.822   3.407  1.4518  1.1550  0.9472
 3705TIP3   OH232529   5.100   0.984   2.033  0.5394  0.1549 -0.0835
 3705TIP3    H132530   5.062   0.982   2.120  1.9393  1.4757  0.5735
 3705TIP3    H232531   5.079   1.072   2.000 -0.5467 -0.5560 -1.3440
 3706TIP3   OH232532   0.908   6.709  17.151  0.8225 -0.0514 -0.2105
 3706TIP3    H132533   0.918   6.671  17.064  0.8468  1.7680 -1.0252
 3706TIP3    H232534   0.817   6.739  17.153  1.0369  0.5722  0.1245
 3707TIP3   OH232535   2.152   2.871  11.559 -0.0847 -0.0167  0.1076
 3707TIP3    H132536   2.070   2.918  11.567 -1.0720 -1.0551 -2.9676
 3707TIP3    H232537   2.142   2.796  11.617 -0.6562  0.7282  0.9800
 3708TIP3   OH232538   0.608   5.782   5.454  0.2505  0.3979 -0.4185
 3708TIP3    H132539   0.553   5.792   5.531 -0.4718  1.0397 -1.0126
 3708TIP3    H232540   0.630   5.872   5.428  1.9662  0.1464  0.0822
 3709TIP3   OH232541   2.605   6.287   3.524 -0.0148 -0.6166 -0.2044
 3709TIP3    H132542   2.648   6.282   3.439 -0.3860  0.8401 -0.4991
 3709TIP3    H232543   2.662   6.343   3.576  0.2809 -1.6177  0.5591
 3710TIP3   OH232544   2.940   2.623   4.365 -0.7227 -0.2186  0.0038
 3710TIP3    H132545   3.031   2.616   4.393  0.8929  4.6398 -3.2259
 3710TIP3    H232546   2.932   2.558   4.295  0.0232 -1.3014  0.9181
 3711TIP3   OH232547   2.758   6.566  15.095 -0.2996  0.1423  0.5084
 3711TIP3    H132548   2.688   6.600  15.151 -0.3982  0.1028  0.4085
 3711TIP3    H232549   2.812   6.643  15.075 -0.4573  0.2190  0.3782
 3712TIP3   OH232550   4.613   0.254  14.504  0.2590 -0.3784 -0.0876
 3712TIP3    H132551   4.607   0.162  14.526  1.8063 -1.2460 -3.0508
 3712TIP3    H232552   4.528   0.290  14.530 -0.4247 -2.6456  0.9344
 3713TIP3   OH232553   6.367   3.202  17.077  0.4129 -0.4344 -0.5562
 3713TIP3    H132554   6.303   3.230  17.012  0.3320 -1.4369 -0.9127
 3713TIP3    H232555   6.407   3.124  17.039 -0.0992 -1.4127  0.8648
 3714TIP3   OH232556   3.371   3.145   2.676 -0.5765 -0.5915  0.0074
 3714TIP3    H132557   3.302   3.080   2.663 -1.2385  0.1671 -0.3128
 3714TIP3    H232558   3.325   3.228   2.685  0.1278 -0.4384  2.5963
 3715TIP3   OH232559   4.094   6.764   5.733 -0.3338  0.3731 -0.0270
 3715TIP3    H132560   4.131   6.846   5.701 -0.6126  0.8115  0.7799
 3715TIP3    H232561   4.005   6.786   5.760 -0.6453 -0.3376 -0.4280
 3716TIP3   OH232562   5.834   4.235   4.448  0.2572  0.0264  0.4504
 3716TIP3    H132563   5.807   4.228   4.539 -0.0340  0.9369  0.4421
 3716TIP3    H232564   5.881   4.154   4.430 -1.4018 -1.0296  0.8204
 3717TIP3   OH232565   0.976   5.872  16.365 -0.2171 -0.2466 -0.1831
 3717TIP3    H132566   1.050   5.813  16.383  0.6750  0.6410 -0.8628
 3717TIP3    H232567   0.909   5.845  16.427  1.2020 -0.1386  1.4537
 3718TIP3   OH232568   6.731   2.549  14.173  0.3950  0.1992  0.0059
 3718TIP3    H132569   6.768   2.604  14.243  1.3629 -2.2107  1.4453
 3718TIP3    H232570   6.775   2.464  14.183 -1.3222 -0.9689 -1.9419
 3719TIP3   OH232571   6.578   3.835  10.795  0.1650  0.4843 -0.3294
 3719TIP3    H132572   6.605   3.927  10.795  1.4226  0.1245  0.1296
 3719TIP3    H232573   6.546   3.819  10.706  1.1538  1.0169 -0.7836
 3720TIP3   OH232574   5.442   0.477  17.000  0.5916 -0.2282 -0.2080
 3720TIP3    H132575   5.425   0.440  17.086 -0.2647  1.6010  0.4440
 3720TIP3    H232576   5.395   0.420  16.939  1.5786 -1.7897  0.4722
 3721TIP3   OH232577   2.316   5.237  11.999  0.5312  1.1110  0.0964
 3721TIP3    H132578   2.296   5.144  12.009  1.0192  1.2564  2.7386
 3721TIP3    H232579   2.273   5.262  11.917  0.0179 -1.3212 -0.4109
 3722TIP3   OH232580   5.884   3.788  12.326 -0.2574 -0.1665 -0.0009
 3722TIP3    H132581   5.888   3.748  12.239  0.1469  0.6812 -0.3744
 3722TIP3    H232582   5.852   3.876  12.310  1.7551  0.6751  0.4825
 3723TIP3   OH232583   1.782   1.317   5.903 -0.2658 -0.5888 -0.4623
 3723TIP3    H132584   1.825   1.234   5.923 -0.4413 -0.7224 -0.6268
 3723TIP3    H232585   1.810   1.337   5.814 -0.5050 -0.6542 -0.5539
 3724TIP3   OH232586   0.875   4.367  16.101 -0.2950 -0.0055 -0.7847
 3724TIP3    H132587   0.881   4.462  16.108  1.7347 -0.1970  0.5879
 3724TIP3    H232588   0.847   4.338  16.188  2.1285 -0.8549 -0.2516
 3725TIP3   OH232589   0.566   0.227  11.570 -0.2102 -0.5466  0.3720
 3725TIP3    H132590   0.472   0.241  11.571 -0.4181 -1.9024  0.6691
 3725TIP3    H232591   0.582   0.160  11.636  1.2499  1.2824  1.9417
 3726TIP3   OH232592   4.962   1.349  15.609  0.2018 -0.6235  0.0331
 3726TIP3    H132593   4.936   1.345  15.701  0.2209 -0.4960  0.0450
 3726TIP3    H232594   4.908   1.419  15.571 -2.0146 -2.7290 -0.8004
 3727TIP3   OH232595   3.450   5.201  12.063 -0.3547  0.5212  0.1554
 3727TIP3    H132596   3.497   5.120  12.048  0.8992  1.3811 -0.6141
 3727TIP3    H232597   3.392   5.182  12.137 -0.9813 -1.4311 -0.7987
 3728TIP3   OH232598   3.084   3.712   0.264  0.1293 -0.0167  0.6673
 3728TIP3    H132599   3.069   3.750   0.350  0.2451  2.1806 -0.2392
 3728TIP3    H232600   3.179   3.704   0.257  0.2237  1.2712  0.1837
 3729TIP3   OH232601   2.520   3.959  15.804  0.1102  0.1354 -0.1248
 3729TIP3    H132602   2.528   3.946  15.899 -1.3747  2.4235  0.3432
 3729TIP3    H232603   2.610   3.973  15.774  0.4725  0.4503  1.1016
 3730TIP3   OH232604   5.225   5.490   4.024 -0.0141  0.2188 -0.1794
 3730TIP3    H132605   5.164   5.416   4.034  0.5029 -0.1493  0.3001
 3730TIP3    H232606   5.299   5.467   4.081 -0.8625  2.2053  1.7953
 3731TIP3   OH232607   6.076   0.388   5.870 -0.5929 -0.4882 -0.1120
 3731TIP3    H132608   6.104   0.479   5.862 -2.4605 -0.0080 -1.6812
 3731TIP3    H232609   6.084   0.368   5.963 -1.5854  1.7701  0.4961
 3732TIP3   OH232610   0.259   4.787   2.691  0.0842  0.6716  0.4819
 3732TIP3    H132611   0.343   4.827   2.713  2.3825 -3.4572 -0.1658
 3732TIP3    H232612   0.253   4.712   2.751 -1.6487 -0.8272 -1.5106
 3733TIP3   OH232613   6.253   4.259  12.137  0.0735 -0.1009 -0.0819
 3733TIP3    H132614   6.207   4.316  12.076  2.0654 -1.6055 -3.1471
 3733TIP3    H232615   6.221   4.171  12.118 -0.3033 -0.4751  2.0805
 3734TIP3   OH232616   0.551   3.775  16.442 -0.5099 -0.1481 -0.3861
 3734TIP3    H132617   0.583   3.864  16.432  0.8390 -0.3134  1.9991
 3734TIP3    H232618   0.592   3.726  16.371 -0.5023  0.9304 -1.1291
 3735TIP3   OH232619   4.999   3.779  12.631  0.0941  0.8585 -0.2976
 3735TIP3    H132620   5.060   3.819  12.693  0.0995  0.4037 -0.0073
 3735TIP3    H232621   4.988   3.845  12.562  0.0908  1.3648  0.1841
 3736TIP3   OH232622   6.646   2.443   2.948 -0.4729 -0.2819  0.6436
 3736TIP3    H132623   6.592   2.364   2.946 -0.0189 -0.6169  1.2501
 3736TIP3    H232624   6.696   2.440   2.867 -0.7715 -0.3987  0.4641
 3737TIP3   OH232625   2.344   4.706   2.954 -0.1018 -0.0141  0.2610
 3737TIP3    H132626   2.401   4.740   2.885 -0.2950  0.4505  0.3293
 3737TIP3    H232627   2.403   4.695   3.029  0.3550 -1.6699 -0.3325
 3738TIP3   OH232628   5.144   5.090   3.276  0.0369 -0.1563 -0.5616
 3738TIP3    H132629   5.080   5.159   3.295  1.3948  0.4917  2.0217
 3738TIP3    H232630   5.191   5.122   3.199  0.2359  1.5617  0.2312
 3739TIP3   OH232631   5.841   4.075   1.099  0.3377 -0.0494  0.3418
 3739TIP3    H132632   5.892   4.042   1.025 -0.3616 -0.1122 -0.1068
 3739TIP3    H232633   5.904   4.128   1.149  0.5333  0.8729 -0.8669
 3740TIP3   OH232634   3.144   0.020   1.619 -0.4637 -0.3059  0.0943
 3740TIP3    H132635   3.180  -0.030   1.692 -0.3271  0.0579  0.2805
 3740TIP3    H232636   3.088  -0.042   1.572 -0.9327 -0.4108  0.7893
 3741TIP3   OH232637   1.310   5.914  10.996 -0.5330 -0.2696  0.0145
 3741TIP3    H132638   1.306   6.010  11.001 -0.7112 -0.2844  0.1871
 3741TIP3    H232639   1.218   5.887  10.995 -0.5185 -0.3067 -2.9805
 3742TIP3   OH232640   1.267   2.872   2.686  0.6185 -0.7129  0.1986
 3742TIP3    H132641   1.174   2.848   2.685  0.7706 -1.3256 -2.3828
 3742TIP3    H232642   1.267   2.967   2.677  0.2562 -0.9152 -2.2528
 3743TIP3   OH232643   2.088   1.488   1.640 -0.3288  0.2065 -0.5712
 3743TIP3    H132644   2.177   1.515   1.666 -0.3239  0.0692 -0.4412
 3743TIP3    H232645   2.050   1.452   1.720 -1.0957  1.7931 -0.1939
 3744TIP3   OH232646   1.260   3.804   4.248 -0.1105  0.1653  0.1258
 3744TIP3    H132647   1.179   3.794   4.297  0.3023 -1.9665  0.4528
 3744TIP3    H232648   1.238   3.776   4.159 -0.1176  1.1006 -0.1689
 3745TIP3   OH232649   1.335   2.060  15.077  0.4636 -0.3025 -0.5324
 3745TIP3    H132650   1.426   2.090  15.087  0.3115 -0.0568  0.1815
 3745TIP3    H232651   1.342   1.964  15.077  0.6522 -0.2999  0.3592
 3746TIP3   OH232652   2.367   1.322   4.505  0.4416  0.3802 -0.0975
 3746TIP3    H132653   2.288   1.307   4.556  0.0504  1.1018 -0.4952
 3746TIP3    H232654   2.433   1.349   4.569  0.2093  0.3502  0.1523
 3747TIP3   OH232655   4.844   4.904   3.989  0.1178 -0.1585 -0.1501
 3747TIP3    H132656   4.787   4.832   3.966 -0.2835  0.4809 -1.1837
 3747TIP3    H232657   4.793   4.956   4.052 -0.1152 -0.0378 -0.4402
 3748TIP3   OH232658   2.821   3.058  10.956 -0.8158 -0.2436  0.1633
 3748TIP3    H132659   2.855   2.981  10.911  3.3162  1.3821  0.3262
 3748TIP3    H232660   2.829   3.037  11.049 -0.0102  0.2444  0.2051
 3749TIP3   OH232661   1.264   4.725  11.127 -0.0603  0.1896 -0.0604
 3749TIP3    H132662   1.210   4.657  11.089 -2.0341  0.9441  1.3490
 3749TIP3    H232663   1.265   4.795  11.061  1.5096 -0.9441 -1.2629
 3750TIP3   OH232664   0.310   3.203   3.290  0.1348  0.3739 -0.6251
 3750TIP3    H132665   0.352   3.156   3.362 -1.0072  0.3158  0.0039
 3750TIP3    H232666   0.378   3.263   3.258  0.5833  0.5433  0.6229
 3751TIP3   OH232667   3.771   4.439   1.065 -0.1102 -0.1008 -0.1788
 3751TIP3    H132668   3.750   4.524   1.105 -1.1573 -1.0477  1.3333
 3751TIP3    H232669   3.855   4.453   1.023 -0.6065  1.9018 -0.5773
 3752TIP3   OH232670   0.738   3.179   4.976 -0.5658  0.0048  0.4387
 3752TIP3    H132671   0.660   3.171   5.031 -0.6725  1.9828  0.6061
 3752TIP3    H232672   0.807   3.137   5.028 -0.3092  3.2662  2.8826
 3753TIP3   OH232673   3.941   0.052   0.799 -0.4167  0.2663  0.3644
 3753TIP3    H132674   3.895   0.037   0.716  0.6111 -0.7885 -0.0280
 3753TIP3    H232675   3.872   0.063   0.864 -1.2186 -0.0405 -0.4379
 3754TIP3   OH232676   0.886   5.014   4.167  0.2978 -0.0947 -0.4817
 3754TIP3    H132677   0.920   4.947   4.227  1.3411  1.9601  1.2549
 3754TIP3    H232678   0.825   5.065   4.220  1.4463  1.9274 -1.0414
 3755TIP3   OH232679   0.059   0.295  12.457 -0.1574  0.4205 -0.0784
 3755TIP3    H132680   0.049   0.254  12.543  0.4914 -2.7449 -1.4312
 3755TIP3    H232681  -0.022   0.272  12.410  1.5508 -2.0314 -1.9051
 3756TIP3   OH232682   0.048   5.557   3.540  0.0015  0.5111  0.0078
 3756TIP3    H132683   0.102   5.554   3.619 -2.5149 -1.5406  1.6988
 3756TIP3    H232684   0.039   5.651   3.521  0.4152  1.0286  2.2868
 3757TIP3   OH232685   2.818   2.450   0.619  0.1577  0.3086 -0.0077
 3757TIP3    H132686   2.845   2.473   0.707 -0.7823  1.5916 -0.0455
 3757TIP3    H232687   2.897   2.416   0.577  0.9820  1.2079  0.8085
 3758TIP3   OH232688   0.586   4.961  11.728 -0.4704  0.7602 -0.0376
 3758TIP3    H132689   0.631   4.950  11.644 -1.6546  0.7850 -0.6919
 3758TIP3    H232690   0.648   4.929  11.793 -0.6330 -1.9529 -1.1722
 3759TIP3   OH232691   0.174   0.182  15.729  0.3264  0.2538  0.3362
 3759TIP3    H132692   0.125   0.263  15.744 -0.8943 -0.5336  0.6862
 3759TIP3    H232693   0.210   0.193  15.641 -1.8055  0.2023 -0.5850
 3760TIP3   OH232694   2.176   3.883  12.500  0.3109 -0.2638 -0.1209
 3760TIP3    H132695   2.084   3.909  12.499  0.3767 -0.0357 -1.0535
 3760TIP3    H232696   2.202   3.884  12.407  1.5051  0.6167  0.2104
 3761TIP3   OH232697   5.348   3.977  11.400  0.0270 -0.2752 -0.1531
 3761TIP3    H132698   5.273   3.984  11.341  1.0264  0.6603 -1.3423
 3761TIP3    H232699   5.316   3.924  11.473 -1.0933 -1.8634 -1.7558
 3762TIP3   OH232700   6.746   4.414  12.384  0.6395 -0.1493  0.1780
 3762TIP3    H132701   6.784   4.333  12.417  0.1680 -0.1842  0.6455
 3762TIP3    H232702   6.671   4.387  12.333  0.0088  0.0276  0.9953
 3763TIP3   OH232703   0.097   3.333   0.024  0.0183  0.3677  0.3527
 3763TIP3    H132704   0.074   3.284  -0.056 -1.0749 -0.5067  1.1893
 3763TIP3    H232705   0.014   3.343   0.070  0.3450  2.4726  0.5131
 3764TIP3   OH232706   2.107   2.579   0.470  0.8244 -0.6813 -0.0354
 3764TIP3    H132707   2.162   2.504   0.494  1.5114 -0.1202  0.1537
 3764TIP3    H232708   2.032   2.540   0.426  3.0326 -1.2465 -3.5108
 3765TIP3   OH232709   5.750   2.484   4.934  0.4848  0.5529  0.6666
 3765TIP3    H132710   5.757   2.446   4.846  1.5287  1.6571  0.2559
 3765TIP3    H232711   5.665   2.527   4.935 -0.0667 -0.5084  0.6266
 3766TIP3   OH232712   2.455   1.972   2.348 -0.2634 -0.5404 -0.0700
 3766TIP3    H132713   2.435   1.920   2.426  0.7776  0.0583  0.6088
 3766TIP3    H232714   2.523   2.033   2.377 -1.5975  1.3321 -0.7995
 3767TIP3   OH232715   5.802   6.108   5.681  0.9479  0.8663  0.1136
 3767TIP3    H132716   5.731   6.170   5.694 -0.4381 -0.5478 -0.5602
 3767TIP3    H232717   5.764   6.038   5.629  2.5117 -0.4968  0.7387
 3768TIP3   OH232718   2.228   1.247  15.997  0.3285  0.2366 -0.3873
 3768TIP3    H132719   2.305   1.266  16.050 -1.0231  0.3500  1.6250
 3768TIP3    H232720   2.180   1.330  15.995  0.0622  0.0642 -1.2730
 3769TIP3   OH232721   2.536   1.224  11.745 -0.0043 -0.0606 -0.0653
 3769TIP3    H132722   2.615   1.170  11.755  0.0125  0.0558  0.4032
 3769TIP3    H232723   2.547   1.266  11.659  0.5078  0.0603  0.0578
 3770TIP3   OH232724   4.543   3.640   4.890 -0.5890  0.5718  0.5573
 3770TIP3    H132725   4.538   3.581   4.815  3.0230  0.6581  0.1603
 3770TIP3    H232726   4.508   3.723   4.858  0.4770  0.4704 -0.9489
 3771TIP3   OH232727   2.532   2.361   3.229  0.2384  0.0194 -0.0061
 3771TIP3    H132728   2.450   2.350   3.180 -0.4047  2.9519  0.3343
 3771TIP3    H232729   2.507   2.345   3.320 -0.3012  2.3163  0.2715
 3772TIP3   OH232730   6.454   0.508  12.122 -0.2556 -0.2561 -0.6120
 3772TIP3    H132731   6.402   0.429  12.132 -0.7269  0.3068  1.5867
 3772TIP3    H232732   6.532   0.493  12.176 -0.1702  0.6484 -0.4753
 3773TIP3   OH232733   4.870   4.116  13.981  0.0158 -0.2240 -0.4165
 3773TIP3    H132734   4.789   4.068  13.997 -1.0275  2.2151  2.0570
 3773TIP3    H232735   4.870   4.132  13.886 -2.0966 -0.7584 -0.5265
 3774TIP3   OH232736   5.904   1.098  14.113  0.3442  0.0723 -0.2364
 3774TIP3    H132737   5.829   1.041  14.101 -0.1876  1.0254 -1.4467
 3774TIP3    H232738   5.976   1.055  14.067  0.2074 -0.1565 -0.2302
 3775TIP3   OH232739   5.517   3.187   3.909  0.1748  0.0004  0.1505
 3775TIP3    H132740   5.596   3.212   3.956  0.3298  0.2872 -0.2527
 3775TIP3    H232741   5.499   3.262   3.852 -0.1571 -0.2290 -0.0499
 3776TIP3   OH232742   0.918   6.732  16.149  0.1649  0.4914 -1.0795
 3776TIP3    H132743   0.969   6.801  16.109 -0.5561  1.6549 -0.0303
 3776TIP3    H232744   0.860   6.701  16.079  2.7494 -1.3547 -2.4892
 3777TIP3   OH232745   0.643   3.525   5.627 -0.4184 -0.1429  0.1484
 3777TIP3    H132746   0.640   3.588   5.555  0.9345 -0.3797 -0.1324
 3777TIP3    H232747   0.737   3.507   5.638 -0.7066 -1.0111  1.1769
 3778TIP3   OH232748   2.615   6.356   2.876  0.4120 -0.5536 -0.3926
 3778TIP3    H132749   2.532   6.398   2.854 -0.7955 -2.1632  0.9471
 3778TIP3    H232750   2.671   6.372   2.800 -0.3890  2.4180 -0.4159
 3779TIP3   OH232751   4.085   4.413   3.822  0.1988  0.3647 -0.0355
 3779TIP3    H132752   4.063   4.320   3.821  2.1488 -0.1583  1.4261
 3779TIP3    H232753   4.074   4.442   3.732 -0.7376 -1.2118 -0.4410
 3780TIP3   OH232754   1.662   2.283  11.453  0.0537  0.1556  0.3183
 3780TIP3    H132755   1.639   2.206  11.401  0.3555  0.0478  0.3427
 3780TIP3    H232756   1.585   2.340  11.448 -0.8146 -0.8772  1.6754
 3781TIP3   OH232757   6.281   3.517  14.741 -0.2852 -0.5692  0.1918
 3781TIP3    H132758   6.264   3.611  14.730  0.3949 -0.4481  0.1724
 3781TIP3    H232759   6.264   3.501  14.834  3.0064  0.2997  1.0034
 3782TIP3   OH232760   2.743   2.147   2.621 -1.1599 -0.0712 -0.5112
 3782TIP3    H132761   2.827   2.102   2.626 -1.4582 -0.5572  0.0631
 3782TIP3    H232762   2.698   2.123   2.701 -1.4921  0.9008 -0.4029
 3783TIP3   OH232763   4.640   0.795   5.640  0.4616 -0.4166 -0.3488
 3783TIP3    H132764   4.610   0.848   5.713 -1.3885 -0.6438 -0.9239
 3783TIP3    H232765   4.670   0.858   5.575  0.0804 -0.1523 -0.2634
 3784TIP3   OH232766   4.673   1.036   1.034 -0.0506 -0.1912  0.8955
 3784TIP3    H132767   4.579   1.045   1.049  0.1839  0.2835  2.1800
 3784TIP3    H232768   4.712   1.039   1.121  1.3226  1.6283  0.2612
 3785TIP3   OH232769   2.605   1.420  10.569  0.4609 -0.0108 -0.4525
 3785TIP3    H132770   2.566   1.484  10.628 -1.1202 -0.8575 -0.5725
 3785TIP3    H232771   2.669   1.373  10.624 -1.8769 -1.6356  0.9579
 3786TIP3   OH232772   4.151   0.012   0.201 -0.5374 -0.4367  0.0905
 3786TIP3    H132773   4.143  -0.083   0.203  2.6445 -0.7294  1.0447
 3786TIP3    H232774   4.222   0.029   0.139 -1.1479  1.3412 -0.1611
 3787TIP3   OH232775   1.823   0.545   1.938 -0.6021  0.1090 -0.1111
 3787TIP3    H132776   1.866   0.628   1.916 -1.2456  0.1700 -1.1747
 3787TIP3    H232777   1.894   0.482   1.946 -0.0034  1.0097  1.8509
 3788TIP3   OH232778   1.822   4.365   2.836 -0.0970 -0.3908  0.0088
 3788TIP3    H132779   1.782   4.436   2.887  1.3701 -0.1241  0.8042
 3788TIP3    H232780   1.813   4.393   2.745  0.0029  0.5669  0.2918
 3789TIP3   OH232781   6.177   4.885  15.169 -0.3155 -0.0478 -0.0144
 3789TIP3    H132782   6.149   4.837  15.247  2.3717  1.6284  2.1094
 3789TIP3    H232783   6.123   4.965  15.169 -1.5824 -0.8832 -0.9489
 3790TIP3   OH232784   6.626   1.467   4.320 -0.4294  0.0667 -0.4355
 3790TIP3    H132785   6.568   1.430   4.254 -1.9137  0.5632  0.5661
 3790TIP3    H232786   6.645   1.555   4.289 -1.5900  0.5029  0.0763
 3791TIP3   OH232787   3.894   0.424  13.549  0.2749 -0.3213  0.2077
 3791TIP3    H132788   3.984   0.455  13.537  0.5431 -1.1545 -0.0472
 3791TIP3    H232789   3.845   0.464  13.477  0.5443 -0.2224  0.0777
 3792TIP3   OH232790   0.065   4.822   3.744 -0.0306  0.0643  0.2035
 3792TIP3    H132791   0.092   4.772   3.666  0.3260  0.6702 -0.0643
 3792TIP3    H232792   0.147   4.857   3.779 -0.4253  1.7330 -0.4905
 3793TIP3   OH232793   4.000   6.108  11.823 -0.5026 -0.1018  0.2509
 3793TIP3    H132794   4.063   6.153  11.766 -0.7597  0.2486  0.2416
 3793TIP3    H232795   3.990   6.021  11.784 -1.2270  0.3814 -0.6562
 3794TIP3   OH232796   0.750   3.647  13.861  0.4510  0.3562  0.0418
 3794TIP3    H132797   0.716   3.687  13.781  2.7113 -0.9931 -1.6324
 3794TIP3    H232798   0.748   3.553  13.844  2.0263  0.1064  1.0876
 3795TIP3   OH232799   3.012   5.185   1.472  0.0883  0.0125 -0.0052
 3795TIP3    H132800   3.077   5.246   1.438 -0.4953  0.1472 -0.9013
 3795TIP3    H232801   3.041   5.099   1.441  0.4652 -0.0635  0.5631
 3796TIP3   OH232802   2.397   4.895   6.151 -0.5045  0.0997  0.1267
 3796TIP3    H132803   2.435   4.969   6.200 -1.4778 -0.1683  1.3059
 3796TIP3    H232804   2.356   4.841   6.218  0.4270 -1.6730 -0.7033
 3797TIP3   OH232805   2.714   1.728   3.426  0.0779 -0.2717 -0.2007
 3797TIP3    H132806   2.665   1.803   3.392  0.4189 -0.0395 -0.1927
 3797TIP3    H232807   2.681   1.653   3.376 -0.4509 -0.1559 -0.0239
 3798TIP3   OH232808   0.042   5.567   4.494 -0.0459 -0.1481  0.4453
 3798TIP3    H132809   0.014   5.626   4.564  0.8004 -0.0594  0.7258
 3798TIP3    H232810  -0.032   5.563   4.434 -0.4897  0.3960  0.9493
 3799TIP3   OH232811   3.672   3.252   0.272  0.3082  0.5497  0.0673
 3799TIP3    H132812   3.731   3.191   0.317  0.6233  0.8821  0.0987
 3799TIP3    H232813   3.644   3.313   0.341 -0.7293 -0.1100  0.2412
 3800TIP3   OH232814   2.636   3.540  13.042  0.7234  0.4131  0.5000
 3800TIP3    H132815   2.554   3.538  13.092  0.4104  0.8723  0.0100
 3800TIP3    H232816   2.612   3.512  12.954  0.9979  1.0756  0.2150
 3801TIP3   OH232817   4.117   3.134   3.280  0.3056  0.3802  0.3698
 3801TIP3    H132818   4.049   3.082   3.237 -1.2161 -0.3706  3.5475
 3801TIP3    H232819   4.090   3.225   3.266  1.0341  0.2383 -2.1133
 3802TIP3   OH232820   0.243   1.696  11.637 -0.0794 -0.2084 -0.5596
 3802TIP3    H132821   0.326   1.663  11.672 -0.4956 -1.2120 -0.4922
 3802TIP3    H232822   0.238   1.658  11.549 -0.0023  0.6519 -0.9336
 3803TIP3   OH232823   3.343   6.667   2.264  0.2552  0.0228 -0.2769
 3803TIP3    H132824   3.313   6.685   2.175 -0.8965 -0.4401  0.0080
 3803TIP3    H232825   3.363   6.753   2.300 -1.9068  0.4790 -0.0791
 3804TIP3   OH232826   6.594   4.135  12.142  0.3068  0.0739 -0.4648
 3804TIP3    H132827   6.582   4.224  12.176 -1.3088 -0.3062  0.0245
 3804TIP3    H232828   6.556   4.137  12.054 -3.1525 -1.0122  0.9011
 3805TIP3   OH232829   6.642   6.237  16.207  0.8368  0.1887  0.2769
 3805TIP3    H132830   6.653   6.181  16.284 -1.7551 -0.8938 -0.0777
 3805TIP3    H232831   6.604   6.318  16.241  0.0098 -0.1615  0.2138
 3806TIP3   OH232832   5.517   0.062  10.513 -0.0777 -0.6109  0.4609
 3806TIP3    H132833   5.433   0.034  10.549 -0.1195 -0.3712  0.5515
 3806TIP3    H232834   5.573   0.074  10.590 -0.1865 -0.0386  0.4480
 3807TIP3   OH232835   5.628   6.779  12.194  0.2944 -0.1164  0.2268
 3807TIP3    H132836   5.689   6.737  12.255 -0.0832 -0.6805  0.2213
 3807TIP3    H232837   5.541   6.752  12.225  0.1465 -1.8383 -1.5685
 3808TIP3   OH232838   2.609   6.531  16.549  0.1430  0.1800  0.1981
 3808TIP3    H132839   2.602   6.551  16.642 -0.3018 -0.8786  0.3907
 3808TIP3    H232840   2.589   6.614  16.505  2.1907  1.1761  1.0719
 3809TIP3   OH232841   6.195   1.942  17.180  0.1000 -0.3216  0.4453
 3809TIP3    H132842   6.116   1.929  17.128  0.1760  0.2135  0.1959
 3809TIP3    H232843   6.242   2.013  17.136 -0.3492  0.8547  1.8489
 3810TIP3   OH232844   5.901   0.453   4.081 -0.1082 -0.4148  0.5154
 3810TIP3    H132845   5.977   0.510   4.072 -0.3155 -0.4069 -1.1874
 3810TIP3    H232846   5.830   0.512   4.106 -0.7565  0.3862 -3.0870
 3811TIP3   OH232847   4.395   6.590  16.306  0.7259  0.2363  0.6211
 3811TIP3    H132848   4.489   6.596  16.318  1.0382 -0.1944 -1.3492
 3811TIP3    H232849   4.381   6.611  16.214 -0.9748 -0.8290  0.6028
 3812TIP3   OH232850   3.332   2.126   6.035  0.1397  0.2747  0.6181
 3812TIP3    H132851   3.264   2.099   6.097  0.1910 -2.5758 -0.4643
 3812TIP3    H232852   3.378   2.044   6.014 -0.1841  1.0624 -3.5145
 3813TIP3   OH232853   3.380   1.601   3.305 -0.2598  0.3050 -0.5383
 3813TIP3    H132854   3.360   1.511   3.281  0.2958  0.1187 -0.3065
 3813TIP3    H232855   3.393   1.598   3.400 -0.0230  0.5865 -0.5613
 3814TIP3   OH232856   6.035   4.373   6.147 -0.2855  0.3949 -0.1838
 3814TIP3    H132857   5.977   4.307   6.185  0.0089  0.7065  0.8245
 3814TIP3    H232858   6.104   4.384   6.212  0.2384  0.9268 -0.8262
 3815TIP3   OH232859   2.636   1.203  14.172  0.7088 -0.0116  0.2097
 3815TIP3    H132860   2.597   1.152  14.101 -2.6858 -1.0546  2.6811
 3815TIP3    H232861   2.627   1.294  14.144 -0.3803 -0.4187 -0.8123
 3816TIP3   OH232862   3.688   2.358  13.661  0.0716 -0.5075 -0.1142
 3816TIP3    H132863   3.706   2.408  13.741  0.7160  2.1528 -1.8453
 3816TIP3    H232864   3.638   2.283  13.691 -1.6246  1.5715  2.5289
 3817TIP3   OH232865   2.368   2.311   3.455 -0.4261 -1.0331 -0.4594
 3817TIP3    H132866   2.394   2.269   3.538  1.6538  0.1726 -0.4786
 3817TIP3    H232867   2.318   2.388   3.482  1.2612  0.0118 -0.2904
 3818TIP3   OH232868   0.546   0.869  15.050 -0.4845 -0.2067  0.4423
 3818TIP3    H132869   0.457   0.861  15.014 -0.9088 -0.5823  1.5580
 3818TIP3    H232870   0.588   0.786  15.027  0.3248  0.8467 -2.0484
 3819TIP3   OH232871   3.455   1.569  12.471 -0.9831 -0.0595 -0.0613
 3819TIP3    H132872   3.409   1.600  12.549  0.1638  0.0084  0.5996
 3819TIP3    H232873   3.438   1.636  12.405 -1.0659  0.4281  0.4513
 3820TIP3   OH232874   4.322   5.293  16.809  0.1719  0.3013 -0.3235
 3820TIP3    H132875   4.232   5.323  16.795  0.1518  1.0193  1.1764
 3820TIP3    H232876   4.375   5.351  16.755 -0.1925  0.5102 -0.4583
 3821TIP3   OH232877   4.984   5.674   3.452 -0.2007 -0.3873 -0.3003
 3821TIP3    H132878   4.900   5.630   3.468 -0.5638  0.1277 -0.7572
 3821TIP3    H232879   4.969   5.765   3.477  0.3073 -0.3545 -0.1175
 3822TIP3   OH232880   3.532   6.018  13.228  0.1214  0.8089  0.0317
 3822TIP3    H132881   3.535   6.062  13.143 -1.1199 -0.3118 -0.6078
 3822TIP3    H232882   3.449   6.047  13.267  0.3377  0.7433  0.5404
 3823TIP3   OH232883   2.283   2.484  16.040  0.2692 -0.2854 -0.4442
 3823TIP3    H132884   2.352   2.535  15.996  0.3274  0.9074  0.9896
 3823TIP3    H232885   2.318   2.396  16.045  0.6968 -0.2098 -1.8463
 3824TIP3   OH232886   5.094   0.003   4.468  0.3835 -0.4807 -0.2551
 3824TIP3    H132887   5.147  -0.053   4.524  1.4415 -0.2387 -1.0135
 3824TIP3    H232888   5.108  -0.030   4.379  0.1902  0.3208 -0.5900
 3825TIP3   OH232889   5.162   6.219  16.542  0.4118  0.2763  0.7066
 3825TIP3    H132890   5.146   6.150  16.607 -2.3342  1.0304  0.9015
 3825TIP3    H232891   5.218   6.282  16.588  0.3307 -0.2901  1.6010
 3826TIP3   OH232892   1.593   0.393  16.736 -0.6453 -0.2946 -0.2219
 3826TIP3    H132893   1.540   0.395  16.816 -1.6521  0.3757 -0.9025
 3826TIP3    H232894   1.649   0.316  16.747 -1.2061 -0.5556  0.8588
 3827TIP3   OH232895   4.744   2.479   6.056 -0.2798  0.1795 -0.1036
 3827TIP3    H132896   4.744   2.562   6.007  0.1848  0.5964  0.5871
 3827TIP3    H232897   4.736   2.507   6.148 -0.7243 -0.5734  0.0873
 3828TIP3   OH232898   4.192   1.812   5.519 -0.2317 -0.3171 -0.1414
 3828TIP3    H132899   4.196   1.905   5.495  0.4637 -0.4468 -0.5260
 3828TIP3    H232900   4.170   1.813   5.612  0.0105  0.2374 -0.0861
 3829TIP3   OH232901   5.401   5.583   0.582  0.5806 -0.2604 -0.2313
 3829TIP3    H132902   5.484   5.582   0.630  0.4913 -0.4321 -0.0830
 3829TIP3    H232903   5.363   5.669   0.602 -0.7556 -1.3821  2.2203
 3830TIP3   OH232904   3.414   3.801   6.024  0.0428  0.0950  0.0148
 3830TIP3    H132905   3.335   3.806   6.077 -0.1257  0.3328 -0.2561
 3830TIP3    H232906   3.480   3.763   6.082 -0.2037  0.1301  0.3167
 3831TIP3   OH232907   4.829   1.621   5.826  0.0773  0.3557  0.3131
 3831TIP3    H132908   4.793   1.569   5.755  0.1598 -1.8589  1.8156
 3831TIP3    H232909   4.762   1.618   5.895  0.7066  1.0048  0.9652
 3832TIP3   OH232910   0.514   0.683  16.846  0.1314  0.4011 -0.3259
 3832TIP3    H132911   0.491   0.753  16.785  1.3350  1.3888  0.3412
 3832TIP3    H232912   0.574   0.626  16.798 -0.2180  0.2604 -0.5995
 3833TIP3   OH232913   1.238   1.316   0.225 -0.2053 -0.3686 -0.5139
 3833TIP3    H132914   1.314   1.281   0.179 -0.2181 -2.0746  0.7511
 3833TIP3    H232915   1.270   1.397   0.265  0.3234  0.1036 -1.8498
 3834TIP3   OH232916   5.158   2.259   4.721  0.3425 -0.2393  0.6373
 3834TIP3    H132917   5.193   2.320   4.656  1.8190  0.3017  1.9231
 3834TIP3    H232918   5.109   2.194   4.669 -1.8042  2.3453 -0.7059
 3835TIP3   OH232919   0.741   3.690  16.702  0.0424 -0.0764  0.0779
 3835TIP3    H132920   0.654   3.656  16.680  1.4051 -2.6337 -1.5949
 3835TIP3    H232921   0.795   3.612  16.714  2.2331  1.4798  0.7194
 3836TIP3   OH232922   4.818   4.488   5.759  0.0727  0.4325  0.2748
 3836TIP3    H132923   4.756   4.483   5.832 -0.2562 -0.9198 -0.0701
 3836TIP3    H232924   4.855   4.400   5.754 -1.0687  0.0394 -2.1601
 3837TIP3   OH232925   3.976   5.368  12.727 -0.0364  0.1927 -0.1121
 3837TIP3    H132926   3.934   5.291  12.766  0.9852 -0.9792 -1.2633
 3837TIP3    H232927   3.918   5.393  12.655 -0.5875  0.7700  0.5254
 3838TIP3   OH232928   4.448   6.190  12.539 -0.0855  0.4154  0.2765
 3838TIP3    H132929   4.394   6.115  12.564  2.3023 -0.5933  2.6397
 3838TIP3    H232930   4.418   6.262  12.595  1.6639 -0.4343  2.3859
 3839TIP3   OH232931   0.411   5.297  12.634  0.3260 -0.9039  0.2964
 3839TIP3    H132932   0.346   5.292  12.564  2.5307 -0.0207 -1.9086
 3839TIP3    H232933   0.458   5.213  12.629  0.2206 -1.0075  1.0022
 3840TIP3   OH232934   0.361   2.956  15.135  0.0270 -0.3674  0.1814
 3840TIP3    H132935   0.301   2.902  15.083 -0.0313 -0.3600  0.2407
 3840TIP3    H232936   0.306   2.989  15.206  0.0139 -0.0576  0.0256
 3841TIP3   OH232937   6.273   1.062  13.093  0.1081 -0.1270  0.3245
 3841TIP3    H132938   6.331   1.036  13.164  0.0580  0.0851  0.4431
 3841TIP3    H232939   6.188   1.074  13.134 -0.0223 -0.4363  0.1515
 3842TIP3   OH232940   5.378   4.670  15.536 -0.2020  0.0991 -0.2495
 3842TIP3    H132941   5.295   4.677  15.488 -1.0046  0.5026  1.1683
 3842TIP3    H232942   5.386   4.577  15.557 -1.5262  0.3926  1.7036
 3843TIP3   OH232943   2.410   4.707   4.849  0.1790  0.0860 -0.1201
 3843TIP3    H132944   2.322   4.707   4.885 -0.4438  1.3842 -1.5476
 3843TIP3    H232945   2.432   4.800   4.841  1.2466 -0.2147 -0.7720
 3844TIP3   OH232946   0.587   6.235  12.455  0.3281  0.7349 -0.2158
 3844TIP3    H132947   0.643   6.174  12.503 -0.5228  0.5171  0.5192
 3844TIP3    H232948   0.645   6.307  12.431  0.9227  0.5090  0.5276
 3845TIP3   OH232949   6.618   6.265   3.092  0.2864 -0.0135 -0.0493
 3845TIP3    H132950   6.706   6.242   3.123  0.2174 -0.1413  0.0467
 3845TIP3    H232951   6.634   6.326   3.020  0.5260 -1.7557 -1.5123
 3846TIP3   OH232952   5.223   4.339   2.937 -0.4063 -0.0501 -0.3968
 3846TIP3    H132953   5.236   4.287   3.017 -0.6709 -1.7513 -1.4394
 3846TIP3    H232954   5.128   4.341   2.925 -0.5206  2.1793  0.5766
 3847TIP3   OH232955   3.942   6.012   6.134  0.0321 -0.1585 -0.3867
 3847TIP3    H132956   3.947   5.918   6.121 -0.7567 -0.1427 -0.8256
 3847TIP3    H232957   3.859   6.038   6.095 -0.7859  0.4047  1.6242
 3848TIP3   OH232958   0.092   3.349   4.404  0.0861  0.6530  0.2226
 3848TIP3    H132959   0.132   3.357   4.491 -1.7030 -1.5177  1.3161
 3848TIP3    H232960   0.043   3.430   4.393 -0.4123  0.5829  1.6893
 3849TIP3   OH232961   5.996   5.048   1.475 -0.3322 -0.3738 -0.6369
 3849TIP3    H132962   5.928   5.115   1.483  0.2605  0.0259  1.6071
 3849TIP3    H232963   5.950   4.968   1.451 -1.6515 -0.1463  0.9971
 3850TIP3   OH232964   2.572   0.969  10.645 -0.0999 -0.0716 -0.0480
 3850TIP3    H132965   2.615   1.041  10.690  1.2930  0.4237 -2.0658
 3850TIP3    H232966   2.584   0.988  10.552 -2.1763 -1.4592 -0.6442
 3851TIP3   OH232967   5.061   2.922   4.142 -0.4700 -0.1708 -0.0308
 3851TIP3    H132968   5.116   2.974   4.084  0.3682 -0.3330  0.6130
 3851TIP3    H232969   5.103   2.927   4.227 -0.3619 -1.8926  0.0521
 3852TIP3   OH232970   1.005   3.005  13.421 -0.2345 -0.4441 -0.2611
 3852TIP3    H132971   1.064   3.042  13.487 -0.2523 -0.3579 -0.2951
 3852TIP3    H232972   0.960   2.934  13.468  1.1880 -1.6984 -0.7212
 3853TIP3   OH232973   3.715   4.652   1.363 -0.0967 -0.9379  0.3786
 3853TIP3    H132974   3.627   4.616   1.367 -0.8077  0.4710 -1.6494
 3853TIP3    H232975   3.715   4.708   1.285  2.4290 -0.4949  0.6364
 3854TIP3   OH232976   5.387   4.883  10.915  0.5645 -0.1044  0.0219
 3854TIP3    H132977   5.447   4.935  10.968  0.2238 -0.7545  1.0639
 3854TIP3    H232978   5.436   4.804  10.893  1.1122  0.6644 -1.6267
 3855TIP3   OH232979   2.125   6.018   0.422  0.7875 -0.0596  0.2032
 3855TIP3    H132980   2.114   5.949   0.357 -1.6830  0.1013  0.4122
 3855TIP3    H232981   2.061   6.085   0.398  1.5197  1.1114  1.3873
 3856TIP3   OH232982   5.164   0.568   1.435 -0.0980 -0.4614 -0.1439
 3856TIP3    H132983   5.131   0.649   1.395 -0.3240 -0.4236  0.1213
 3856TIP3    H232984   5.173   0.589   1.528 -1.7258 -1.2460  0.2102
 3857TIP3   OH232985   5.347   3.726   1.824 -0.2341  0.1075 -0.6770
 3857TIP3    H132986   5.412   3.655   1.819  1.0280  1.2584 -0.9550
 3857TIP3    H232987   5.301   3.711   1.906  0.9305 -0.2769 -0.0824
 3858TIP3   OH232988   4.045   3.540   4.441  0.0991 -0.8615  0.6245
 3858TIP3    H132989   4.077   3.540   4.531  1.5168  0.7892  0.1273
 3858TIP3    H232990   4.052   3.631   4.412  0.2899 -1.4795 -1.3812
 3859TIP3   OH232991   2.507   4.397  11.898 -0.2351  0.1421  0.0042
 3859TIP3    H132992   2.586   4.362  11.941 -0.2564  1.9392  1.5473
 3859TIP3    H232993   2.531   4.402  11.806  1.0978 -0.3329  0.3115
 3860TIP3   OH232994   1.147   2.259   1.711 -0.1139 -0.3132 -0.1204
 3860TIP3    H132995   1.166   2.219   1.626  0.1828  0.5936 -0.4826
 3860TIP3    H232996   1.090   2.195   1.755  1.9563 -2.0486  0.1040
 3861TIP3   OH232997   4.003   3.350   1.837 -0.8995 -0.3216 -0.2430
 3861TIP3    H132998   4.048   3.271   1.867 -2.0218 -0.5749  0.8438
 3861TIP3    H232999   4.062   3.422   1.858 -1.9679 -0.4234  3.3585
 3862TIP3   OH233000   5.375   4.495   3.939 -0.2999  0.0340 -0.2907
 3862TIP3    H133001   5.321   4.417   3.929  1.1696 -0.9187 -1.0007
 3862TIP3    H233002   5.390   4.502   4.033 -1.5672  0.2521 -0.1009
 3863TIP3   OH233003   0.197   6.502   3.207  0.4313 -0.5531 -0.5089
 3863TIP3    H133004   0.146   6.580   3.228  3.4956  1.6202 -0.7766
 3863TIP3    H233005   0.187   6.493   3.112  1.8556  0.8630 -0.8107
 3864TIP3   OH233006   1.740   0.312   5.939  0.7548 -0.0162  0.3643
 3864TIP3    H133007   1.730   0.405   5.917  0.8668  0.1218  0.8779
 3864TIP3    H233008   1.745   0.267   5.855 -1.7507  0.1826  0.0682
 3865TIP3   OH233009   0.721   5.620   3.923  0.5141  0.1158 -0.5653
 3865TIP3    H133010   0.681   5.599   4.007 -0.2203 -0.7922 -1.1298
 3865TIP3    H233011   0.802   5.666   3.945  0.2609 -0.0120  0.6278
 3866TIP3   OH233012   3.032   2.288   3.956 -0.4006  0.2912 -0.2033
 3866TIP3    H133013   2.939   2.284   3.934 -0.2008  0.6192 -1.1399
 3866TIP3    H233014   3.074   2.326   3.879  0.3775  1.1135  0.5934
 3867TIP3   OH233015   3.419   6.756   4.226  0.0193 -0.4272 -0.7270
 3867TIP3    H133016   3.401   6.727   4.137 -0.5604 -2.3508 -0.0113
 3867TIP3    H233017   3.488   6.698   4.257 -1.5424 -1.4579  0.9346
 3868TIP3   OH233018   0.086   3.737  16.158  0.1457  0.2400 -0.1112
 3868TIP3    H133019   0.077   3.803  16.089  0.2862  2.4331  1.9077
 3868TIP3    H233020   0.174   3.701  16.146  0.9392  2.0606  0.1788
 3869TIP3   OH233021   3.535   6.474   0.030  0.2199  0.3613  0.2255
 3869TIP3    H133022   3.532   6.404   0.095 -0.0265 -0.4843 -0.6729
 3869TIP3    H233023   3.605   6.447  -0.031  0.6146  1.2608  0.2777
 3870TIP3   OH233024   6.224   2.731  15.027 -0.3956  0.0050 -0.1081
 3870TIP3    H133025   6.143   2.781  15.041 -1.4096 -1.2958 -1.1570
 3870TIP3    H233026   6.262   2.770  14.948 -1.0044 -0.6533 -0.7261
 3871TIP3   OH233027   2.009   0.504  10.300  0.2973 -0.3477 -0.0172
 3871TIP3    H133028   2.000   0.595  10.328 -0.0287 -0.6190  0.7598
 3871TIP3    H233029   1.991   0.452  10.378  0.1294 -1.0909 -0.5384
 3872TIP3   OH233030   0.162   1.446   5.517  0.5359  0.1426 -0.1648
 3872TIP3    H133031   0.106   1.427   5.442 -0.1183  0.2925  0.2835
 3872TIP3    H233032   0.124   1.523   5.558  1.3648  0.5525 -0.1421
 3873TIP3   OH233033   2.783   3.840  15.903 -0.0603  0.3009 -0.3577
 3873TIP3    H133034   2.705   3.791  15.930 -0.2778  0.7866 -0.0971
 3873TIP3    H233035   2.796   3.816  15.812 -0.7882  0.5619 -0.5349
 3874TIP3   OH233036   4.924   1.676   0.064  0.0947 -0.0042 -0.0443
 3874TIP3    H133037   5.011   1.647   0.091 -0.1844 -0.3494  0.4926
 3874TIP3    H233038   4.864   1.624   0.117 -0.4282  0.6399 -0.0022
 3875TIP3   OH233039   5.728   5.073   0.881  0.4927 -0.2828 -0.4228
 3875TIP3    H133040   5.813   5.029   0.890  0.5412  0.2175  2.0383
 3875TIP3    H233041   5.750   5.162   0.854  0.8368  0.0078  0.7438
 3876TIP3   OH233042   3.224   2.732  14.654 -0.0928  0.4338 -0.4688
 3876TIP3    H133043   3.238   2.691  14.739  0.3172  1.4550 -0.0437
 3876TIP3    H233044   3.293   2.696  14.599  0.1066  0.3545 -0.1686
 3877TIP3   OH233045   1.547   4.429  17.037  0.3467 -0.3231 -0.4419
 3877TIP3    H133046   1.569   4.521  17.050  0.0381 -0.0628 -1.6539
 3877TIP3    H233047   1.598   4.402  16.961 -0.5410 -0.7889 -0.8905
 3878TIP3   OH233048   6.450   1.145  14.044 -1.1248 -0.3074 -0.2807
 3878TIP3    H133049   6.515   1.094  13.996 -2.4753  0.2390 -2.7713
 3878TIP3    H233050   6.444   1.103  14.130  3.3232  0.3322  0.4483
 3879TIP3   OH233051   6.004   1.075  12.673  0.0966 -0.1549  0.5222
 3879TIP3    H133052   5.934   1.140  12.668  0.8476  0.5643 -1.1126
 3879TIP3    H233053   5.993   1.023  12.593 -0.4567 -2.0252  1.7674
 3880TIP3   OH233054   2.293   2.408  13.148  0.1040 -0.3833 -0.1599
 3880TIP3    H133055   2.345   2.394  13.227 -0.1611  2.2907  0.5245
 3880TIP3    H233056   2.203   2.390  13.174  0.0763  0.0021  0.0074
 3881TIP3   OH233057   2.410   0.633  16.334  0.6033 -0.1524  0.1402
 3881TIP3    H133058   2.335   0.691  16.319  0.2478 -0.4166  0.8510
 3881TIP3    H233059   2.482   0.674  16.287  0.0765  0.2596 -0.3094
 3882TIP3   OH233060   3.751   5.925  15.629  0.6977  0.4639  0.2180
 3882TIP3    H133061   3.778   5.865  15.559  0.0501 -1.3124  1.4450
 3882TIP3    H233062   3.660   5.946  15.609  0.4760 -0.1386  0.5815
 3883TIP3   OH233063   1.447   0.894   3.121 -0.1194  0.1321 -0.4052
 3883TIP3    H133064   1.453   0.803   3.151 -1.0003  0.9296  2.3384
 3883TIP3    H233065   1.355   0.917   3.131  0.1480  1.4149 -0.8186
 3884TIP3   OH233066   2.364   0.971   4.572 -0.0182  0.3197  0.2290
 3884TIP3    H133067   2.396   1.030   4.641  1.1550 -1.0179  0.8709
 3884TIP3    H233068   2.269   0.981   4.574  0.1219  1.6785  0.7816
 3885TIP3   OH233069   4.444   1.603   3.834 -0.1823  0.2448 -0.2876
 3885TIP3    H133070   4.469   1.572   3.747 -1.6883 -1.4407 -0.1731
 3885TIP3    H233071   4.449   1.524   3.889 -2.3640  0.5601  0.4267
 3886TIP3   OH233072   4.324   2.096   5.463  0.2158 -0.7105 -0.0542
 3886TIP3    H133073   4.325   2.109   5.558 -1.0679  1.2784 -0.2716
 3886TIP3    H233074   4.401   2.042   5.445  0.7281 -0.7330  2.0643
 3887TIP3   OH233075   1.048   5.929  14.505 -0.6702  0.3629 -0.0356
 3887TIP3    H133076   1.026   6.022  14.508 -2.0073  0.0627 -0.1192
 3887TIP3    H233077   0.997   5.894  14.432 -1.5755 -0.7665  1.1063
 3888TIP3   OH233078   5.381   5.134  11.978  0.1198  0.1033 -0.3564
 3888TIP3    H133079   5.337   5.211  11.941  0.0813 -0.3918 -1.3752
 3888TIP3    H233080   5.318   5.062  11.964 -0.6941  0.2356  2.3918
 3889TIP3   OH233081   2.009   5.735  15.805 -0.2873  0.0480 -0.1736
 3889TIP3    H133082   2.041   5.663  15.859 -1.2950 -0.4489 -0.2209
 3889TIP3    H233083   1.949   5.783  15.862  0.9456  1.3021  0.0969
 3890TIP3   OH233084   1.979   6.783  11.886 -0.5496  0.3127 -0.6062
 3890TIP3    H133085   1.973   6.858  11.826 -0.7428 -0.3877 -1.4794
 3890TIP3    H233086   1.953   6.818  11.971 -2.4740  0.8144 -1.3754
 3891TIP3   OH233087   1.601   0.004  13.603 -1.1399  0.2969 -0.2332
 3891TIP3    H133088   1.543  -0.053  13.653 -3.0321  1.6430 -0.8474
 3891TIP3    H233089   1.549   0.083  13.587  0.3906  0.9743 -1.9880
 3892TIP3   OH233090   5.160   3.404   4.524  0.4719  0.0791  0.4759
 3892TIP3    H133091   5.206   3.468   4.470  1.1593  0.1507  1.1496
 3892TIP3    H233092   5.142   3.331   4.465 -1.4768  1.4239 -0.6596
 3893TIP3   OH233093   5.358   0.797  17.068  0.2684  0.3107  0.3890
 3893TIP3    H133094   5.360   0.703  17.089  0.4315  0.3701  0.6367
 3893TIP3    H233095   5.303   0.802  16.989  3.7627 -0.4940 -2.1942
 3894TIP3   OH233096   1.319   0.350   5.306  0.1978 -0.4450 -0.3351
 3894TIP3    H133097   1.299   0.279   5.245  0.6608 -1.8503  1.1173
 3894TIP3    H233098   1.291   0.317   5.391 -2.1743  2.2137 -0.0217
 3895TIP3   OH233099   5.268   3.251   4.210 -0.1769  0.7640 -0.1099
 3895TIP3    H133100   5.245   3.200   4.132  0.7794 -1.1571  0.8103
 3895TIP3    H233101   5.193   3.238   4.270 -0.5757  1.6249 -0.4198
 3896TIP3   OH233102   6.425   3.415   5.141 -0.1999  0.0379  0.5237
 3896TIP3    H133103   6.378   3.367   5.074 -2.3021  0.7731  1.4221
 3896TIP3    H233104   6.400   3.373   5.224  2.5857 -1.0537  0.8774
 3897TIP3   OH233105   1.480   6.631  13.291 -0.4364  0.1743  0.1071
 3897TIP3    H133106   1.418   6.703  13.291  0.9873  1.4561  2.4501
 3897TIP3    H233107   1.454   6.576  13.365  0.3558 -0.0454  0.2295
 3898TIP3   OH233108   4.076   6.180   5.285  0.1599  0.5026 -0.0211
 3898TIP3    H133109   4.080   6.251   5.349  1.9800 -1.5508  2.2426
 3898TIP3    H233110   4.137   6.206   5.216  0.5347  1.2904  0.5992
 3899TIP3   OH233111   0.705   2.057   4.174 -0.3605  0.2486 -0.6020
 3899TIP3    H133112   0.677   1.972   4.208  0.2187  1.0623  2.0547
 3899TIP3    H233113   0.759   2.036   4.098 -1.6158 -1.6609 -0.9979
 3900TIP3   OH233114   3.522   6.649   0.633 -0.1101 -0.4151 -0.4963
 3900TIP3    H133115   3.508   6.739   0.606 -0.5356 -0.5530 -0.7335
 3900TIP3    H233116   3.563   6.656   0.719  0.3188  0.0089 -0.7358
 3901TIP3   OH233117   0.289   1.302   0.793 -0.4057 -0.0296  0.1661
 3901TIP3    H133118   0.272   1.320   0.885 -0.9039 -1.0429  0.2754
 3901TIP3    H233119   0.359   1.237   0.793  1.3134  1.7866 -0.2226
 3902TIP3   OH233120   4.348   2.017   5.735  0.1354 -0.3251  0.4798
 3902TIP3    H133121   4.403   1.940   5.721  1.5198  0.7322 -0.1495
 3902TIP3    H233122   4.367   2.044   5.825 -3.2453 -2.9033  2.0273
 3903TIP3   OH233123   6.500   5.275  13.967  0.7042 -0.2498  0.2555
 3903TIP3    H133124   6.584   5.234  13.984  0.0511 -2.8691 -2.4173
 3903TIP3    H233125   6.507   5.308  13.878 -0.8409  0.1729  0.2716
 3904TIP3   OH233126   6.024   6.734  14.831 -0.5305  0.0127 -0.2494
 3904TIP3    H133127   5.944   6.774  14.795  1.1793  0.3950 -3.7542
 3904TIP3    H233128   6.084   6.808  14.842 -0.3367 -0.3886  1.7068
 3905TIP3   OH233129   4.103   4.077  16.656 -0.1405 -0.2554 -0.1591
 3905TIP3    H133130   4.085   4.166  16.685  2.1502 -0.0665  0.7672
 3905TIP3    H233131   4.074   4.022  16.728  0.5543 -0.1136  0.2308
 3906TIP3   OH233132   6.705   5.005  15.790 -0.0093 -0.0978 -0.1013
 3906TIP3    H133133   6.685   5.096  15.771 -0.8299 -0.3956 -0.6798
 3906TIP3    H233134   6.787   5.008  15.839 -1.0042  1.0936  1.5609
 3907TIP3   OH233135   4.225   1.048  12.995 -0.4681 -0.2210 -0.2816
 3907TIP3    H133136   4.181   1.022  13.076  0.2202  0.2383  0.2494
 3907TIP3    H233137   4.302   0.991  12.991 -0.9052 -0.7549 -0.9993
 3908TIP3   OH233138   3.045   2.980   2.357 -0.4708 -0.1401  0.5898
 3908TIP3    H133139   3.108   3.032   2.309  0.0634 -0.7645  0.6080
 3908TIP3    H233140   3.076   2.980   2.447 -2.3606  2.4073  1.3189
 3909TIP3   OH233141   6.036   6.157  12.414  0.2258 -0.3437  0.0614
 3909TIP3    H133142   6.016   6.248  12.437  0.5519 -0.6585  1.6517
 3909TIP3    H233143   6.102   6.164  12.345  0.4585  0.6306  0.3679
 3910TIP3   OH233144   3.173   0.570   5.058  0.2142  0.0030 -0.6604
 3910TIP3    H133145   3.192   0.482   5.026 -0.7717 -0.5297  0.1890
 3910TIP3    H233146   3.113   0.607   4.993  0.3707 -0.0810 -0.8511
 3911TIP3   OH233147   4.987   5.033   4.219  0.6914 -0.8697  0.3001
 3911TIP3    H133148   4.904   5.057   4.179  0.7952  0.5237  0.9129
 3911TIP3    H233149   4.963   4.979   4.294  0.3187 -0.2361  0.6412
 3912TIP3   OH233150   2.704   4.678  11.364  0.0706 -0.7768 -0.3362
 3912TIP3    H133151   2.678   4.586  11.372  2.5850 -1.3666  1.9132
 3912TIP3    H233152   2.797   4.679  11.387  0.1284  2.3198 -0.4446
 3913TIP3   OH233153   1.892   5.472  16.828 -0.3527 -0.5830  0.3778
 3913TIP3    H133154   1.947   5.548  16.812  0.3178 -1.2198 -0.4254
 3913TIP3    H233155   1.908   5.449  16.920  0.3336 -0.4615  0.2898
 3914TIP3   OH233156   6.737   1.602  12.121 -0.3921 -0.5331  0.4046
 3914TIP3    H133157   6.673   1.543  12.080 -0.1527  1.1845 -2.6201
 3914TIP3    H233158   6.719   1.687  12.081  1.9123  0.5791  1.6836
 3915TIP3   OH233159   1.482   3.097  12.843 -0.1373  0.2183 -0.0337
 3915TIP3    H133160   1.480   3.075  12.750 -0.4904 -0.5985  0.1613
 3915TIP3    H233161   1.555   3.045  12.878 -0.7125 -0.3387  0.3514
 3916TIP3   OH233162   3.379   3.965  17.014  0.3712  0.3967  0.3697
 3916TIP3    H133163   3.314   3.962  16.945  0.3977  1.3246  0.2949
 3916TIP3    H233164   3.331   3.991  17.093  0.4803  0.1423  0.5215
 3917TIP3   OH233165   5.855   6.706   3.710  0.2987  0.1065  0.5259
 3917TIP3    H133166   5.946   6.706   3.738  0.0631 -1.8384  1.3963
 3917TIP3    H233167   5.858   6.685   3.617  0.7681  0.7032  0.4065
 3918TIP3   OH233168   2.595   2.912  14.936  0.2999  0.3339 -0.1977
 3918TIP3    H133169   2.653   2.964  14.881  1.2215 -1.1402 -0.6552
 3918TIP3    H233170   2.537   2.976  14.977  1.6266  1.7397 -0.4646
 3919TIP3   OH233171   6.188   5.008  10.705 -0.6386  0.1414 -0.0440
 3919TIP3    H133172   6.103   4.999  10.746 -0.6842 -0.5476 -0.2779
 3919TIP3    H233173   6.208   5.101  10.710 -0.8515  0.1298  1.1157
 3920TIP3   OH233174   3.647   1.303   5.011  0.0148 -1.0352 -0.3902
 3920TIP3    H133175   3.559   1.323   4.980  0.1171  0.5507  0.3123
 3920TIP3    H233176   3.633   1.257   5.094 -0.1700 -1.3219 -0.5808
 3921TIP3   OH233177   3.970   3.105  10.884  0.6054  0.3396 -0.3244
 3921TIP3    H133178   3.883   3.128  10.917  1.0753  1.6198  0.0033
 3921TIP3    H233179   3.951   3.048  10.808 -0.5064  0.3260 -0.0524
 3922TIP3   OH233180   4.277   2.795  15.622  0.4315 -0.4948  0.4857
 3922TIP3    H133181   4.337   2.858  15.582  0.6900 -1.9333 -1.4873
 3922TIP3    H233182   4.334   2.732  15.665  0.2436 -0.6499  0.5057
 3923TIP3   OH233183   4.582   2.852  12.038  0.0577 -0.5251 -0.2472
 3923TIP3    H133184   4.511   2.814  11.987  1.5002 -1.1549 -1.8375
 3923TIP3    H233185   4.590   2.795  12.114 -0.1670 -1.3071 -0.8085
 3924TIP3   OH233186   5.949   0.935   0.845  0.5483 -0.2601 -0.4279
 3924TIP3    H133187   5.911   1.013   0.885  1.9289  0.7666 -1.0927
 3924TIP3    H233188   6.012   0.903   0.910 -0.3748 -1.1314  0.0580
 3925TIP3   OH233189   0.131   3.170  16.406  0.2075  0.2541  0.5130
 3925TIP3    H133190   0.091   3.115  16.474 -0.0464 -1.1670 -0.7691
 3925TIP3    H233191   0.059   3.226  16.375 -0.1885 -0.5253 -0.0031
 3926TIP3   OH233192   2.199   6.044   5.853  0.6169 -0.2742  0.5407
 3926TIP3    H133193   2.288   6.040   5.887  0.1805 -0.2124  1.6885
 3926TIP3    H233194   2.152   6.101   5.913 -0.3258 -0.6933  0.2215
 3927TIP3   OH233195   5.274   1.831  16.791  0.5638 -0.4082 -0.6692
 3927TIP3    H133196   5.194   1.858  16.835  1.5947  0.4604  0.6849
 3927TIP3    H233197   5.248   1.821  16.699 -0.8507  0.9231 -0.4383
 3928TIP3   OH233198   5.281   3.978   1.060  0.5934  0.3049 -0.2460
 3928TIP3    H133199   5.365   4.018   1.037  0.5994  1.6284  1.9486
 3928TIP3    H233200   5.303   3.887   1.084  1.1379  0.1322 -1.3757
 3929TIP3   OH233201   1.192   2.808   1.407 -0.0723 -0.0665  0.0731
 3929TIP3    H133202   1.250   2.877   1.440 -0.7491 -0.0455  1.2730
 3929TIP3    H233203   1.171   2.835   1.318  0.8046  0.5441  0.0479
 3930TIP3   OH233204   0.019   0.016  11.034 -0.2745  0.0618 -0.0574
 3930TIP3    H133205  -0.059   0.071  11.033  0.0263  0.6119  2.1230
 3930TIP3    H233206   0.075   0.052  10.966 -1.2864  0.6334 -0.6021
 3931TIP3   OH233207   5.068   2.857  15.633 -0.0172 -0.0215 -0.3772
 3931TIP3    H133208   5.091   2.947  15.654 -0.9796  0.6001 -1.8919
 3931TIP3    H233209   5.152   2.813  15.623  0.5057  1.2004 -1.5780
 3932TIP3   OH233210   3.536   3.391  13.389 -0.2071 -0.1685  0.4280
 3932TIP3    H133211   3.465   3.401  13.325  0.1514  0.5972  0.1340
 3932TIP3    H233212   3.497   3.343  13.462 -0.9386 -0.0298  0.1310
 3933TIP3   OH233213   1.623   4.628   3.517  0.4952  0.4220  0.1942
 3933TIP3    H133214   1.600   4.540   3.546 -0.3359  0.0449 -1.5105
 3933TIP3    H233215   1.675   4.614   3.438  1.3911  1.4439  0.5920
 3934TIP3   OH233216   1.493   2.547  16.981 -0.8216 -0.3741 -0.2557
 3934TIP3    H133217   1.574   2.597  16.988 -0.8546 -0.0776 -1.8425
 3934TIP3    H233218   1.468   2.529  17.072  2.6675 -3.2041  0.2092
 3935TIP3   OH233219   3.956   5.468  15.999  0.3845  0.6484  0.2680
 3935TIP3    H133220   4.023   5.426  16.052 -1.1032 -1.9200  0.2014
 3935TIP3    H233221   3.962   5.425  15.914 -0.1719  1.6398 -0.2811
 3936TIP3   OH233222   5.785   0.760   1.280 -0.5161  0.1384  0.5269
 3936TIP3    H133223   5.812   0.673   1.309 -0.8482  0.3050  1.3350
 3936TIP3    H233224   5.818   0.819   1.347 -0.1257  0.6615 -0.1181
 3937TIP3   OH233225   5.533   2.142  13.639 -0.3577  0.1288 -0.2096
 3937TIP3    H133226   5.626   2.163  13.650 -0.2421 -0.1460 -0.6540
 3937TIP3    H233227   5.529   2.047  13.638 -0.6714  0.1372  0.0003
 3938TIP3   OH233228   6.167   5.522  12.910 -0.8544 -0.0275  0.1360
 3938TIP3    H133229   6.165   5.617  12.899  0.1916 -0.2205 -1.9491
 3938TIP3    H233230   6.209   5.508  12.995 -0.4012  1.3416  0.1401
 3939TIP3   OH233231   6.062   4.916  16.745  0.0420  0.2922 -0.7681
 3939TIP3    H133232   6.078   4.994  16.691  1.6253  1.2857  1.0945
 3939TIP3    H233233   6.077   4.843  16.685 -1.6555  1.3806 -2.5971
 3940TIP3   OH233234   1.977   0.807   3.135  0.1973  0.0162  0.7569
 3940TIP3    H133235   1.927   0.747   3.079  1.2040  0.5486 -0.7359
 3940TIP3    H233236   2.023   0.749   3.196  0.6001 -0.7185 -0.2160
 3941TIP3   OH233237   6.196   0.081  12.708  0.6195 -0.1994 -0.1297
 3941TIP3    H133238   6.251   0.123  12.774  1.5742  1.4704 -1.9051
 3941TIP3    H233239   6.162   0.003  12.751  2.3778  0.0537  1.8380
 3942TIP3   OH233240   0.647   0.654   4.097 -0.4467 -0.3349 -0.0980
 3942TIP3    H133241   0.590   0.578   4.082 -1.7092  0.8064 -1.2108
 3942TIP3    H233242   0.608   0.699   4.171  2.1068 -2.4366  2.6620
 3943TIP3   OH233243   4.750   2.456   1.013 -0.6504  0.7678 -0.7216
 3943TIP3    H133244   4.787   2.544   1.022 -1.1714  0.7513  1.8745
 3943TIP3    H233245   4.824   2.397   1.030 -0.9140  0.7288  0.3334
 3944TIP3   OH233246   2.032   0.253  12.959 -0.2668  0.4671  0.2878
 3944TIP3    H133247   2.067   0.341  12.974  1.1906 -0.2367  1.1120
 3944TIP3    H233248   1.976   0.262  12.881 -1.0729  2.3585  1.0512
 3945TIP3   OH233249   3.789   4.761   0.112 -0.0191 -0.2006 -0.0483
 3945TIP3    H133250   3.757   4.679   0.073 -0.6995 -0.3491  0.8013
 3945TIP3    H233251   3.849   4.733   0.181  1.2171  0.0647 -1.0006
 3946TIP3   OH233252   5.179   0.691  14.674  0.0456 -0.6444  0.5821
 3946TIP3    H133253   5.241   0.657  14.739 -1.9845  0.1022  3.0103
 3946TIP3    H233254   5.181   0.786  14.688 -1.0396 -0.5509  0.1489
 3947TIP3   OH233255   5.126   3.452  15.158 -0.2301 -0.0638  0.9178
 3947TIP3    H133256   5.040   3.451  15.116 -0.3640 -0.7290  1.2122
 3947TIP3    H233257   5.150   3.545  15.159  0.1231 -0.0846 -1.3311
 3948TIP3   OH233258   0.343   2.853   2.486 -0.3887 -0.8562  0.2007
 3948TIP3    H133259   0.318   2.761   2.487 -2.7757 -0.2209  0.9457
 3948TIP3    H233260   0.358   2.875   2.578 -1.3899 -0.0944  0.1882
 3949TIP3   OH233261   6.157   0.352   0.933  0.4476  0.1814  0.0651
 3949TIP3    H133262   6.141   0.446   0.924  0.0487  0.0500 -0.6153
 3949TIP3    H233263   6.216   0.331   0.860 -1.0699 -0.4786 -0.9954
 3950TIP3   OH233264   1.127   5.241   5.086 -0.0117 -0.6305 -0.5907
 3950TIP3    H133265   1.033   5.223   5.083 -0.4292  1.2650  0.5367
 3950TIP3    H233266   1.148   5.247   5.179  1.2876 -1.3058 -0.8291
 3951TIP3   OH233267   3.022   2.456   2.627  0.1929  0.7576  0.2641
 3951TIP3    H133268   3.004   2.432   2.718 -0.6397 -0.4290 -0.2078
 3951TIP3    H233269   3.090   2.395   2.599  0.3984  1.0747  0.0768
 3952TIP3   OH233270   3.893   1.958  16.003  0.2834 -0.0506  0.3577
 3952TIP3    H133271   3.959   1.972  15.935 -0.6999 -0.2955 -0.6631
 3952TIP3    H233272   3.937   1.983  16.084  0.9928  1.6817 -0.5355
 3953TIP3   OH233273   0.199   2.823  16.580 -0.0192 -0.0868  0.0271
 3953TIP3    H133274   0.108   2.847  16.598  0.2050  0.4960  0.3906
 3953TIP3    H233275   0.194   2.768  16.501 -0.4694  1.7266 -1.2334
 3954TIP3   OH233276   5.674   2.660   6.738 -0.1206  0.9238 -0.0307
 3954TIP3    H133277   5.697   2.747   6.772  0.1253  0.3635  1.2396
 3954TIP3    H233278   5.579   2.661   6.732 -0.0540  1.7202 -1.2252
 3955TIP3   OH233279   0.065   2.927   5.409  0.3580 -0.0134 -0.2791
 3955TIP3    H133280   0.116   2.953   5.486 -0.1225  0.6467 -0.1815
 3955TIP3    H233281  -0.012   2.884   5.445  1.9032 -3.0388 -0.4607
 3956TIP3   OH233282   6.073   1.467   4.103  0.0626  0.5074 -0.1571
 3956TIP3    H133283   6.095   1.549   4.146  0.0169  0.5834 -0.2786
 3956TIP3    H233284   6.158   1.424   4.088 -0.0054 -0.0713  1.1041
 3957TIP3   OH233285   2.424   2.204   4.325  0.0058 -0.5936 -0.2059
 3957TIP3    H133286   2.471   2.149   4.262 -0.3019 -1.2958  0.1786
 3957TIP3    H233287   2.467   2.187   4.409  0.3792  0.2999 -0.2094
 3958TIP3   OH233288   5.979   0.435  13.473 -0.5447  0.2253  0.0277
 3958TIP3    H133289   6.065   0.469  13.498 -0.5023  0.3699 -0.3112
 3958TIP3    H233290   5.929   0.513  13.449 -0.1537 -0.0232 -1.6640
 3959TIP3   OH233291   0.473   5.814  14.043  0.0902 -0.4746  0.3783
 3959TIP3    H133292   0.429   5.845  13.963 -0.1853  0.3497  0.8368
 3959TIP3    H233293   0.553   5.774  14.012 -0.0697 -0.2578 -0.3313
 3960TIP3   OH233294   2.817   3.333   2.507 -0.4630 -0.2503 -0.0646
 3960TIP3    H133295   2.823   3.243   2.541  0.2960  0.5183  1.9196
 3960TIP3    H233296   2.908   3.360   2.494 -0.6138  0.7509  0.8414
 3961TIP3   OH233297   3.028   1.908  12.431 -0.2701  0.1292 -0.5073
 3961TIP3    H133298   3.042   1.822  12.391  1.6028  0.9252 -1.6704
 3961TIP3    H233299   3.057   1.897  12.522 -1.8220 -0.9456 -0.1328
 3962TIP3   OH233300   4.544   4.442   3.929 -0.0266 -0.3566  0.4261
 3962TIP3    H133301   4.510   4.377   3.867 -1.8281  0.2218  0.7917
 3962TIP3    H233302   4.476   4.508   3.935  1.8505  1.6924 -0.0501
 3963TIP3   OH233303   4.216   0.547  16.422  0.4747  0.0028 -0.5116
 3963TIP3    H133304   4.127   0.572  16.450  1.4554  0.3176  2.5438
 3963TIP3    H233305   4.215   0.451  16.423 -0.0242 -0.0032 -1.1698
 3964TIP3   OH233306   0.562   2.829  11.173 -0.3703  1.0767  0.0192
 3964TIP3    H133307   0.520   2.909  11.202  0.1028  0.8222  1.4374
 3964TIP3    H233308   0.629   2.811  11.239 -2.1170 -1.8413  1.1157
 3965TIP3   OH233309   2.301   5.495   5.565 -0.9119 -0.0905  0.0952
 3965TIP3    H133310   2.294   5.548   5.644 -2.3867 -0.5115  0.2733
 3965TIP3    H233311   2.313   5.558   5.494 -2.4000  0.4726  0.3346
 3966TIP3   OH233312   2.786   2.857  11.861  0.6311  0.7217 -0.6200
 3966TIP3    H133313   2.813   2.883  11.773  0.4468 -0.5628 -1.0777
 3966TIP3    H233314   2.700   2.897  11.872  0.7519  1.0804 -0.9327
 3967TIP3   OH233315   3.350   0.368  13.702 -0.1090  0.6016  0.5374
 3967TIP3    H133316   3.439   0.366  13.668 -0.9687  1.4230 -1.9001
 3967TIP3    H233317   3.328   0.461  13.705 -0.7005  0.4332  1.6461
 3968TIP3   OH233318   0.942   4.650  12.125  0.2871 -0.1953 -0.2651
 3968TIP3    H133319   0.907   4.563  12.144 -1.6392  0.7094  0.5213
 3968TIP3    H233320   0.864   4.704  12.108  1.4514  1.3495 -0.8467
 3969TIP3   OH233321   5.918   1.235  14.761 -0.4644 -0.0909 -0.0227
 3969TIP3    H133322   5.991   1.261  14.817 -0.6856 -1.4705  0.9360
 3969TIP3    H233323   5.954   1.168  14.703 -0.9576 -0.7725  0.4488
 3970TIP3   OH233324   2.136   1.803  16.542  0.8913  0.2642  0.3877
 3970TIP3    H133325   2.223   1.778  16.511  0.1581 -0.2080 -1.3535
 3970TIP3    H233326   2.151   1.879  16.598  2.3375  0.7564 -0.6388
 3971TIP3   OH233327   1.225   1.065   5.204 -0.0392 -0.3993 -0.2977
 3971TIP3    H133328   1.215   1.099   5.115  0.1089 -0.4882 -0.3492
 3971TIP3    H233329   1.313   1.092   5.230 -0.2750  0.0706  0.0164
 3972TIP3   OH233330   1.586   3.897  14.324 -0.1399 -0.4526 -0.1850
 3972TIP3    H133331   1.590   3.977  14.272  1.7741 -1.5079 -1.6860
 3972TIP3    H233332   1.524   3.841  14.278 -1.8971  0.3321  1.1588
 3973TIP3   OH233333   3.067   4.741   5.543 -0.0933  0.6505  0.2171
 3973TIP3    H133334   3.062   4.836   5.541 -1.1042  0.6178  0.7993
 3973TIP3    H233335   2.996   4.714   5.602 -0.6899 -0.5301 -1.0131
 3974TIP3   OH233336   3.905   1.804   0.642  0.0385 -0.1610 -0.3646
 3974TIP3    H133337   3.970   1.772   0.705 -0.5325  0.9954  0.8405
 3974TIP3    H233338   3.823   1.762   0.668 -0.5281  1.5653  0.6726
 3975TIP3   OH233339   4.468   1.756   5.703 -0.1098 -0.0118  0.1532
 3975TIP3    H133340   4.538   1.775   5.640  1.3844 -0.8585  1.5281
 3975TIP3    H233341   4.422   1.680   5.666  1.3591 -1.1089  0.5402
 3976TIP3   OH233342   3.087   0.351   0.646  0.0401 -0.3169  0.0595
 3976TIP3    H133343   3.087   0.400   0.728 -0.1529  0.3787 -0.3458
 3976TIP3    H233344   3.079   0.419   0.578 -3.6696 -1.1116 -0.3814
 3977TIP3   OH233345   1.869   5.689  14.767 -0.4642 -0.0854  0.1782
 3977TIP3    H133346   1.868   5.599  14.800  0.9355 -0.1601  0.0220
 3977TIP3    H233347   1.881   5.680  14.672  0.3764  0.2945  0.2503
 3978TIP3   OH233348   5.559   6.272   1.843 -0.1680 -0.2039  0.4473
 3978TIP3    H133349   5.487   6.304   1.790 -0.8642  0.6813  1.8939
 3978TIP3    H233350   5.601   6.351   1.878  0.3971 -0.7593  1.0482
 3979TIP3   OH233351   6.213   4.567   5.018 -0.9558  0.9202 -0.0792
 3979TIP3    H133352   6.270   4.636   5.052 -0.3255  0.0723  0.5974
 3979TIP3    H233353   6.194   4.594   4.928  2.9559 -0.2381 -1.3771
 3980TIP3   OH233354   4.247   1.401   0.114 -0.3574  0.6652 -0.1171
 3980TIP3    H133355   4.158   1.404   0.079 -0.9326  0.4649  1.2863
 3980TIP3    H233356   4.266   1.308   0.125 -0.9452  0.7639  1.9458
 3981TIP3   OH233357   5.925   3.533   0.757 -0.3445 -0.1942  0.5261
 3981TIP3    H133358   5.943   3.477   0.832  0.2520  1.0993  1.3581
 3981TIP3    H233359   5.851   3.587   0.784 -2.3783 -2.0461 -1.0723
 3982TIP3   OH233360   3.350   3.332  11.817 -0.2504 -0.4530 -0.0960
 3982TIP3    H133361   3.405   3.272  11.766 -0.4659 -0.7024 -0.0394
 3982TIP3    H233362   3.330   3.404  11.757  0.5332 -0.1215  0.0344
 3983TIP3   OH233363   2.685   2.389   2.787 -0.2210 -0.5172 -0.0180
 3983TIP3    H133364   2.616   2.322   2.786 -0.2911 -0.4436 -0.6227
 3983TIP3    H233365   2.709   2.399   2.694  1.4464 -1.4281  0.2900
 3984TIP3   OH233366   5.545   2.952   2.258  0.7382 -0.1205  0.0998
 3984TIP3    H133367   5.505   2.906   2.184 -0.1695  3.0550 -1.4486
 3984TIP3    H233368   5.500   3.036   2.261  1.6999  0.3423  3.4669
 3985TIP3   OH233369   2.018   5.878  14.914  0.7508 -0.5326 -0.8132
 3985TIP3    H133370   2.102   5.895  14.870  1.0859  0.3079  0.1289
 3985TIP3    H233371   1.967   5.828  14.850  1.5894 -0.1567 -1.7938
 3986TIP3   OH233372   6.098   5.604   4.072 -0.1130 -0.0831 -0.1400
 3986TIP3    H133373   6.158   5.621   4.145  1.1722  1.2331 -1.4571
 3986TIP3    H233374   6.058   5.689   4.054  0.4299 -0.1398 -1.6816
 3987TIP3   OH233375   4.149   5.815   4.465 -0.5481 -0.5040 -0.0656
 3987TIP3    H133376   4.153   5.720   4.454  1.9884 -0.2703 -1.6566
 3987TIP3    H233377   4.076   5.843   4.410 -0.6303 -1.4511 -0.4384
 3988TIP3   OH233378   6.412   5.911  16.586 -0.9823 -0.4979  0.4478
 3988TIP3    H133379   6.474   5.979  16.561 -1.1961 -0.4972 -0.0844
 3988TIP3    H233380   6.453   5.867  16.660  0.2128 -1.2851 -0.6667
 3989TIP3   OH233381   4.238   4.865   5.735 -0.3498 -0.2809 -0.1157
 3989TIP3    H133382   4.205   4.856   5.646  0.1134 -0.3236 -0.2844
 3989TIP3    H233383   4.325   4.904   5.725  0.3400 -1.7007  0.2162
 3990TIP3   OH233384   0.850   4.001   3.756  0.5420 -0.1219 -0.2511
 3990TIP3    H133385   0.785   3.932   3.768  0.5845 -0.1147  0.0286
 3990TIP3    H233386   0.933   3.954   3.749  0.3098 -0.2398 -2.3392
 3991TIP3   OH233387   1.206   6.510   5.389 -0.4069 -0.7603  0.5693
 3991TIP3    H133388   1.245   6.518   5.302  0.4669  3.0830  1.2380
 3991TIP3    H233389   1.281   6.511   5.449 -1.1671  0.3379  1.5216
 3992TIP3   OH233390   3.367   4.754   2.963  0.3349  0.7169 -0.0567
 3992TIP3    H133391   3.318   4.835   2.970 -0.6880  0.5752 -4.2188
 3992TIP3    H233392   3.438   4.774   2.902 -1.0277 -1.9067 -2.6480
 3993TIP3   OH233393   1.577   3.209  14.153  0.6516  0.4034  0.2414
 3993TIP3    H133394   1.626   3.291  14.157 -0.5404  1.0519  2.0895
 3993TIP3    H233395   1.604   3.161  14.231  0.6187 -0.5631 -0.3310
 3994TIP3   OH233396   0.095   5.863   4.352  0.6540  0.7713  0.0944
 3994TIP3    H133397   0.004   5.894   4.353 -0.0355 -1.1056 -1.1379
 3994TIP3    H233398   0.103   5.807   4.429  0.3864 -0.0511 -0.4671
 3995TIP3   OH233399   0.510   1.966  11.034 -0.1985 -0.2683  0.0007
 3995TIP3    H133400   0.567   1.986  11.109  1.2218  1.9511 -1.5799
 3995TIP3    H233401   0.423   1.956  11.072  0.3225  1.7355  1.8852
 3996TIP3   OH233402   4.624   4.274   1.769 -0.0754 -0.5047  0.3329
 3996TIP3    H133403   4.622   4.179   1.785  1.8958 -0.7317 -0.5695
 3996TIP3    H233404   4.717   4.294   1.757 -0.2367  1.9249  2.6199
 3997TIP3   OH233405   4.857   2.281  11.186  0.4739  0.7546  0.1860
 3997TIP3    H133406   4.789   2.224  11.221 -0.1367  0.1846 -1.8873
 3997TIP3    H233407   4.839   2.367  11.224 -1.2306  0.5447 -0.1346
 3998TIP3   OH233408   2.753   2.048   5.889 -0.0140  0.6749 -0.1252
 3998TIP3    H133409   2.766   1.967   5.937 -4.8643 -0.3137 -0.2140
 3998TIP3    H233410   2.726   2.112   5.956  1.1601  1.5289 -0.4402
 3999TIP3   OH233411   2.703   0.250  14.006  0.4163  0.1414  0.2756
 3999TIP3    H133412   2.689   0.316  14.074  1.6282 -0.8772  1.5568
 3999TIP3    H233413   2.672   0.168  14.046  0.3660 -0.3327 -0.7138
 4000TIP3   OH233414   1.860   0.457   2.860 -0.3739 -0.1765  1.1915
 4000TIP3    H133415   1.823   0.521   2.921 -0.1434 -0.7016  1.8891
 4000TIP3    H233416   1.848   0.497   2.774 -1.9897 -0.0480  1.4528
 4001TIP3   OH233417   3.693   0.148   0.949 -0.3119 -0.0009  0.5723
 4001TIP3    H133418   3.664   0.193   1.028  0.9305 -0.4346  1.2936
 4001TIP3    H233419   3.671   0.208   0.878 -0.3561  0.9350  1.3633
 4002TIP3   OH233420   2.822   0.061  11.943 -0.1522  0.2258 -0.0979
 4002TIP3    H133421   2.800   0.017  11.860 -1.8466  3.3317 -1.4121
 4002TIP3    H233422   2.878   0.135  11.916 -2.0958  2.2588  1.2555
 4003TIP3   OH233423   2.462   5.577  14.288  0.5728  0.0680 -0.2952
 4003TIP3    H133424   2.403   5.552  14.359  0.0490  1.8114 -0.0844
 4003TIP3    H233425   2.478   5.496  14.240 -0.9810 -0.6793  0.4137
 4004TIP3   OH233426   4.263   4.720  15.787 -0.1819 -0.2746 -0.1883
 4004TIP3    H133427   4.356   4.713  15.809 -0.1918  0.0376 -0.0491
 4004TIP3    H233428   4.255   4.677  15.702  0.3028  0.7581 -0.7683
 4005TIP3   OH233429   4.199   5.420  14.688  0.9236 -0.1363 -0.4001
 4005TIP3    H133430   4.220   5.505  14.648 -1.5511  1.7893  2.2583
 4005TIP3    H233431   4.253   5.417  14.767 -0.3341 -0.1910  0.4736
 4006TIP3   OH233432   1.028   0.528   4.219  0.0272 -0.1304  0.4984
 4006TIP3    H133433   1.040   0.582   4.298 -0.2271  0.3782  0.1935
 4006TIP3    H233434   1.001   0.443   4.253 -2.9517  0.8943  0.8757
 4007TIP3   OH233435   3.472   4.908  16.056  0.3007 -0.6178 -0.3677
 4007TIP3    H133436   3.444   4.841  16.119  1.4309 -1.5333 -0.8126
 4007TIP3    H233437   3.435   4.878  15.972 -2.7516  1.5585  0.1253
 4008TIP3   OH233438   2.806   5.970   2.959  0.0209 -0.3271 -0.3734
 4008TIP3    H133439   2.800   6.012   2.873 -2.1429 -1.4907 -0.8178
 4008TIP3    H233440   2.839   5.882   2.941  0.0312 -0.4119  0.0504
 4009TIP3   OH233441   3.252   5.397  11.884  0.5046 -0.0889 -0.1847
 4009TIP3    H133442   3.236   5.446  11.964  1.9292 -0.1397  0.1392
 4009TIP3    H233443   3.282   5.311  11.914 -0.1324 -0.5290 -0.7681
 4010TIP3   OH233444   2.974   0.851  11.662 -0.3994  0.0596  0.0838
 4010TIP3    H133445   2.908   0.897  11.713  0.1232  0.5081  0.3571
 4010TIP3    H233446   2.924   0.789  11.609 -0.9171 -0.7054  1.4358
 4011TIP3   OH233447   6.699   4.360  11.406 -0.2892  0.2153 -0.0745
 4011TIP3    H133448   6.647   4.354  11.486 -0.3481  0.8855 -0.0635
 4011TIP3    H233449   6.788   4.340  11.434  0.1689  3.1212  0.6762
 4012TIP3   OH233450   3.949   0.974  16.191  0.6121  0.0546  0.0316
 4012TIP3    H133451   3.883   0.987  16.124 -0.9244 -0.3367  1.4236
 4012TIP3    H233452   3.989   1.060  16.203 -2.5228  1.3095  2.0691
 4013TIP3   OH233453   5.340   1.869  14.687 -0.2736  0.3170  0.4327
 4013TIP3    H133454   5.317   1.883  14.595  0.6062  1.2344  0.3458
 4013TIP3    H233455   5.431   1.840  14.686  0.1788  1.6646  1.0857
 4014TIP3   OH233456   6.347   2.990  15.071 -0.0857 -0.0170  0.1684
 4014TIP3    H133457   6.357   2.941  15.153  0.5105 -0.1578  0.0099
 4014TIP3    H233458   6.264   2.957  15.035 -0.3023 -0.0279  0.6596
 4015TIP3   OH233459   3.111   3.490  13.418 -0.2640  0.5773  0.3017
 4015TIP3    H133460   3.025   3.448  13.416  0.4256 -0.9688  1.4189
 4015TIP3    H233461   3.165   3.438  13.358  0.3596  0.4152  0.9868
 4016TIP3   OH233462   4.380   5.730  12.088 -0.4595  0.7669  0.0488
 4016TIP3    H133463   4.365   5.775  12.005  0.4485 -0.0831 -0.5913
 4016TIP3    H233464   4.458   5.773  12.124  0.7534 -0.6285 -0.8354
 4017TIP3   OH233465   2.968   4.613   4.052 -0.1666  0.2279  0.3658
 4017TIP3    H133466   2.970   4.702   4.087 -0.6150  0.4823 -0.2420
 4017TIP3    H233467   3.034   4.613   3.983  2.3886 -0.9326  2.7299
 4018TIP3   OH233468   4.311   5.144   2.337  0.6380 -0.0326 -0.0066
 4018TIP3    H133469   4.323   5.185   2.251  0.6572 -0.0596 -0.0168
 4018TIP3    H233470   4.392   5.095   2.352  0.4281 -0.4423 -0.2007
 4019TIP3   OH233471   0.066   1.749  11.185 -0.3853 -0.3368 -0.6107
 4019TIP3    H133472   0.061   1.654  11.181  1.9367 -0.4810 -0.8294
 4019TIP3    H233473   0.058   1.770  11.278  0.4358 -0.8687 -0.4059
 4020TIP3   OH233474   6.049   3.288   4.338 -0.2188  0.3903 -0.2643
 4020TIP3    H133475   5.964   3.245   4.342  0.0489 -0.1549 -0.3527
 4020TIP3    H233476   6.079   3.292   4.429  0.8394 -1.8161 -0.4991
 4021TIP3   OH233477   3.191   0.456  10.246 -0.2285  0.1984 -0.5988
 4021TIP3    H133478   3.268   0.505  10.217  0.7725 -0.4233  0.9095
 4021TIP3    H233479   3.184   0.475  10.339  0.3537 -2.6452  0.1005
 4022TIP3   OH233480   1.112   4.890  14.080  0.2269 -0.2288  0.4272
 4022TIP3    H133481   1.025   4.924  14.057  1.2470  1.5542 -0.9443
 4022TIP3    H233482   1.113   4.801  14.043 -0.5236  0.2393 -0.7569
 4023TIP3   OH233483   5.126   5.524  16.869  0.4811 -0.5585  0.1585
 4023TIP3    H133484   5.034   5.543  16.882  0.3957 -1.1692  0.4951
 4023TIP3    H233485   5.169   5.553  16.949  0.3484 -1.7497  0.6745
 4024TIP3   OH233486   2.482   1.610   6.195 -0.3862 -0.6910 -0.1890
 4024TIP3    H133487   2.506   1.598   6.103 -0.2255 -1.0735 -0.0994
 4024TIP3    H233488   2.556   1.655   6.234  0.3522 -2.1712  0.1630
 4025TIP3   OH233489   2.765   1.365  11.138  0.1390  0.6061 -0.3506
 4025TIP3    H133490   2.806   1.437  11.090  0.2146  0.5891 -0.3125
 4025TIP3    H233491   2.782   1.287  11.084  0.2058  0.5901 -0.3061
 4026TIP3   OH233492   0.639   2.828   1.276 -0.5634 -0.1092  0.5673
 4026TIP3    H133493   0.732   2.843   1.294  0.5030 -3.0831 -1.9605
 4026TIP3    H233494   0.604   2.791   1.357  1.1596 -1.6041  0.6726
 4027TIP3   OH233495   6.462   2.499   3.811 -0.0301  0.6178  0.3503
 4027TIP3    H133496   6.374   2.512   3.848  0.1119  1.3699  0.4398
 4027TIP3    H233497   6.447   2.478   3.719 -0.2891  1.2402  0.2462
 4028TIP3   OH233498   1.963   6.561  16.001 -0.3928 -0.1142  0.1403
 4028TIP3    H133499   1.907   6.633  16.029 -1.9946 -0.4816 -1.9460
 4028TIP3    H233500   2.004   6.593  15.920 -0.7165 -1.3215 -0.5233
 4029TIP3   OH233501   6.621   4.614   3.311  0.5632 -0.9812 -0.1749
 4029TIP3    H133502   6.642   4.521   3.308 -1.2699 -1.3868 -1.0443
 4029TIP3    H233503   6.609   4.639   3.220  2.6384  0.5076 -0.0674
 4030TIP3   OH233504   0.663   2.510   2.927 -0.7772 -0.0904  0.4271
 4030TIP3    H133505   0.606   2.433   2.919 -0.6508 -0.1600  0.2162
 4030TIP3    H233506   0.607   2.577   2.966 -0.7711 -0.4226  1.0210
 4031TIP3   OH233507   1.375   3.806  14.179  0.0881  0.0108  0.5804
 4031TIP3    H133508   1.326   3.740  14.228  0.6030  0.2183  1.3874
 4031TIP3    H233509   1.364   3.781  14.087 -1.3687 -0.0396  0.7589
 4032TIP3   OH233510   4.284   2.877  15.879  0.0555 -0.5881 -0.1953
 4032TIP3    H133511   4.255   2.802  15.931  2.0425 -0.8342  0.5966
 4032TIP3    H233512   4.282   2.846  15.789 -0.3899 -1.1736  0.0167
 4033TIP3   OH233513   4.276   0.557   6.565 -0.7127 -0.5682 -0.2400
 4033TIP3    H133514   4.264   0.583   6.474 -0.8043  0.3102  0.0127
 4033TIP3    H233515   4.294   0.640   6.611 -1.1712 -0.9401  0.6190
 4034TIP3   OH233516   4.217   3.494  15.712  0.2563  0.1551 -0.0983
 4034TIP3    H133517   4.246   3.404  15.696 -0.8940 -0.3534  0.6393
 4034TIP3    H233518   4.295   3.547  15.697  0.7484 -0.8876 -1.3043
 4035TIP3   OH233519   1.108   1.226   6.526  0.3286  0.5661  0.0096
 4035TIP3    H133520   1.191   1.273   6.518  0.0392  1.1824  0.5749
 4035TIP3    H233521   1.043   1.287   6.491  0.2085 -0.2279 -1.1826
 4036TIP3   OH233522   3.748   2.571   4.410 -0.4963 -0.1126  0.0024
 4036TIP3    H133523   3.787   2.616   4.335 -1.1393 -1.2488 -1.0332
 4036TIP3    H233524   3.822   2.542   4.463 -0.0564  1.3822  0.2302
 4037TIP3   OH233525   4.650   3.947  15.587  0.1598 -0.4064  0.4229
 4037TIP3    H133526   4.590   3.886  15.544  1.3672 -0.1800 -1.6544
 4037TIP3    H233527   4.711   3.892  15.635  0.0422 -0.7435  0.1833
 4038TIP3   OH233528   0.139   6.285   0.236 -0.0581  0.0469  0.3383
 4038TIP3    H133529   0.089   6.215   0.193 -0.2870 -1.6771  3.2700
 4038TIP3    H233530   0.227   6.277   0.199 -0.0795 -1.8089  0.6089
 4039TIP3   OH233531   2.056   2.669   1.810  0.4539 -0.0684  0.3910
 4039TIP3    H133532   2.120   2.600   1.826 -0.5512 -0.4778  2.8726
 4039TIP3    H233533   1.982   2.647   1.866 -0.6251  2.0444 -0.1407
 4040TIP3   OH233534   1.587   0.959   3.953 -0.0039  0.1084  0.1145
 4040TIP3    H133535   1.519   0.987   4.013  0.2383  2.3759 -0.6412
 4040TIP3    H233536   1.542   0.943   3.871  0.2012  0.5008 -0.0753
 4041TIP3   OH233537   5.174   6.569  16.752 -0.2902 -0.9547  0.4695
 4041TIP3    H133538   5.242   6.508  16.721 -0.5758  0.0166 -2.2466
 4041TIP3    H233539   5.213   6.655  16.741 -2.0154 -0.3679 -1.3885
 4042TIP3   OH233540   3.806   1.630  12.155 -0.1249  0.7615  0.1768
 4042TIP3    H133541   3.715   1.656  12.167  0.1832  1.8077  0.3345
 4042TIP3    H233542   3.813   1.546  12.200 -1.4280 -0.1937 -1.3500
 4043TIP3   OH233543   4.616   1.190   5.217 -0.0130  0.2562  0.4508
 4043TIP3    H133544   4.690   1.223   5.268  1.5338 -1.9454 -0.2863
 4043TIP3    H233545   4.636   1.214   5.126  0.0055 -0.6738  0.2002
 4044TIP3   OH233546   5.032   2.006   5.295  0.6941 -0.0250  0.1804
 4044TIP3    H133547   4.957   1.955   5.266  1.6501  0.1506 -2.8212
 4044TIP3    H233548   4.995   2.077   5.346 -1.0898 -0.6402 -0.2400
 4045TIP3   OH233549   4.393   6.384  15.926 -0.0128 -0.1486 -0.0314
 4045TIP3    H133550   4.367   6.335  15.848  1.2539 -0.4215 -0.2985
 4045TIP3    H233551   4.320   6.375  15.986 -0.1670 -1.6283 -0.4233
 4046TIP3   OH233552   6.665   6.179   5.510  0.0820  0.0658  0.6339
 4046TIP3    H133553   6.606   6.249   5.538 -0.6771 -0.2087 -0.2714
 4046TIP3    H233554   6.650   6.108   5.572 -2.0274 -0.7656 -0.7874
 4047TIP3   OH233555   5.574   6.129   4.634  0.0889  0.3282 -0.1940
 4047TIP3    H133556   5.599   6.163   4.720  0.0495 -1.7696  0.6720
 4047TIP3    H233557   5.654   6.131   4.582 -0.2309  3.1335 -0.6761
 4048TIP3   OH233558   5.437   2.444   6.749 -0.1285 -0.2281 -0.2642
 4048TIP3    H133559   5.430   2.500   6.672 -1.7331  0.0400  0.0589
 4048TIP3    H233560   5.415   2.357   6.718  0.5134 -0.3488 -0.3798
 4049TIP3   OH233561   3.255   5.878  16.960 -0.2850 -0.2570  0.5701
 4049TIP3    H133562   3.276   5.951  17.017  0.2134  1.8744 -2.2433
 4049TIP3    H233563   3.159   5.875  16.959 -0.3163  0.7002  0.3197
 4050TIP3   OH233564   4.513   2.272   7.003  0.1907  0.2142 -0.1018
 4050TIP3    H133565   4.480   2.346   6.951 -0.0628  0.0673 -0.1490
 4050TIP3    H233566   4.563   2.219   6.940 -2.0679 -1.2200 -0.7489
 4051TIP3   OH233567   5.027   2.071   1.011 -0.2809  0.4926  0.3709
 4051TIP3    H133568   4.945   2.065   0.962  1.0643  0.0119 -1.8637
 4051TIP3    H233569   5.017   2.007   1.082 -1.9679  0.6996  0.3472
 4052TIP3   OH233570   1.013   6.703  15.393  0.2999  0.0800 -0.5273
 4052TIP3    H133571   1.058   6.619  15.401  0.9324  0.5560  0.9426
 4052TIP3    H233572   0.944   6.687  15.328  2.5755 -0.6460 -2.8212
 4053TIP3   OH233573   6.201   0.753  17.140  0.5045  0.1172 -0.8253
 4053TIP3    H133574   6.225   0.787  17.054  0.8143  0.9607 -0.4114
 4053TIP3    H233575   6.269   0.787  17.199 -0.0635  0.0764 -0.1426
 4054TIP3   OH233576   4.758   2.063   6.107 -0.0434  0.5968  0.6318
 4054TIP3    H133577   4.681   2.018   6.141 -0.2391  1.4823  1.3838
 4054TIP3    H233578   4.785   2.122   6.178  1.8422 -0.3203  0.6953
 4055TIP3   OH233579   2.817   2.825   1.690  0.0078  0.1010 -0.1418
 4055TIP3    H133580   2.805   2.829   1.595  0.0740 -0.5459 -0.1785
 4055TIP3    H233581   2.901   2.781   1.702  0.7234  1.5451  0.1907
 4056TIP3   OH233582   4.465   5.134  17.115  0.2296  0.0465  0.1768
 4056TIP3    H133583   4.513   5.068  17.064  1.4323  1.9599 -1.2162
 4056TIP3    H233584   4.375   5.130  17.081  0.3338 -0.7296 -0.0203
 4057TIP3   OH233585   4.178   3.204   5.918 -0.0993  0.2379 -0.4884
 4057TIP3    H133586   4.148   3.233   6.004 -1.2266  0.0773 -0.8252
 4057TIP3    H233587   4.245   3.139   5.937 -0.8157 -0.2857  0.2732
 4058TIP3   OH233588   2.286   5.607  15.268  0.7320  0.6622 -0.5440
 4058TIP3    H133589   2.217   5.636  15.208 -0.6591  0.9108  1.1267
 4058TIP3    H233590   2.251   5.527  15.307  2.3748 -0.4665 -1.3423
 4059TIP3   OH233591   5.425   2.690   5.638  0.3733 -0.6497  0.0485
 4059TIP3    H133592   5.349   2.742   5.667 -0.2214 -0.9492 -0.9558
 4059TIP3    H233593   5.458   2.650   5.718 -0.7263 -0.7714  0.4569
 4060TIP3   OH233594   5.512   4.699  13.855 -0.6097  0.2695 -0.1470
 4060TIP3    H133595   5.451   4.745  13.798  0.6088  0.4320 -1.3522
 4060TIP3    H233596   5.591   4.753  13.854 -0.6948  0.4660  1.9985
 4061TIP3   OH233597   4.672   5.233  14.810  0.2026  0.2295  0.0238
 4061TIP3    H133598   4.654   5.198  14.898  0.4698  0.9526  0.3677
 4061TIP3    H233599   4.702   5.323  14.826  1.5092 -0.0684 -0.7280
 4062TIP3   OH233600   2.072   5.329   5.482  0.0705 -0.1050  0.1928
 4062TIP3    H133601   2.151   5.383   5.487 -0.9209  1.2378  1.5219
 4062TIP3    H233602   2.105   5.239   5.485  1.7869  0.3494 -2.9012
 4063TIP3   OH233603   1.009   2.485   6.091 -0.0371 -0.3642 -0.1342
 4063TIP3    H133604   1.021   2.393   6.111  0.7903 -0.5059 -1.2028
 4063TIP3    H233605   0.944   2.486   6.020  1.5669 -0.2984 -1.6529
 4064TIP3   OH233606   1.576   5.756  14.449  0.6822 -0.1054 -0.1020
 4064TIP3    H133607   1.556   5.767  14.542  2.0378 -0.5446  0.2478
 4064TIP3    H233608   1.594   5.844  14.418  1.4949 -0.1057  0.3534
 4065TIP3   OH233609   3.571   6.277   3.099 -0.4004 -0.1197  0.3646
 4065TIP3    H133610   3.596   6.368   3.112  3.6929 -0.9039 -1.3999
 4065TIP3    H233611   3.573   6.239   3.187 -1.9647  1.3724  1.0832
 4066TIP3   OH233612   2.497   2.672  16.282  0.0039 -0.4804 -0.4467
 4066TIP3    H133613   2.463   2.642  16.366  1.4161 -0.5147  0.1260
 4066TIP3    H233614   2.589   2.648  16.283  0.6437  1.8240 -0.9118
 4067TIP3   OH233615   4.243   4.260   1.907  0.2044 -0.2274  0.2090
 4067TIP3    H133616   4.242   4.187   1.969  0.5568 -0.8141 -0.4703
 4067TIP3    H233617   4.155   4.297   1.912 -0.2663 -1.2817 -0.1328
 4068TIP3   OH233618   5.089   3.655   3.842 -0.3065  0.4112 -0.0590
 4068TIP3    H133619   5.114   3.728   3.785 -0.6084 -0.0618 -0.8143
 4068TIP3    H233620   5.002   3.678   3.874  0.8773  1.8349  2.1947
 4069TIP3   OH233621   2.627   4.416  11.383  0.1518 -0.0815 -0.0218
 4069TIP3    H133622   2.652   4.330  11.416  1.1956  0.3749  0.4058
 4069TIP3    H233623   2.572   4.398  11.307 -0.4822 -1.1268  0.6786
 4070TIP3   OH233624   0.893   5.365   5.612  0.5365  0.2384 -0.3654
 4070TIP3    H133625   0.889   5.460   5.607 -1.4438  0.1787 -0.4111
 4070TIP3    H233626   0.870   5.344   5.703  0.8449 -0.1950 -0.3825
 4071TIP3   OH233627   4.144   3.995   3.459  0.1087  0.0940  0.2160
 4071TIP3    H133628   4.175   4.079   3.493  0.2949 -0.1175  0.5689
 4071TIP3    H233629   4.168   3.996   3.366  0.8273  0.0955  0.4002
 4072TIP3   OH233630   4.632   6.422  12.744 -0.3170  0.5709  0.1033
 4072TIP3    H133631   4.598   6.399  12.830 -0.0267  0.9024  0.3070
 4072TIP3    H233632   4.689   6.348  12.720 -0.8140  0.2309 -0.0398
 4073TIP3   OH233633   0.412   4.550   5.964  0.3668  0.3109 -0.0489
 4073TIP3    H133634   0.356   4.524   6.037  0.8924  0.3584  0.3777
 4073TIP3    H233635   0.455   4.469   5.937  1.3922  0.5743  0.7530
 4074TIP3   OH233636   3.105   2.669   4.017  0.0130 -0.0960  0.2576
 4074TIP3    H133637   3.125   2.641   3.927 -1.0102  0.8572 -0.2879
 4074TIP3    H233638   3.011   2.653   4.026  0.2113 -0.6883  1.3522
 4075TIP3   OH233639   4.907   3.696   0.542 -0.2304  0.6062 -0.4096
 4075TIP3    H133640   4.842   3.697   0.472 -0.1628  2.4151 -0.4518
 4075TIP3    H233641   4.973   3.760   0.515  0.5055  0.3102  0.6445
 4076TIP3   OH233642   5.828   2.545  15.610 -0.2163  0.2372 -0.2084
 4076TIP3    H133643   5.914   2.567  15.573 -0.5872  1.2889 -0.4472
 4076TIP3    H233644   5.801   2.623  15.658 -1.1273 -0.0250 -0.2797
 4077TIP3   OH233645   4.104   0.040  13.910 -0.3284 -0.1242 -0.2794
 4077TIP3    H133646   4.173   0.030  13.975 -1.0493 -0.3175  0.4670
 4077TIP3    H233647   4.150   0.056  13.828  0.5518  1.3571  0.4935
 4078TIP3   OH233648   2.041   3.783   6.174 -0.1664 -0.0351 -0.2478
 4078TIP3    H133649   2.013   3.759   6.262 -0.0936  0.9874  0.0689
 4078TIP3    H233650   2.117   3.727   6.157 -0.2982 -0.3732  0.2623
 4079TIP3   OH233651   2.033   0.647  13.764 -0.4624  0.6680 -0.6724
 4079TIP3    H133652   2.094   0.583  13.727 -0.5603  0.2898 -0.1721
 4079TIP3    H233653   1.953   0.634  13.713 -0.8705 -0.4410  0.2385
 4080TIP3   OH233654   3.067   6.749   4.589 -0.0909 -0.3881 -0.2702
 4080TIP3    H133655   3.104   6.837   4.590 -1.0621  0.0432 -1.2713
 4080TIP3    H233656   3.124   6.699   4.530  0.7250 -0.5603  0.6507
 4081TIP3   OH233657   3.010   5.555  11.793  0.0882 -0.3132 -0.0160
 4081TIP3    H133658   3.101   5.557  11.766 -0.1728 -3.8409 -1.4439
 4081TIP3    H233659   2.961   5.574  11.713 -0.4903  0.8289  0.5878
 4082TIP3   OH233660   4.130   4.797  14.304  0.3747  0.0387 -0.2430
 4082TIP3    H133661   4.164   4.800  14.214  0.3398  0.7209 -0.2310
 4082TIP3    H233662   4.197   4.840  14.356  1.3109 -2.0777  0.3533
 4083TIP3   OH233663   2.082   1.806   1.887 -0.2456 -0.3133  0.2873
 4083TIP3    H133664   2.140   1.874   1.919  0.0836 -0.3739 -0.1702
 4083TIP3    H233665   2.005   1.811   1.943  0.3909 -0.5320  1.1835
 4084TIP3   OH233666   3.440   4.507  16.579 -0.1730 -0.0824  0.4359
 4084TIP3    H133667   3.477   4.435  16.529 -1.8099  0.0461 -1.0552
 4084TIP3    H233668   3.347   4.506  16.556 -0.6817  0.9232  2.3588
 4085TIP3   OH233669   6.505   3.327  10.148 -0.2431 -0.0851 -0.2185
 4085TIP3    H133670   6.514   3.412  10.105 -0.7013 -0.8536 -1.8873
 4085TIP3    H233671   6.411   3.309  10.147 -0.2492 -0.1927  0.9891
 4086TIP3   OH233672   2.548   1.687   3.046 -0.1637 -0.1473  0.1477
 4086TIP3    H133673   2.571   1.682   3.139  1.6570  3.7434 -0.0144
 4086TIP3    H233674   2.604   1.621   3.004  0.3769 -0.6143  1.5688
 4087TIP3   OH233675   3.337   6.673  11.488 -0.3898 -0.2318  0.0725
 4087TIP3    H133676   3.259   6.621  11.507 -0.7017  0.7497  1.5388
 4087TIP3    H233677   3.379   6.628  11.415  0.1677 -3.4323  2.2770
 4088TIP3   OH233678   4.171   5.360  15.572  0.1302  0.1787 -0.4753
 4088TIP3    H133679   4.110   5.287  15.581  1.3990 -0.6656  1.4922
 4088TIP3    H233680   4.184   5.393  15.661  1.5161  1.1927 -1.0228
 4089TIP3   OH233681   3.727   0.341   1.482  0.6906 -0.2510  0.1896
 4089TIP3    H133682   3.730   0.372   1.573 -0.9129  0.8487 -0.1028
 4089TIP3    H233683   3.792   0.395   1.437  0.2076  0.4770  0.3404
 4090TIP3   OH233684   3.956   0.348   3.810 -0.3312 -0.2626 -0.1719
 4090TIP3    H133685   4.049   0.371   3.810 -0.5102  0.5123 -0.6028
 4090TIP3    H233686   3.953   0.254   3.827  0.4794 -0.0910  0.9558
 4091TIP3   OH233687   4.019   1.150   2.480  0.1197  0.6782  0.3419
 4091TIP3    H133688   3.969   1.138   2.400 -1.5504  1.8075  1.1801
 4091TIP3    H233689   4.104   1.109   2.462 -1.1013 -1.3325 -1.0916
 4092TIP3   OH233690   4.491   5.900  15.091 -0.4646 -0.3297 -0.2846
 4092TIP3    H133691   4.502   5.980  15.041 -0.2323  0.5072  1.0672
 4092TIP3    H233692   4.469   5.930  15.179  2.6890 -1.6499  1.0424
 4093TIP3   OH233693   6.395   2.061  16.114  0.1349 -0.2010  0.2384
 4093TIP3    H133694   6.386   1.970  16.089 -0.2732 -0.5290  1.5214
 4093TIP3    H233695   6.434   2.104  16.038  1.4457 -1.6688  0.0542
 4094TIP3   OH233696   2.214   6.629  12.773 -0.3484 -0.3116  0.4669
 4094TIP3    H133697   2.291   6.598  12.727  0.0577  0.1458  0.8364
 4094TIP3    H233698   2.190   6.556  12.831  0.7799  0.1624  1.5480
 4095TIP3   OH233699   4.273   5.319   2.652 -0.7500  0.1357  0.0984
 4095TIP3    H133700   4.270   5.308   2.557  0.8369  0.4683 -0.0081
 4095TIP3    H233701   4.350   5.270   2.680 -1.4001 -0.2433  1.2610
 4096TIP3   OH233702   2.098   6.075   0.915 -0.3728  0.0863 -0.7503
 4096TIP3    H133703   2.044   6.152   0.935 -2.9210 -1.4427 -1.5535
 4096TIP3    H233704   2.084   6.059   0.822  0.7651 -0.9136 -0.7645
 4097TIP3   OH233705   4.869   3.874  11.791 -0.0263 -0.0464  0.0979
 4097TIP3    H133706   4.792   3.884  11.846  0.8209  1.9267  0.9940
 4097TIP3    H233707   4.920   3.805  11.833 -1.0998 -1.0533 -0.2588
 4098TIP3   OH233708   2.776   2.006   6.371 -0.0264 -0.3181  0.0098
 4098TIP3    H133709   2.694   2.055   6.362  0.2219  0.3423  1.2488
 4098TIP3    H233710   2.753   1.916   6.345 -0.5082  0.4175 -2.1742
 4099TIP3   OH233711   1.326   4.532   3.917  0.4351 -0.4236  0.6978
 4099TIP3    H133712   1.289   4.524   3.828 -0.5995  1.8979  0.8817
 4099TIP3    H233713   1.404   4.477   3.915  0.0260 -0.9980 -1.4283
 4100TIP3   OH233714   3.474   2.398   1.386 -0.3003 -0.1469  0.6165
 4100TIP3    H133715   3.425   2.401   1.303 -1.6406 -0.7786  1.3696
 4100TIP3    H233716   3.433   2.327   1.435  0.4350  0.2843  1.8649
 4101TIP3   OH233717   2.469   4.692  10.645 -0.4594 -0.3044  0.1322
 4101TIP3    H133718   2.381   4.654  10.649 -0.3686 -0.5890 -0.5170
 4101TIP3    H233719   2.470   4.744  10.565 -0.4020  0.6376  0.7311
 4102TIP3   OH233720   4.843   6.766  17.141  0.1051 -0.0972 -0.5406
 4102TIP3    H133721   4.858   6.824  17.067  0.7333  1.3739  0.7093
 4102TIP3    H233722   4.919   6.709  17.143  0.3687  0.2502 -0.6757
 4103TIP3   OH233723   0.187   3.223  12.252 -0.1644 -0.5123 -0.0373
 4103TIP3    H133724   0.227   3.138  12.271 -0.4868 -0.8544 -0.8511
 4103TIP3    H233725   0.096   3.203  12.232 -0.4267  0.1169  0.5159
 4104TIP3   OH233726   4.052   6.497   3.199  0.0941  0.3014 -0.0265
 4104TIP3    H133727   4.060   6.451   3.115 -0.5746 -1.1839  0.7120
 4104TIP3    H233728   4.122   6.460   3.253  0.2012  0.8886  0.2393
 4105TIP3   OH233729   1.271   6.741   4.083 -0.3635 -0.3850  0.0413
 4105TIP3    H133730   1.341   6.805   4.093  0.0716 -0.9285  0.5450
 4105TIP3    H233731   1.232   6.734   4.170  0.3775 -1.6706  0.2904
 4106TIP3   OH233732   2.533   3.032   3.025 -0.2395 -0.4291  0.2097
 4106TIP3    H133733   2.458   3.090   3.033  0.1741  0.2321 -0.6161
 4106TIP3    H233734   2.557   3.011   3.116  0.2082  1.4671  0.5359
 4107TIP3   OH233735   6.612   2.491   5.287  0.6405  0.1906 -0.1207
 4107TIP3    H133736   6.653   2.510   5.371  0.6098 -1.7003  0.3371
 4107TIP3    H233737   6.650   2.408   5.259 -0.9737 -0.3136 -0.9028
 4108TIP3   OH233738   1.680   3.601  11.799 -0.8397  0.2433 -0.1074
 4108TIP3    H133739   1.595   3.638  11.773 -1.8531 -1.4500  0.7631
 4108TIP3    H233740   1.708   3.654  11.873 -0.7377  1.3187 -0.8968
 4109TIP3   OH233741   3.773   1.446  13.503 -0.6295  0.3392 -0.4438
 4109TIP3    H133742   3.766   1.532  13.463  0.5713  0.2417 -0.8815
 4109TIP3    H233743   3.688   1.405  13.487 -0.7097  0.9032 -1.4758
 4110TIP3   OH233744   4.675   4.720   4.818 -0.1163  0.0476  0.1861
 4110TIP3    H133745   4.762   4.753   4.842  0.8327 -2.0656 -0.2639
 4110TIP3    H233746   4.647   4.776   4.746  0.8187  0.7967  0.4008
 4111TIP3   OH233747   5.047   5.292   0.237 -0.0262 -0.3561  0.1212
 4111TIP3    H133748   5.001   5.341   0.169 -0.3302 -1.0938 -0.2019
 4111TIP3    H233749   5.137   5.326   0.234 -0.6552  1.4631  1.1109
 4112TIP3   OH233750   1.413   3.294   3.771 -0.2258 -1.1625  0.3154
 4112TIP3    H133751   1.320   3.304   3.751  0.1646  0.3788 -0.8606
 4112TIP3    H233752   1.453   3.263   3.690  0.3354 -1.6082  0.7472
 4113TIP3   OH233753   0.848   5.033   5.441  0.3378  0.9646 -0.2099
 4113TIP3    H133754   0.756   5.047   5.465  0.7304 -0.7230  2.4411
 4113TIP3    H233755   0.898   5.062   5.517  1.6999 -2.8194  0.4572
 4114TIP3   OH233756   0.441   3.395  16.611 -0.3907 -0.3104  0.4117
 4114TIP3    H133757   0.527   3.424  16.580 -0.0035  1.2352  2.8101
 4114TIP3    H233758   0.379   3.437  16.553  0.4271 -0.1467 -0.3525
 4115TIP3   OH233759   1.194   0.800  14.588  0.4782  0.4490 -0.8236
 4115TIP3    H133760   1.194   0.788  14.683  0.1136 -0.0663 -0.8826
 4115TIP3    H233761   1.104   0.826  14.568  0.0923 -1.1647 -1.2294
 4116TIP3   OH233762   1.469   4.061  15.594  0.0863 -0.6128 -0.0479
 4116TIP3    H133763   1.517   3.984  15.623 -0.4423 -1.1109 -0.4982
 4116TIP3    H233764   1.381   4.050  15.631 -0.0702 -0.3627 -0.3428
 4117TIP3   OH233765   1.505   2.900  11.913 -0.2281  0.5509  0.1264
 4117TIP3    H133766   1.587   2.949  11.914 -0.6108  1.1515  2.1554
 4117TIP3    H233767   1.438   2.965  11.894 -0.5746  0.5894  1.4414
 4118TIP3   OH233768   3.167   2.648  16.157 -0.0700 -0.7814 -0.1746
 4118TIP3    H133769   3.228   2.580  16.131 -1.7633 -2.2681 -0.4077
 4118TIP3    H233770   3.191   2.670  16.247  0.7038 -1.4443 -0.2216
 4119TIP3   OH233771   1.977   2.752   4.289 -0.2634  0.0485 -0.4078
 4119TIP3    H133772   1.910   2.803   4.334  0.3743 -1.1047  1.8765
 4119TIP3    H233773   1.929   2.681   4.247 -0.6862  0.2852 -0.3289
 4120TIP3   OH233774   4.309   2.097  13.218  0.0430  0.6663 -0.1719
 4120TIP3    H133775   4.290   2.049  13.299  0.7640  1.4181  0.4499
 4120TIP3    H233776   4.223   2.126  13.187 -0.2050  0.6918  0.5254
 4121TIP3   OH233777   5.583   4.124   5.438  0.0673  0.6721  0.6382
 4121TIP3    H133778   5.642   4.104   5.365  0.5388  1.4327  0.8130
 4121TIP3    H233779   5.518   4.184   5.401 -0.7331 -0.3409  0.3879
 4122TIP3   OH233780   4.046   1.773   1.557 -0.3833 -0.4275 -0.8791
 4122TIP3    H133781   3.981   1.740   1.495  0.0743 -0.3170 -1.4339
 4122TIP3    H233782   4.003   1.845   1.602 -1.4164 -1.8248  0.3988
 4123TIP3   OH233783   4.264   1.461   5.678  0.1950  0.0751 -0.3045
 4123TIP3    H133784   4.215   1.379   5.671  0.6180 -0.1752 -0.4001
 4123TIP3    H233785   4.356   1.433   5.677  0.3357  0.5312 -0.0846
 4124TIP3   OH233786   5.551   2.071  14.003  0.0695  0.0988  0.3266
 4124TIP3    H133787   5.584   2.159  13.987 -1.2050  0.7170  1.0364
 4124TIP3    H233788   5.621   2.026  14.050 -0.0412  1.3350  1.6732
 4125TIP3   OH233789   0.841   0.214   2.896 -0.1424  0.2049 -1.0450
 4125TIP3    H133790   0.798   0.224   2.981 -0.8601 -0.9073 -1.2694
 4125TIP3    H233791   0.927   0.177   2.917  0.4658  1.8029 -0.6521
 4126TIP3   OH233792   6.568   2.379  16.751  0.1085  0.1159 -0.4817
 4126TIP3    H133793   6.531   2.292  16.740  0.7760 -0.2373 -0.0071
 4126TIP3    H233794   6.527   2.414  16.830  1.9500 -0.9254  0.9935
 4127TIP3   OH233795   1.296   4.485   3.647 -0.1764 -0.0903 -0.0172
 4127TIP3    H133796   1.225   4.451   3.593  0.3536  1.8724 -1.9982
 4127TIP3    H233797   1.372   4.431   3.624 -0.0746  0.4094 -0.8844
 4128TIP3   OH233798   4.795   3.067   1.219  0.6005 -0.3843 -0.1953
 4128TIP3    H133799   4.740   3.004   1.266  1.4799 -1.4196 -0.5622
 4128TIP3    H233800   4.870   3.081   1.277  0.0916  0.8623  0.1983
 4129TIP3   OH233801   3.636   3.359   1.222 -0.0850 -0.2624 -0.1919
 4129TIP3    H133802   3.612   3.335   1.311  0.4430 -1.0398 -0.2441
 4129TIP3    H233803   3.556   3.343   1.171 -0.5718  0.7823  0.2394
 4130TIP3   OH233804   1.869   2.669  10.983 -0.1950  0.3435  0.1191
 4130TIP3    H133805   1.946   2.665  11.040 -2.3399 -1.5307  3.0216
 4130TIP3    H233806   1.892   2.615  10.908  0.8621 -1.2976  1.5892
 4131TIP3   OH233807   4.685   5.960  12.847 -0.2901 -0.3884  0.4592
 4131TIP3    H133808   4.765   5.914  12.822 -1.3886 -2.4935  0.6838
 4131TIP3    H233809   4.712   6.017  12.919  0.9132 -1.4749  0.9007
 4132TIP3   OH233810   0.206   5.499   1.476  0.6018 -0.1521  0.4505
 4132TIP3    H133811   0.138   5.546   1.428 -0.0279 -0.3483  1.1550
 4132TIP3    H233812   0.168   5.482   1.562  1.5170 -0.3145  0.8265
 4133TIP3   OH233813   0.005   3.126  13.714 -0.7073 -0.2149 -0.2941
 4133TIP3    H133814   0.009   3.201  13.655  3.5485 -1.3823 -1.6529
 4133TIP3    H233815   0.051   3.154  13.793 -1.3156 -0.5724  0.1925
 4134TIP3   OH233816   3.690   4.840  13.661 -0.3163 -0.5767  0.3013
 4134TIP3    H133817   3.637   4.856  13.584  0.7899  0.6098 -0.2397
 4134TIP3    H233818   3.779   4.829  13.627 -0.2675 -3.1282  1.1234
 4135TIP3   OH233819   4.378   4.191   4.353 -0.3130  0.2243  0.3412
 4135TIP3    H133820   4.415   4.240   4.279 -2.3817  1.2613 -0.0446
 4135TIP3    H233821   4.426   4.223   4.429 -1.1124  2.3536 -0.0070
 4136TIP3   OH233822   5.810   2.937  11.980  0.1104  0.1074 -0.0791
 4136TIP3    H133823   5.897   2.950  12.018  0.8464 -0.8426 -1.4104
 4136TIP3    H233824   5.817   2.971  11.891 -0.7782 -0.3048 -0.3168
 4137TIP3   OH233825   0.158   3.498   3.647  0.5710 -0.5738 -0.3741
 4137TIP3    H133826   0.147   3.414   3.604 -2.1895 -1.1975  1.4871
 4137TIP3    H233827   0.117   3.561   3.588 -1.3536 -1.1446  0.3450
 4138TIP3   OH233828   1.674   5.713  11.073 -0.0508  0.2502 -0.2570
 4138TIP3    H133829   1.642   5.721  10.984  1.9666 -0.0564 -1.0345
 4138TIP3    H233830   1.667   5.619  11.093  0.8415  0.1034 -0.6194
 4139TIP3   OH233831   2.974   6.416  16.177  0.6084 -0.1455 -0.1280
 4139TIP3    H133832   2.945   6.325  16.174 -1.7117  0.4893  1.9644
 4139TIP3    H233833   2.933   6.456  16.101 -0.8530 -0.1806  0.6141
 4140TIP3   OH233834   4.435   0.528   5.189 -0.4167 -0.1233  0.0891
 4140TIP3    H133835   4.484   0.490   5.117 -0.0169 -0.0279  0.3134
 4140TIP3    H233836   4.495   0.527   5.264 -1.2425 -1.3795  0.7573
 4141TIP3   OH233837   4.991   3.478   5.446  0.1900  0.7047 -0.5756
 4141TIP3    H133838   4.976   3.402   5.390  2.0112 -0.7029  0.8000
 4141TIP3    H233839   5.061   3.527   5.402  0.6483  0.3330 -0.2690
 4142TIP3   OH233840   3.425   5.436  11.617  0.1452  0.0786  0.6192
 4142TIP3    H133841   3.503   5.407  11.570 -0.2961 -0.2260  0.0574
 4142TIP3    H233842   3.430   5.393  11.702  0.5843  0.0515  0.5789
 4143TIP3   OH233843   0.861   3.320  14.144  0.1412 -0.4645  0.2179
 4143TIP3    H133844   0.838   3.303  14.235  0.7035 -0.4818  0.3633
 4143TIP3    H233845   0.882   3.414  14.141 -1.7355 -0.0504 -0.3089
 4144TIP3   OH233846   3.465   6.440   5.742 -0.3423 -0.3587 -0.6333
 4144TIP3    H133847   3.470   6.421   5.836 -0.2837  1.9420 -0.1392
 4144TIP3    H233848   3.539   6.498   5.726 -0.3331 -0.7749 -2.1379
 4145TIP3   OH233849   1.430   2.158  11.308  0.4345  0.0747  0.1558
 4145TIP3    H133850   1.433   2.243  11.352  2.7644  0.2398 -0.2343
 4145TIP3    H233851   1.380   2.102  11.368 -0.2263  1.4448  0.9064
 4146TIP3   OH233852   5.078   2.746   5.937  0.1663 -0.7372  0.2469
 4146TIP3    H133853   5.167   2.780   5.950 -0.1252  0.1946 -0.1555
 4146TIP3    H233854   5.086   2.651   5.950  1.5706 -0.9008 -1.5649
 4147TIP3   OH233855   5.110   6.323   5.666 -0.1972  0.3041  0.0704
 4147TIP3    H133856   5.183   6.266   5.691 -0.3865  0.1664  0.3094
 4147TIP3    H233857   5.032   6.273   5.689 -0.3624  0.8001  0.5968
 4148TIP3   OH233858   4.004   3.319  15.056  0.5954  0.1744 -0.0967
 4148TIP3    H133859   4.017   3.396  15.111 -0.7837  0.6718 -0.4393
 4148TIP3    H233860   3.939   3.346  14.991 -0.8815 -1.6170  0.5500
 4149TIP3   OH233861   2.436   2.063  16.783  0.1480 -0.1995  0.2280
 4149TIP3    H133862   2.484   2.028  16.858  0.0716  1.6921  1.2052
 4149TIP3    H233863   2.360   2.006  16.773  0.3116 -0.6219  1.4257
 4150TIP3   OH233864   1.613   6.724  15.558  0.7393  0.0836 -0.8674
 4150TIP3    H133865   1.660   6.791  15.507 -1.2161 -0.4106 -3.4495
 4150TIP3    H233866   1.614   6.647  15.502 -1.9171 -0.3301 -0.3845
 4151TIP3   OH233867   3.811   6.215  15.302  0.7007 -0.0794 -0.2234
 4151TIP3    H133868   3.776   6.175  15.222  0.6724 -0.5457  0.0205
 4151TIP3    H233869   3.864   6.288  15.271  1.3286 -0.7385 -0.7129
 4152TIP3   OH233870   3.645   5.059   4.363 -0.2249 -0.7252  0.2506
 4152TIP3    H133871   3.612   5.148   4.352  1.0086 -0.3405 -0.4085
 4152TIP3    H233872   3.725   5.069   4.414 -0.5032 -1.5481  0.8706
 4153TIP3   OH233873   1.844   4.628   2.117  0.8208 -0.9291  0.2135
 4153TIP3    H133874   1.810   4.550   2.074 -0.2384 -0.7082  0.6266
 4153TIP3    H233875   1.766   4.681   2.136  1.3026 -0.8123  1.9627
 4154TIP3   OH233876   6.756   3.921   2.748 -0.4147 -0.1455 -0.3383
 4154TIP3    H133877   6.843   3.908   2.709 -0.1908 -1.9806  0.7053
 4154TIP3    H233878   6.773   3.935   2.841 -1.1481  1.1614 -0.3864
 4155TIP3   OH233879   5.329   0.395   3.773 -0.3735 -0.1773  0.0978
 4155TIP3    H133880   5.318   0.353   3.687 -0.5112 -0.8867  0.4572
 4155TIP3    H233881   5.410   0.359   3.807 -0.7149 -0.4769  0.5969
 4156TIP3   OH233882   3.952   6.018  13.535  0.8381 -0.1448  0.0585
 4156TIP3    H133883   4.028   6.024  13.594  0.6974 -0.3526  0.2637
 4156TIP3    H233884   3.982   5.962  13.464  0.8922 -0.1909  0.1174
 4157TIP3   OH233885   0.577   3.948  15.423  0.3490 -0.0640 -0.1427
 4157TIP3    H133886   0.594   4.013  15.491 -0.0332 -0.7890  0.6566
 4157TIP3    H233887   0.491   3.912  15.446  0.4876 -0.7335 -0.6764
 4158TIP3   OH233888   3.799   3.208   4.227 -0.5440 -0.1804  0.6821
 4158TIP3    H133889   3.739   3.157   4.282  0.1700 -0.7241  0.9591
 4158TIP3    H233890   3.823   3.149   4.156 -0.3777  0.0523  0.5453
 4159TIP3   OH233891   0.374   4.418  13.164  0.0274  0.2260  0.1184
 4159TIP3    H133892   0.302   4.439  13.104 -0.3037 -1.7776 -0.2015
 4159TIP3    H233893   0.354   4.466  13.244 -0.9466  0.7636 -0.4438
 4160TIP3   OH233894   1.239   0.672   4.111 -0.1042 -0.0345  0.4129
 4160TIP3    H133895   1.198   0.756   4.096 -1.2176 -0.3663  1.5396
 4160TIP3    H233896   1.166   0.612   4.127  0.5218 -1.6686 -2.3756
 4161TIP3   OH233897   1.538   3.186  15.824  0.6743  0.2414  0.0078
 4161TIP3    H133898   1.443   3.175  15.817  0.7927 -0.2779 -0.7907
 4161TIP3    H233899   1.550   3.235  15.905 -0.5040  3.4337 -1.6616
 4162TIP3   OH233900   4.010   2.802  11.109  0.2045  0.0341  0.1842
 4162TIP3    H133901   3.960   2.884  11.112 -2.6601 -1.6966  0.6590
 4162TIP3    H233902   4.005   2.767  11.198 -1.2961 -2.2363 -0.7620
 4163TIP3   OH233903   4.052   2.314  15.994 -0.0755 -0.2910 -0.4295
 4163TIP3    H133904   4.107   2.279  16.064  0.1653  0.2738 -0.3278
 4163TIP3    H233905   4.042   2.407  16.017 -0.6879 -0.2933 -0.6946
 4164TIP3   OH233906   4.395   0.327  13.626  0.1243  0.2243 -0.3486
 4164TIP3    H133907   4.485   0.359  13.628  0.2483 -0.1090 -0.4736
 4164TIP3    H233908   4.376   0.302  13.716  0.7868 -1.4164 -0.6547
 4165TIP3   OH233909   4.442   5.312   3.046 -0.1972 -1.1450  0.3335
 4165TIP3    H133910   4.488   5.371   2.987 -2.2546  0.2368  0.0506
 4165TIP3    H233911   4.388   5.258   2.988 -1.6570 -0.2935  0.8684
 4166TIP3   OH233912   1.533   0.470  14.944  0.6067 -0.2850  0.2452
 4166TIP3    H133913   1.550   0.478  15.038 -0.3971 -1.0748  0.5114
 4166TIP3    H233914   1.614   0.436  14.908  1.1435  0.4209  0.7600
 4167TIP3   OH233915   5.672   2.920   3.915 -0.1260  0.0638  0.0776
 4167TIP3    H133916   5.585   2.898   3.946  0.4284  0.4670  2.0081
 4167TIP3    H233917   5.675   3.016   3.917  0.3043  0.0562 -0.0907
 4168TIP3   OH233918   0.265   5.768  13.100  0.1691  0.3556 -0.2226
 4168TIP3    H133919   0.360   5.757  13.088  0.1812  0.1483  0.0655
 4168TIP3    H233920   0.233   5.789  13.012  0.5558  0.9658 -0.2234
 4169TIP3   OH233921   4.070   0.781  17.224 -0.1432 -0.2631 -0.4015
 4169TIP3    H133922   3.998   0.826  17.269  2.2650  0.9390  2.4055
 4169TIP3    H233923   4.089   0.705  17.279  0.6159 -0.6555 -1.2001
 4170TIP3   OH233924   2.284   3.382   1.127  0.0897  0.3550 -0.0088
 4170TIP3    H133925   2.220   3.453   1.117  0.1277  0.3182 -0.5496
 4170TIP3    H233926   2.238   3.304   1.095  0.3603  0.3069 -0.2797
 4171TIP3   OH233927   4.204   3.385  15.992 -0.1361 -0.4235 -0.4593
 4171TIP3    H133928   4.242   3.307  15.953  1.8581  0.6732 -0.8025
 4171TIP3    H233929   4.194   3.446  15.919  0.9603  0.6220  0.2324
 4172TIP3   OH233930   3.400   0.784  16.819 -0.0126 -0.0268  0.8046
 4172TIP3    H133931   3.494   0.801  16.822  0.3123 -1.7902  0.8406
 4172TIP3    H233932   3.369   0.834  16.743  1.6670 -2.7258 -1.7736
 4173TIP3   OH233933   0.498   6.143  12.977  0.5364 -0.8464  0.4136
 4173TIP3    H133934   0.449   6.077  12.927  3.2028 -2.0700 -0.6489
 4173TIP3    H233935   0.546   6.193  12.911 -0.0860  1.0445  1.3574
 4174TIP3   OH233936   4.996   4.921   1.294 -0.0912  0.3089 -0.3465
 4174TIP3    H133937   5.031   4.838   1.326 -1.4675  0.0562  0.5544
 4174TIP3    H233938   4.955   4.960   1.370 -1.0741  0.9567 -1.1967
 4175TIP3   OH233939   3.325   2.972  12.118  0.2180 -0.0260  0.1949
 4175TIP3    H133940   3.367   3.040  12.172 -1.1980  0.5743  0.5665
 4175TIP3    H233941   3.387   2.958  12.046  2.0626 -0.7084  1.8427
 4176TIP3   OH233942   3.715   6.686  12.400 -0.4495  0.1051  0.2827
 4176TIP3    H133943   3.769   6.764  12.392  0.5157 -0.7787 -2.0606
 4176TIP3    H233944   3.772   6.613  12.377 -1.9500 -1.0889  0.1995
 4177TIP3   OH233945   6.126   2.370   5.649  0.0116 -1.2584  0.3425
 4177TIP3    H133946   6.173   2.336   5.573 -0.9271  1.2176 -1.3925
 4177TIP3    H233947   6.038   2.390   5.616 -0.0942  0.8206  1.7900
 4178TIP3   OH233948   0.518   0.602   5.456  0.3247  0.3159  0.5494
 4178TIP3    H133949   0.426   0.592   5.480  0.5229  1.4310  1.8006
 4178TIP3    H233950   0.567   0.583   5.536  1.2823 -1.7629 -0.4685
 4179TIP3   OH233951   2.396   6.685   4.339  0.3243 -0.1130  0.0573
 4179TIP3    H133952   2.389   6.617   4.271 -1.6876  1.3493 -1.2422
 4179TIP3    H233953   2.485   6.720   4.328  1.2330 -2.2013  0.4593
 4180TIP3   OH233954   0.524   4.001   1.707 -0.5191 -0.7114  0.3824
 4180TIP3    H133955   0.532   4.016   1.613 -0.0275 -0.2280  0.5008
 4180TIP3    H233956   0.525   4.088   1.746  2.3141 -1.0098  1.0822
 4181TIP3   OH233957   5.507   1.344  11.819  0.2710  0.0006 -0.0649
 4181TIP3    H133958   5.444   1.410  11.788  0.0361  0.9375  2.3158
 4181TIP3    H233959   5.592   1.390  11.818  0.3461 -0.1342  0.1629
 4182TIP3   OH233960   0.081   6.708   3.006  0.1495 -0.7582  0.5343
 4182TIP3    H133961   0.141   6.638   2.982  1.4322 -0.1520  1.8387
 4182TIP3    H233962   0.125   6.788   2.978  0.1993 -0.2755  1.9172
 4183TIP3   OH233963   2.702   0.034   4.483  0.8558 -0.1961  0.4672
 4183TIP3    H133964   2.691   0.061   4.574 -1.7360 -0.0739  0.1482
 4183TIP3    H233965   2.681   0.112   4.432  0.0408 -0.8996 -0.2862
 4184TIP3   OH233966   2.293   2.199  11.318  0.2716 -0.3385  0.7890
 4184TIP3    H133967   2.345   2.254  11.260  0.8449 -1.7125 -0.0122
 4184TIP3    H233968   2.215   2.177  11.267  0.2255 -0.5869  0.9623
 4185TIP3   OH233969   6.573   1.851   4.275 -0.1881  0.2697  0.6980
 4185TIP3    H133970   6.519   1.857   4.196  0.9766 -0.2795 -0.1526
 4185TIP3    H233971   6.569   1.939   4.313 -1.3342  0.3510  0.4240
 4186TIP3   OH233972   5.096   6.328  16.856  0.1021  0.1206 -0.1923
 4186TIP3    H133973   5.036   6.378  16.801  0.8006 -0.8141 -1.8428
 4186TIP3    H233974   5.171   6.386  16.868  0.6216 -0.2560 -1.5406
 4187TIP3   OH233975   6.428   4.089   4.933 -0.8255  0.0301  0.0160
 4187TIP3    H133976   6.409   4.182   4.921  1.2187  0.4506 -0.1016
 4187TIP3    H233977   6.443   4.080   5.027  1.7709  0.3771 -0.3498
 4188TIP3   OH233978   2.092   3.575  17.081  0.1006 -0.1574 -0.4006
 4188TIP3    H133979   2.016   3.550  17.133 -1.5799  2.2085 -1.6223
 4188TIP3    H233980   2.166   3.534  17.126 -1.8605 -2.5282  0.8070
 4189TIP3   OH233981   5.066   2.943   5.249  0.5286 -0.4396  0.4550
 4189TIP3    H133982   5.140   2.926   5.307  2.0346 -0.1052 -1.3200
 4189TIP3    H233983   5.096   3.014   5.192 -1.8617  1.0065  0.9337
 4190TIP3   OH233984   4.613   3.829  17.092  0.0377  0.2132 -0.0226
 4190TIP3    H133985   4.591   3.737  17.101 -1.4112  0.6725  1.3265
 4190TIP3    H233986   4.557   3.860  17.021 -0.3158  0.3106  0.2972
 4191TIP3   OH233987   5.335   2.701  14.338  0.1891 -0.9473  0.3738
 4191TIP3    H133988   5.274   2.729  14.405 -1.8341  0.4633 -1.9836
 4191TIP3    H233989   5.397   2.773  14.329 -1.4088  0.2495 -1.4211
 4192TIP3   OH233990   3.720   3.584  12.036  0.1547  0.0906 -0.5341
 4192TIP3    H133991   3.731   3.559  11.945  1.8695 -0.1787 -0.2732
 4192TIP3    H233992   3.747   3.675  12.040 -0.4501  0.2703 -0.3846
 4193TIP3   OH233993   5.778   3.876  11.577  0.7361 -0.6175 -0.4098
 4193TIP3    H133994   5.746   3.932  11.647 -0.7700 -1.3114 -0.5280
 4193TIP3    H233995   5.733   3.906  11.498  3.7919  1.3863 -1.5198
 4194TIP3   OH233996   3.849   0.761   3.843  0.1512  0.3280  0.0874
 4194TIP3    H133997   3.936   0.731   3.814  0.0396 -1.9969  1.9332
 4194TIP3    H233998   3.788   0.725   3.779  0.0111 -3.8056  2.3133
 4195TIP3   OH233999   4.163   1.099   3.879 -0.0699  0.3930 -1.0897
 4195TIP3    H134000   4.130   1.116   3.968  0.2610 -0.7581 -0.7392
 4195TIP3    H234001   4.151   1.182   3.833  0.2341  1.1586  0.1829
 4196TIP3   OH234002   1.370   1.936   6.440  0.1950  0.8201  0.2786
 4196TIP3    H134003   1.320   1.897   6.512  0.1388  0.8296  0.2451
 4196TIP3    H234004   1.308   1.994   6.397 -0.0456  0.1038 -0.3439
 4197TIP3   OH234005   4.347   1.548  15.303 -0.2877  0.0805 -0.0449
 4197TIP3    H134006   4.265   1.504  15.325 -0.8148  0.6846 -0.7669
 4197TIP3    H234007   4.348   1.551  15.207 -0.4645  1.9744 -0.0086
 4198TIP3   OH234008   4.308   4.894  16.843  0.0421  0.4225 -0.1361
 4198TIP3    H134009   4.262   4.961  16.894 -0.2069  0.3238 -0.2360
 4198TIP3    H234010   4.401   4.911  16.861 -0.1072 -1.0638  2.1749
 4199TIP3   OH234011   6.140   6.023  12.668 -0.0781  0.2358  0.0598
 4199TIP3    H134012   6.092   6.071  12.600 -0.4522  0.7855  0.7111
 4199TIP3    H234013   6.190   6.091  12.715  1.8401 -0.3917 -1.0074
 4200TIP3   OH234014   3.908   6.156   2.861  0.0641  0.6488  0.4359
 4200TIP3    H134015   3.882   6.200   2.779 -0.6699 -0.1708  0.2277
 4200TIP3    H234016   4.000   6.132   2.847 -0.0836  0.4408 -0.1726
 4201TIP3   OH234017   2.276   2.509  10.716 -0.2085 -0.5178  0.0430
 4201TIP3    H134018   2.328   2.583  10.747 -0.9166 -0.5960  1.4277
 4201TIP3    H234019   2.267   2.524  10.622  1.9006 -0.2472 -0.1561
 4202TIP3   OH234020   5.728   1.562   0.626 -0.3401  0.6459 -0.8080
 4202TIP3    H134021   5.792   1.499   0.594 -0.4578  0.9493 -1.6619
 4202TIP3    H234022   5.644   1.530   0.594 -0.7243 -0.1913  0.9975
 4203TIP3   OH234023   6.554   4.793  16.421 -0.1314  0.4535  0.2356
 4203TIP3    H134024   6.564   4.871  16.367 -2.1950 -0.0934 -1.0250
 4203TIP3    H234025   6.504   4.822  16.497 -1.2098  0.3195 -0.4071
 4204TIP3   OH234026   6.413   4.413  12.505  0.7428  0.6997 -0.2433
 4204TIP3    H134027   6.350   4.449  12.567 -0.0297  1.0288 -1.1872
 4204TIP3    H234028   6.493   4.398  12.556  1.0572  3.6433  0.2199
 4205TIP3   OH234029   6.073   4.174   1.577 -0.0059 -0.6105 -0.5062
 4205TIP3    H134030   6.147   4.122   1.544  0.9776 -1.0954  2.3166
 4205TIP3    H234031   5.996   4.121   1.558  0.7404 -1.8382 -0.1644
 4206TIP3   OH234032   5.600   6.422  13.381 -0.2829  0.3818  0.0500
 4206TIP3    H134033   5.613   6.332  13.410  0.7703  0.1592 -1.1070
 4206TIP3    H234034   5.631   6.475  13.455 -0.0589 -0.1965  0.3761
 4207TIP3   OH234035   0.569   1.625  16.585  0.2516 -0.3435  0.3152
 4207TIP3    H134036   0.652   1.577  16.590  0.8332  0.7471  1.2928
 4207TIP3    H234037   0.503   1.561  16.613  0.5069 -1.7994 -2.3073
 4208TIP3   OH234038   4.107   3.793   1.203 -0.4304 -0.2766 -0.3005
 4208TIP3    H134039   4.133   3.705   1.176  1.6400  0.8992 -2.3428
 4208TIP3    H234040   4.014   3.786   1.222 -0.2570 -2.9341 -0.2626
 4209TIP3   OH234041   5.577   5.977   4.099 -0.8254  0.0088  0.3503
 4209TIP3    H134042   5.572   6.039   4.172 -0.4438 -0.0304  0.4148
 4209TIP3    H234043   5.556   5.892   4.138 -3.5780  0.4014 -0.1886
 4210TIP3   OH234044   5.418   1.029  12.787 -0.5572  0.0195  0.2912
 4210TIP3    H134045   5.484   0.971  12.750 -0.6749  1.2755 -1.9766
 4210TIP3    H234046   5.335   0.990  12.763 -0.6677 -0.4835  1.4263
 4211TIP3   OH234047   2.242   3.156  16.263 -0.2930  0.4622  0.7053
 4211TIP3    H134048   2.258   3.250  16.258 -2.2943  0.8503  1.1038
 4211TIP3    H234049   2.294   3.119  16.191 -0.3608  1.9791 -0.1537
 4212TIP3   OH234050   0.300   0.523   4.522  0.2864  0.5592 -0.2941
 4212TIP3    H134051   0.302   0.618   4.530 -0.1325  0.6706 -1.3984
 4212TIP3    H234052   0.326   0.506   4.432  3.1168 -0.5313  0.6543
 4213TIP3   OH234053   2.264   0.477   3.768 -0.2594 -0.5098 -0.3336
 4213TIP3    H134054   2.253   0.469   3.863 -0.0375 -0.6081 -0.3165
 4213TIP3    H234055   2.358   0.469   3.754 -0.0044  2.1381 -0.3012
 4214TIP3   OH234056   3.155   1.088   0.870 -0.2000 -0.1206  0.4462
 4214TIP3    H134057   3.170   1.172   0.829 -1.4642 -0.1297 -0.0544
 4214TIP3    H234058   3.070   1.097   0.914 -0.2373 -1.0551  0.5868
 4215TIP3   OH234059   3.254   5.908  11.708 -0.0297  0.9799 -0.0312
 4215TIP3    H134060   3.339   5.933  11.672  0.8376 -0.1207  1.2029
 4215TIP3    H234061   3.250   5.812  11.698 -0.7125  0.9102  0.7831
 4216TIP3   OH234062   3.458   0.508   6.097 -0.4873  0.1070 -0.1680
 4216TIP3    H134063   3.466   0.561   6.017  2.1578 -1.1217 -0.7494
 4216TIP3    H234064   3.439   0.420   6.065 -3.3140  0.3336  0.7451
 4217TIP3   OH234065   5.492   4.827  12.275  0.7125 -0.4757  0.0814
 4217TIP3    H134066   5.486   4.810  12.369 -0.1346 -0.4190  0.0440
 4217TIP3    H234067   5.503   4.922  12.268  1.0087 -0.5078  0.1367
 4218TIP3   OH234068   1.990   3.584   4.100  0.2208  0.0753  0.0796
 4218TIP3    H134069   1.923   3.578   4.032  0.3011 -0.7120  0.0669
 4218TIP3    H234070   1.968   3.663   4.149 -1.0654 -0.4991  0.4465
 4219TIP3   OH234071   1.907   2.080   0.404  0.0352  0.1281 -0.0684
 4219TIP3    H134072   1.944   2.157   0.360 -0.6419 -0.1806 -1.1919
 4219TIP3    H234073   1.857   2.117   0.478 -0.9420  0.8402 -1.0558
 4220TIP3   OH234074   3.909   1.919  11.816  0.0138  0.0249 -0.3795
 4220TIP3    H134075   3.946   1.840  11.777  0.4686  0.2795 -0.4583
 4220TIP3    H234076   3.924   1.987  11.752 -1.8603 -0.1508 -1.0357
 4221TIP3   OH234077   3.710   5.828   2.524 -0.2145 -0.2572  0.5208
 4221TIP3    H134078   3.765   5.896   2.484 -1.1423 -0.2528 -0.7827
 4221TIP3    H234079   3.709   5.850   2.617  0.4419  0.8519  0.2782
 4222TIP3   OH234080   5.550   2.755   3.689  0.4738 -0.2434 -0.2932
 4222TIP3    H134081   5.597   2.822   3.739  0.3734  0.7665 -1.5107
 4222TIP3    H234082   5.524   2.690   3.754  0.4605  0.9614  0.9287
 4223TIP3   OH234083   4.263   3.881   0.831 -0.6438  0.2672  0.6214
 4223TIP3    H134084   4.184   3.904   0.783 -0.3599  0.6705  0.3394
 4223TIP3    H234085   4.315   3.830   0.769 -0.3309  0.6826  0.5410
 4224TIP3   OH234086   1.370   5.931   0.857  0.9009 -0.2500  0.7032
 4224TIP3    H134087   1.364   5.923   0.762  2.9023 -0.9003  0.6160
 4224TIP3    H234088   1.463   5.947   0.874  0.6064 -0.4432  2.5703
 4225TIP3   OH234089   1.400   1.024  13.051 -0.1175 -0.4701 -0.3079
 4225TIP3    H134090   1.435   1.052  12.967  0.4125 -0.2445 -0.0144
 4225TIP3    H234091   1.457   0.953  13.080  0.8332  0.6975  0.7289
 4226TIP3   OH234092   5.408   1.095   3.419  0.6983  0.2495  0.2242
 4226TIP3    H134093   5.419   1.004   3.389 -0.6248  0.6016 -1.4125
 4226TIP3    H234094   5.334   1.091   3.481  0.7867  0.1808  0.3260
 4227TIP3   OH234095   2.143   0.068  11.393 -0.1663 -0.1175  0.0695
 4227TIP3    H134096   2.228   0.026  11.379 -0.3988 -1.2638  1.9162
 4227TIP3    H234097   2.079  -0.002  11.380 -0.6389 -0.0390  1.7854
 4228TIP3   OH234098   2.898   2.225  15.748  0.6098 -0.2921 -0.1292
 4228TIP3    H134099   2.823   2.279  15.723  2.1473  1.3039 -1.3148
 4228TIP3    H234100   2.914   2.247  15.840  0.2035  0.0429 -0.1388
 4229TIP3   OH234101   1.821   4.451  11.079  0.0489 -0.6433 -0.3315
 4229TIP3    H134102   1.830   4.416  11.168  1.2077  0.3519 -0.0534
 4229TIP3    H234103   1.787   4.377  11.028 -0.4523 -1.2790  0.8873
 4230TIP3   OH234104   0.644   4.091  16.124  0.5163 -0.4954 -0.4198
 4230TIP3    H134105   0.686   4.100  16.039  0.7042  1.3264 -0.1634
 4230TIP3    H234106   0.716   4.086  16.187  0.4281  2.2216 -0.0193
 4231TIP3   OH234107   3.193   1.029   2.467 -0.1966 -0.2880 -1.0652
 4231TIP3    H134108   3.122   1.083   2.502  1.2534  0.5300  0.7012
 4231TIP3    H234109   3.199   1.053   2.375 -1.4179  0.4972 -0.9448
 4232TIP3   OH234110   3.708   3.169  13.272  0.7312 -0.1304 -0.6905
 4232TIP3    H134111   3.727   3.217  13.353 -1.0326  0.7765 -0.7794
 4232TIP3    H234112   3.734   3.079  13.291 -0.9018 -0.2202  1.4099
 4233TIP3   OH234113   2.518   4.451   2.685  0.1733 -0.0432 -0.3426
 4233TIP3    H134114   2.527   4.533   2.733  0.7586 -0.1953 -0.1987
 4233TIP3    H234115   2.588   4.453   2.620  0.4884 -0.6516 -0.0259
 4234TIP3   OH234116   0.194   4.773   5.406  0.3537 -0.2272  0.3754
 4234TIP3    H134117   0.260   4.720   5.363 -0.1391  0.6509 -1.5590
 4234TIP3    H234118   0.113   4.753   5.359  0.5686  3.8747 -2.0213
 4235TIP3   OH234119   5.417   6.012  15.064 -0.1743  0.1186  0.5152
 4235TIP3    H134120   5.509   6.024  15.090 -0.2261  0.6031  0.4735
 4235TIP3    H234121   5.421   5.995  14.970  0.1660 -3.4539  1.1248
 4236TIP3   OH234122   5.060   3.715  11.009  0.1506  0.0669  0.1911
 4236TIP3    H134123   5.020   3.666  11.081  0.1534  0.2602  0.3270
 4236TIP3    H234124   5.010   3.692  10.932  1.5309 -1.8824 -0.1586
 4237TIP3   OH234125   4.667   4.598   0.334  0.3239 -0.1575  0.4452
 4237TIP3    H134126   4.712   4.668   0.381  1.6384 -0.9715  0.3970
 4237TIP3    H234127   4.729   4.570   0.266 -0.1166 -1.5027  0.5881
 4238TIP3   OH234128   6.604   3.235   3.684 -0.1179 -0.2308 -0.7073
 4238TIP3    H134129   6.653   3.158   3.714 -0.1318  0.1356  0.3010
 4238TIP3    H234130   6.571   3.211   3.598 -1.4202 -1.9424  0.2348
 4239TIP3   OH234131   6.539   5.759   0.726 -0.4108  0.5531  0.1376
 4239TIP3    H134132   6.606   5.821   0.696 -0.9213  1.3043  0.5347
 4239TIP3    H234133   6.555   5.751   0.820 -0.2392 -0.0554  0.0588
 4240TIP3   OH234134   6.599   6.223  14.308  0.3378  0.1459  0.0118
 4240TIP3    H134135   6.691   6.229  14.333  0.7527 -0.7685 -1.2804
 4240TIP3    H234136   6.600   6.186  14.220 -1.3167 -0.8891  0.4119
 4241TIP3   OH234137   2.279   1.919   0.173 -0.3750 -0.0224 -0.4774
 4241TIP3    H134138   2.332   1.979   0.120 -0.0912  0.7525  0.6609
 4241TIP3    H234139   2.200   1.904   0.121  0.8302 -0.9699 -2.0708
 4242TIP3   OH234140   5.017   1.396   3.560 -0.2852 -0.2631  0.1991
 4242TIP3    H134141   4.971   1.318   3.529 -1.7805  0.8904 -0.5539
 4242TIP3    H234142   4.954   1.441   3.616  0.5804  0.4025  0.6639
 4243TIP3   OH234143   5.680   6.295  15.439  0.6458  0.6301 -0.1604
 4243TIP3    H134144   5.694   6.248  15.521 -0.4511 -1.3012 -1.0523
 4243TIP3    H234145   5.758   6.275  15.386 -0.4476 -1.3848 -1.0680
 4244TIP3   OH234146   2.661   6.093   4.683 -0.4820 -0.3362  0.2023
 4244TIP3    H134147   2.637   6.179   4.646  1.1023  0.2580  0.5414
 4244TIP3    H234148   2.644   6.031   4.612 -1.6714  0.2361 -0.0372
 4245TIP3   OH234149   0.600   5.223  15.390 -0.1764  0.1250 -0.1259
 4245TIP3    H134150   0.544   5.160  15.345 -1.3433  2.0095 -1.3971
 4245TIP3    H234151   0.540   5.290  15.423  0.9950  0.4174  1.5062
 4246TIP3   OH234152   0.612   4.746   6.239  0.1232 -0.1683 -0.1350
 4246TIP3    H134153   0.616   4.841   6.226  2.3769 -0.0673  0.9805
 4246TIP3    H234154   0.576   4.735   6.326 -1.4662 -0.3954 -0.8125
 4247TIP3   OH234155   0.987   5.153   3.309  0.1647 -0.4865 -0.5394
 4247TIP3    H134156   0.968   5.062   3.335  0.7540 -0.7930 -1.1936
 4247TIP3    H234157   0.915   5.176   3.250  0.6543 -0.9316 -1.3175
 4248TIP3   OH234158   2.958   2.316   4.452 -0.5719  0.4518 -0.2793
 4248TIP3    H134159   2.991   2.370   4.525 -1.3601  1.2138 -0.4846
 4248TIP3    H234160   3.030   2.255   4.433 -0.0745  0.7427  0.6423
 4249TIP3   OH234161   3.718   4.553   3.229 -0.3102  0.3612  0.0856
 4249TIP3    H134162   3.786   4.572   3.164 -1.1707 -0.8364 -1.1968
 4249TIP3    H234163   3.712   4.633   3.281 -0.5515  1.8801 -2.1884
 4250TIP3   OH234164   1.467   3.784   4.428 -0.4876  0.0941  0.3124
 4250TIP3    H134165   1.408   3.783   4.353 -1.2943 -0.7169  0.9499
 4250TIP3    H234166   1.426   3.844   4.490 -0.4128 -0.1312  0.5789
 4251TIP3   OH234167   2.558   4.030   2.245  0.4596 -0.3210 -0.8125
 4251TIP3    H134168   2.595   4.061   2.327  0.5101  0.8840 -1.2850
 4251TIP3    H234169   2.499   3.959   2.271  0.2414  0.2521  0.2836
 4252TIP3   OH234170   5.202   5.640  10.628 -0.3299  0.4669 -0.3188
 4252TIP3    H134171   5.282   5.663  10.675 -1.1094  0.5085  1.0039
 4252TIP3    H234172   5.134   5.697  10.666 -0.8838  0.8131 -1.7938
 4253TIP3   OH234173   4.078   1.436   1.407  0.0093  0.1640  0.3133
 4253TIP3    H134174   4.093   1.512   1.463 -0.2735 -0.7233  1.6152
 4253TIP3    H234175   4.161   1.423   1.361 -0.0578  1.4794 -0.2176
 4254TIP3   OH234176   3.129   0.002  11.816 -0.4272 -0.2862 -0.0489
 4254TIP3    H134177   3.083  -0.068  11.862 -0.3799  1.1045  2.1831
 4254TIP3    H234178   3.090   0.083  11.850 -0.5661  0.7977 -2.6744
 4255TIP3   OH234179   4.438   4.686   2.556 -0.2150  0.4243  0.0944
 4255TIP3    H134180   4.474   4.673   2.468 -1.1487 -1.4963 -0.0073
 4255TIP3    H234181   4.471   4.612   2.607  1.3594  2.1815  1.7315
 4256TIP3   OH234182   5.428   3.648   0.484 -0.3264  0.0419  0.5841
 4256TIP3    H134183   5.341   3.608   0.487  0.1835 -1.4116 -2.3990
 4256TIP3    H234184   5.447   3.657   0.390  3.4993 -1.3716  1.1546
 4257TIP3   OH234185   0.428   1.449  11.706 -0.0387  0.2768  0.7415
 4257TIP3    H134186   0.446   1.354  11.708  2.4207  0.7061  0.7273
 4257TIP3    H234187   0.343   1.458  11.749 -0.3770 -1.9642  0.6009
 4258TIP3   OH234188   4.552   4.742   3.309  0.8823 -0.7731 -0.5092
 4258TIP3    H134189   4.532   4.786   3.226  1.1645  1.2591  0.4657
 4258TIP3    H234190   4.524   4.803   3.376 -3.8131 -4.3563  1.0818
 4259TIP3   OH234191   5.665   6.021  13.658 -0.2045 -0.2917  0.2022
 4259TIP3    H134192   5.589   5.964  13.671 -0.0496 -0.4822  0.2707
 4259TIP3    H234193   5.725   5.998  13.729  0.6166 -1.2993 -0.7945
 4260TIP3   OH234194   5.890   6.494   1.672 -0.2613 -0.1761 -0.3929
 4260TIP3    H134195   5.851   6.464   1.590  0.4760 -1.7731 -0.1736
 4260TIP3    H234196   5.934   6.417   1.708  1.3038  1.0538  0.4179
 4261TIP3   OH234197   3.252   1.445  10.715 -0.2721 -0.5121  0.4954
 4261TIP3    H134198   3.181   1.475  10.772 -1.2802 -1.1216 -0.4254
 4261TIP3    H234199   3.288   1.525  10.678 -0.0297 -0.1528  1.4927
 4262TIP3   OH234200   2.061   2.773   3.332  0.0720 -0.4811 -0.4915
 4262TIP3    H134201   2.109   2.706   3.381 -1.4287 -1.2729 -0.0657
 4262TIP3    H234202   1.985   2.726   3.297 -0.8165  0.9350 -0.4799
 4263TIP3   OH234203   1.235   3.529  13.255 -0.2761  0.3915  0.2227
 4263TIP3    H134204   1.291   3.453  13.243  0.8826  1.3771 -0.9161
 4263TIP3    H234205   1.149   3.501  13.223  0.4796 -0.0261 -1.5376
 4264TIP3   OH234206   6.452   6.647   4.560 -0.1271 -0.3766  0.0780
 4264TIP3    H134207   6.382   6.693   4.607  0.0047 -0.3354  0.2330
 4264TIP3    H234208   6.503   6.716   4.519 -0.5876 -0.4426 -0.6149
 4265TIP3   OH234209   4.552   3.620  11.735  0.7405 -0.1536  0.0807
 4265TIP3    H134210   4.508   3.702  11.757  1.1496 -0.1621  0.9641
 4265TIP3    H234211   4.625   3.615  11.797  1.4860 -0.5490 -0.8202
 4266TIP3   OH234212   0.895   5.024  13.638 -0.0895 -0.2643  0.7502
 4266TIP3    H134213   0.876   4.941  13.680 -2.4741  0.2264  0.7077
 4266TIP3    H234214   0.895   5.005  13.544 -0.4427 -0.2714  0.7498
 4267TIP3   OH234215   2.679   4.418  14.994 -0.3165  0.3762  0.6783
 4267TIP3    H134216   2.635   4.490  14.949  0.3365  0.6995  0.5573
 4267TIP3    H234217   2.733   4.377  14.926 -2.2275 -1.4981  0.2373
 4268TIP3   OH234218   3.284   0.397   2.518 -0.3786  0.0779  0.0834
 4268TIP3    H134219   3.354   0.462   2.517  0.4301 -0.7991 -1.3557
 4268TIP3    H234220   3.227   0.422   2.446 -0.3426 -0.4940 -0.1461
 4269TIP3   OH234221   6.755   1.979  10.868  0.0826 -0.3819 -0.9176
 4269TIP3    H134222   6.784   2.053  10.922  1.7576  0.5327 -3.0101
 4269TIP3    H234223   6.719   2.020  10.790  2.1838 -1.7648 -2.6647
 4270TIP3   OH234224   3.911   5.212  11.386  0.1423 -0.1791  0.5303
 4270TIP3    H134225   3.975   5.210  11.315  1.9516 -0.1689  2.1137
 4270TIP3    H234226   3.893   5.120  11.405  0.4250 -0.1966  0.7204
 4271TIP3   OH234227   5.392   3.527  12.620 -0.4446  0.3313  0.0103
 4271TIP3    H134228   5.399   3.448  12.674 -0.9696  0.3603  0.1191
 4271TIP3    H234229   5.360   3.495  12.535  0.2593  0.3029 -0.2520
 4272TIP3   OH234230   2.675   0.567  10.506  0.0909  0.0226 -0.2480
 4272TIP3    H134231   2.639   0.644  10.462  0.4537  0.8397  0.8778
 4272TIP3    H234232   2.623   0.494  10.471 -1.7549  1.0228  0.3087
 4273TIP3   OH234233   1.865   2.563  16.286  0.2333 -0.3626 -0.9763
 4273TIP3    H134234   1.879   2.650  16.249 -2.8317  1.1476  1.2268
 4273TIP3    H234235   1.943   2.546  16.338 -0.1120  2.0839  0.4044
 4274TIP3   OH234236   1.112   3.982  13.570 -0.0937 -0.1539  0.0446
 4274TIP3    H134237   1.164   3.949  13.496  1.0080  1.7898 -0.0714
 4274TIP3    H234238   1.172   3.979  13.644 -1.3766 -2.6748  1.0559
 4275TIP3   OH234239   6.320   1.745   5.641 -0.0316 -0.1892 -0.1743
 4275TIP3    H134240   6.246   1.706   5.595  0.7484 -2.5121  0.5105
 4275TIP3    H234241   6.291   1.751   5.733 -0.9923  2.9998 -0.5972
 4276TIP3   OH234242   6.131   2.325  15.746  0.3964 -0.1521  0.6105
 4276TIP3    H134243   6.072   2.350  15.675  1.0113 -1.1843 -0.2826
 4276TIP3    H234244   6.074   2.294  15.816 -0.1313 -1.2566 -0.2905
 4277TIP3   OH234245   0.381   6.191  14.533 -0.5955  0.4224  0.8564
 4277TIP3    H134246   0.374   6.275  14.489  0.7541  0.0887 -0.0384
 4277TIP3    H234247   0.475   6.177  14.542 -0.7708 -1.5854 -0.1652
 4278TIP3   OH234248   0.992   6.038   5.511  0.1404  0.2287  0.1074
 4278TIP3    H134249   1.041   6.088   5.575 -0.2124  0.2500  0.3648
 4278TIP3    H234250   1.023   5.948   5.521  0.9593  0.4331 -0.5327
 4279TIP3   OH234251   6.366   5.390  13.461 -0.8410  0.1763 -0.2158
 4279TIP3    H134252   6.289   5.443  13.481 -0.3949  1.0676 -0.8684
 4279TIP3    H234253   6.434   5.453  13.438  0.3554 -0.5547  1.2216
 4280TIP3   OH234254   6.602   6.489   1.341 -0.2840 -0.2487 -0.0728
 4280TIP3    H134255   6.599   6.556   1.273  0.1541 -0.5247 -0.3720
 4280TIP3    H234256   6.597   6.406   1.293 -0.7443 -0.4366  0.2866
 4281TIP3   OH234257   2.764   1.196   4.778  0.4681 -0.0566  0.4739
 4281TIP3    H134258   2.847   1.236   4.752  0.2627  0.5019  0.6780
 4281TIP3    H234259   2.782   1.159   4.865  0.2763  0.7612  0.8623
 4282TIP3   OH234260   3.603   5.290   0.858  0.0251 -0.4550 -0.4025
 4282TIP3    H134261   3.685   5.269   0.813  0.7160  0.8928  0.1967
 4282TIP3    H234262   3.564   5.360   0.806  0.4390  0.5651  0.6587
 4283TIP3   OH234263   6.502   3.686  16.608  0.0814  0.1720 -0.1465
 4283TIP3    H134264   6.453   3.648  16.535  0.2356 -0.6809  0.1821
 4283TIP3    H234265   6.458   3.653  16.686  0.3823  0.4563  0.1444
 4284TIP3   OH234266   2.959   0.376   0.058 -0.2888  0.1011 -0.6463
 4284TIP3    H134267   2.972   0.471   0.056  1.9742 -0.1813 -1.2090
 4284TIP3    H234268   3.047   0.341   0.071 -1.2218 -1.9036  0.4540
 4285TIP3   OH234269   0.145   6.310   6.353  0.4807  0.1703  0.3197
 4285TIP3    H134270   0.084   6.244   6.319  1.9416 -1.0302 -0.0413
 4285TIP3    H234271   0.092   6.363   6.413 -1.7583  1.2696 -2.4834
 4286TIP3   OH234272   2.326   1.830   2.971  0.1708  0.0041 -0.0526
 4286TIP3    H134273   2.404   1.780   2.994 -0.1774 -0.2166  0.6495
 4286TIP3    H234274   2.262   1.765   2.945 -0.4884  0.0356  1.4662
 4287TIP3   OH234275   1.009   3.852  15.786 -0.2441 -0.1320  0.1731
 4287TIP3    H134276   0.916   3.840  15.767 -0.5140 -1.2012  1.9854
 4287TIP3    H234277   1.011   3.876  15.879  1.3862 -2.1662  0.7042
 4288TIP3   OH234278   6.287   5.202   4.199 -0.7705  0.4794  0.6146
 4288TIP3    H134279   6.343   5.203   4.122  0.0323 -0.3511  1.1741
 4288TIP3    H234280   6.343   5.167   4.269 -0.7076  3.5095  2.1593
 4289TIP3   OH234281   3.602   3.192  15.733  0.5800 -0.3323 -0.1541
 4289TIP3    H134282   3.631   3.103  15.751 -0.6254 -1.1972 -2.3214
 4289TIP3    H234283   3.680   3.237  15.700  0.9023 -0.9326 -0.2069
 4290TIP3   OH234284   3.006   4.924  11.117  0.3351 -0.4857 -0.3589
 4290TIP3    H134285   2.972   4.835  11.128 -3.0701  0.7326 -0.4868
 4290TIP3    H234286   2.998   4.941  11.023  1.2387 -0.1618 -0.3749
 4291TIP3   OH234287   5.246   5.024   1.175 -0.1028 -0.2582 -0.1233
 4291TIP3    H134288   5.211   5.102   1.219  1.3664  0.4826 -0.2643
 4291TIP3    H234289   5.212   4.951   1.226 -1.0728  0.4797  0.3129
 4292TIP3   OH234290   3.307   1.808   1.030 -0.3228  0.3092 -0.0630
 4292TIP3    H134291   3.325   1.739   1.094 -1.3344 -0.7548 -0.8813
 4292TIP3    H234292   3.305   1.889   1.081  0.9954 -0.2520  0.8973
 4293TIP3   OH234293   6.234   5.442   2.345 -0.7994  0.4912 -0.3692
 4293TIP3    H134294   6.173   5.411   2.411 -0.2893 -0.9123 -0.5397
 4293TIP3    H234295   6.178   5.478   2.276 -1.3394  1.7494  0.6901
 4294TIP3   OH234296   1.531   4.032   5.092  0.0032  0.7323 -0.6132
 4294TIP3    H134297   1.500   3.982   5.017  1.2092 -2.4588  0.9397
 4294TIP3    H234298   1.625   4.044   5.075  0.2043  0.3197  0.2195
 4295TIP3   OH234299   0.820   2.314   1.633  0.2271  0.6417 -0.4220
 4295TIP3    H134300   0.730   2.299   1.606 -0.2212 -0.5453  1.6006
 4295TIP3    H234301   0.871   2.303   1.553 -1.3713  0.9592 -1.5156
 4296TIP3   OH234302   2.431   6.194   5.434  0.9365  0.7755 -0.5398
 4296TIP3    H134303   2.527   6.192   5.433  0.9192 -1.5357 -0.4627
 4296TIP3    H234304   2.405   6.140   5.359 -0.2827 -2.0191  1.8133
 4297TIP3   OH234305   6.461   5.724  11.995 -0.1483  0.6739  0.1875
 4297TIP3    H134306   6.392   5.780  12.033 -1.7276 -1.0936 -0.0177
 4297TIP3    H234307   6.536   5.783  11.985 -2.3527  3.2751 -1.8516
 4298TIP3   OH234308   2.386   1.969   3.582 -0.5922 -0.1589 -0.2544
 4298TIP3    H134309   2.436   1.952   3.501 -0.8466  0.4537 -0.5419
 4298TIP3    H234310   2.309   2.017   3.552 -0.0411  1.2391  0.5119
 4299TIP3   OH234311   4.033   3.831   1.656 -0.2581 -0.5176 -0.2604
 4299TIP3    H134312   4.127   3.813   1.668  0.3663  1.8469 -1.2211
 4299TIP3    H234313   4.019   3.915   1.699 -1.9055 -0.7730 -0.2870
 4300TIP3   OH234314   6.112   6.007  13.798 -0.0591  0.6210 -0.0987
 4300TIP3    H134315   6.099   6.070  13.869  1.4698  0.8795 -0.0446
 4300TIP3    H234316   6.197   6.029  13.761 -0.4415 -0.0918 -1.4383
 4301TIP3   OH234317   4.434   1.417  12.450 -0.3504 -0.3664 -0.2762
 4301TIP3    H134318   4.520   1.458  12.440 -0.8725  0.9430  0.4844
 4301TIP3    H234319   4.443   1.362  12.528 -0.2801 -0.0156 -0.0352
 4302TIP3   OH234320   6.670   4.955  17.167  0.5016 -0.3501 -0.3502
 4302TIP3    H134321   6.595   4.912  17.125  0.3078  0.2482 -0.6230
 4302TIP3    H234322   6.698   4.894  17.235 -0.6348 -0.2975  0.1808
 4303TIP3   OH234323   3.024   1.293   4.663 -0.5218 -0.1549 -0.2162
 4303TIP3    H134324   3.016   1.323   4.573  1.6588  1.2710  0.0192
 4303TIP3    H234325   3.070   1.209   4.657  0.8034  0.5655 -0.3794
 4304TIP3   OH234326   0.345   0.748  10.701  0.5544 -0.2452 -0.0029
 4304TIP3    H134327   0.278   0.681  10.691 -2.0672  2.4293 -1.2468
 4304TIP3    H234328   0.411   0.726  10.636 -1.3070 -0.4489 -1.8618
 4305TIP3   OH234329   6.774   0.777  10.970  0.2375  0.2248  0.2964
 4305TIP3    H134330   6.794   0.825  11.051  2.1089 -0.9465  0.5728
 4305TIP3    H234331   6.773   0.843  10.902 -2.5473  1.4229  1.4053
 4306TIP3   OH234332   1.303   0.904  14.217  0.3858 -0.3089  0.0355
 4306TIP3    H134333   1.289   0.952  14.299 -0.4008 -0.7283  0.1567
 4306TIP3    H234334   1.238   0.833  14.220  0.5114 -0.4631 -0.8427
 4307TIP3   OH234335   5.613   2.653   3.219  0.5183  0.1450  0.3695
 4307TIP3    H134336   5.637   2.609   3.137  0.2267 -0.3579  0.5535
 4307TIP3    H234337   5.557   2.726   3.192 -2.5878 -2.1425  0.3663
 4308TIP3   OH234338   0.203   0.362  12.249  0.5213 -0.9848 -0.3903
 4308TIP3    H134339   0.275   0.298  12.257  1.7049  0.3830  0.1032
 4308TIP3    H234340   0.148   0.346  12.325  0.6268 -1.6401 -0.4484
 4309TIP3   OH234341   5.458   0.085   2.188 -0.4379 -0.1176  0.7705
 4309TIP3    H134342   5.459   0.002   2.235  0.0772 -0.3549  0.3375
 4309TIP3    H234343   5.526   0.138   2.230 -0.3509 -0.1317  0.6470
 4310TIP3   OH234344   3.626   4.405   2.878 -0.0990 -0.9140  0.2117
 4310TIP3    H134345   3.579   4.449   2.948  0.2975 -1.9763  1.1584
 4310TIP3    H234346   3.700   4.362   2.922  1.1580 -0.1471 -1.0947
 4311TIP3   OH234347   0.515   0.383   2.848  0.0998  0.0545  0.0072
 4311TIP3    H134348   0.589   0.348   2.898 -0.2654 -0.9177 -0.1249
 4311TIP3    H234349   0.543   0.377   2.757 -0.9606 -2.3371 -0.2024
 4312TIP3   OH234350   0.541   0.589   4.723  0.1150  0.3441 -0.8880
 4312TIP3    H134351   0.512   0.643   4.649 -1.4903  0.4691 -0.1769
 4312TIP3    H234352   0.495   0.506   4.711 -0.4088  0.4820  0.1479
 4313TIP3   OH234353   3.573   5.206   2.109  0.0712  0.4014 -0.0424
 4313TIP3    H134354   3.654   5.175   2.149  1.6113  0.0721 -3.3059
 4313TIP3    H234355   3.533   5.128   2.071 -0.2913  1.0607 -1.0175
 4314TIP3   OH234356   0.378   5.059  14.361 -0.4168  0.0972  0.2485
 4314TIP3    H134357   0.367   5.078  14.268 -0.7027 -0.3551  0.1822
 4314TIP3    H234358   0.394   4.964  14.364 -0.2365  0.1397  0.6418
 4315TIP3   OH234359   2.457   2.646  13.897 -0.1316  0.0034 -0.3467
 4315TIP3    H134360   2.492   2.557  13.891 -1.5524 -0.3967 -3.9657
 4315TIP3    H234361   2.373   2.635  13.942 -0.9554 -0.7529 -1.9999
 4316TIP3   OH234362   3.728   1.976  11.135 -0.2086 -0.1831 -0.5176
 4316TIP3    H134363   3.713   2.052  11.079  2.4822 -0.2837 -1.4147
 4316TIP3    H234364   3.655   1.917  11.115 -2.7881  2.4001  0.7482
 4317TIP3   OH234365   4.343   5.452  14.945 -0.1985 -0.0990  0.4091
 4317TIP3    H134366   4.404   5.438  15.018  1.1959 -0.5111 -0.8248
 4317TIP3    H234367   4.294   5.370  14.939 -0.3347 -0.0590  0.8736
 4318TIP3   OH234368   1.188   5.673  16.364 -0.0082 -0.4369 -0.1098
 4318TIP3    H134369   1.133   5.618  16.420 -1.2791  1.9357  1.0286
 4318TIP3    H234370   1.278   5.644  16.382 -0.5961 -1.5942  1.0226
 4319TIP3   OH234371   3.941   0.105   5.169  0.8418 -0.1724 -0.4921
 4319TIP3    H134372   3.901   0.167   5.109  2.5851  0.5172 -0.9714
 4319TIP3    H234373   3.896   0.022   5.151  0.1528  0.4168 -1.5193
 4320TIP3   OH234374   2.278   1.707   2.677 -0.4697  0.2175  0.0806
 4320TIP3    H134375   2.233   1.663   2.605  0.0844  1.8497 -1.2883
 4320TIP3    H234376   2.366   1.670   2.677 -0.6768 -0.2815  0.3722
 4321TIP3   OH234377   1.159   0.209   2.685 -0.4984  0.3085  0.8267
 4321TIP3    H134378   1.104   0.157   2.743  0.7226 -2.2408 -0.2039
 4321TIP3    H234379   1.240   0.223   2.734 -0.7278  1.0430  1.0038
 4322TIP3   OH234380   1.310   5.481   5.782  0.4209  0.3212  0.0746
 4322TIP3    H134381   1.248   5.441   5.843  0.5375 -0.8859 -0.5721
 4322TIP3    H234382   1.270   5.469   5.696  0.6838  1.1960 -0.1755
 4323TIP3   OH234383   5.095   5.286   5.761 -0.5604 -0.0660 -0.1290
 4323TIP3    H134384   5.079   5.192   5.751  3.4866 -1.1173  1.9374
 4323TIP3    H234385   5.058   5.307   5.847 -0.3605 -0.0604 -0.0450
 4324TIP3   OH234386   2.045   3.990   4.159  0.1713  0.2911  0.3286
 4324TIP3    H134387   2.056   4.076   4.199 -0.8760 -0.3149  1.9507
 4324TIP3    H234388   2.127   3.944   4.176 -0.6340 -0.3196  2.7091
 4325TIP3   OH234389   1.418   5.079  12.911 -0.3509 -0.7322 -0.0713
 4325TIP3    H134390   1.401   5.010  12.847 -0.8355 -1.6071  0.9927
 4325TIP3    H234391   1.363   5.057  12.986  1.6616 -0.8164  1.4421
 4326TIP3   OH234392   1.710   2.587   2.247 -0.1479  0.0170  0.8447
 4326TIP3    H134393   1.617   2.566   2.253 -0.0747 -0.2485  1.1009
 4326TIP3    H234394   1.714   2.671   2.201 -0.6481  1.2753  3.0396
 4327TIP3   OH234395   5.869   1.903   6.639 -0.2059  0.5365  0.4486
 4327TIP3    H134396   5.802   1.875   6.702  0.4438 -0.0138  0.9022
 4327TIP3    H234397   5.841   1.991   6.612 -1.0689  0.3357  0.6901
 4328TIP3   OH234398   3.187   3.070   0.089 -0.0729 -0.0388  0.1822
 4328TIP3    H134399   3.094   3.066   0.113 -0.1270  0.4692  0.0714
 4328TIP3    H234400   3.227   2.997   0.136 -0.3489  0.3623  1.0666
 4329TIP3   OH234401   6.296   4.363   2.720 -0.2667  0.1472  0.1128
 4329TIP3    H134402   6.303   4.284   2.774 -0.2018  0.3975  0.4729
 4329TIP3    H234403   6.378   4.365   2.670  0.7056  1.1206  1.6675
 4330TIP3   OH234404   3.426   6.423   5.438 -0.3246  0.4526 -0.3691
 4330TIP3    H134405   3.484   6.384   5.503 -0.1104  1.8941  0.3283
 4330TIP3    H234406   3.355   6.462   5.489 -1.1614 -0.0606 -1.1258
 4331TIP3   OH234407   6.543   5.425   0.805 -0.5657  0.2148 -0.1139
 4331TIP3    H134408   6.473   5.488   0.824 -0.3718  0.3084  0.2908
 4331TIP3    H234409   6.576   5.399   0.891  0.3688  0.7079 -0.3118
 4332TIP3   OH234410   2.475   3.836   5.398 -0.3899 -0.2129 -0.2001
 4332TIP3    H134411   2.412   3.862   5.466  1.2566 -2.0778  2.1100
 4332TIP3    H234412   2.429   3.768   5.348 -0.8880 -0.2548  0.3073
 4333TIP3   OH234413   4.341   2.441  12.119  0.4508  0.0350  0.2457
 4333TIP3    H134414   4.408   2.472  12.058  2.4439 -0.3456  2.1455
 4333TIP3    H234415   4.284   2.385  12.067  0.2500  2.1784 -1.9295
 4334TIP3   OH234416   3.082   6.403   4.326 -0.2952 -0.7345  0.2768
 4334TIP3    H134417   3.094   6.491   4.362  0.7444 -1.4296  1.6902
 4334TIP3    H234418   3.166   6.381   4.286 -1.0554 -0.4703 -1.5124
 4335TIP3   OH234419   4.577   2.865  15.344  0.5103  0.6455 -0.2627
 4335TIP3    H134420   4.512   2.796  15.335  1.2525  0.2180 -2.5535
 4335TIP3    H234421   4.537   2.928  15.404 -0.4325 -1.4161  1.3443
 4336TIP3   OH234422   3.965   3.159   2.832  0.1039 -0.0543 -0.1007
 4336TIP3    H134423   3.949   3.190   2.921 -1.4354 -0.4235 -0.2373
 4336TIP3    H234424   4.037   3.097   2.841 -0.4794 -0.5801  0.9901
 4337TIP3   OH234425   0.078   4.818   0.367 -0.6446 -0.2006  0.4867
 4337TIP3    H134426   0.086   4.837   0.274 -0.9422 -2.6066 -0.0668
 4337TIP3    H234427   0.129   4.886   0.410 -0.7153  1.0880 -1.4101
 4338TIP3   OH234428   2.992   3.332  14.705  0.3513 -0.4689 -0.0743
 4338TIP3    H134429   2.900   3.343  14.728  0.2766 -1.7208  0.2425
 4338TIP3    H234430   3.032   3.293  14.783  0.9145 -1.0021 -0.6240
 4339TIP3   OH234431   4.778   2.044   0.777 -0.2800  0.1874 -0.1703
 4339TIP3    H134432   4.692   2.083   0.793  0.0505  1.3172 -0.9855
 4339TIP3    H234433   4.760   1.963   0.731 -0.9427  0.0926  0.2562
 4340TIP3   OH234434   5.698   2.671  12.050 -0.3360 -0.0423 -0.0855
 4340TIP3    H134435   5.739   2.753  12.023 -0.7568 -0.0256 -0.7023
 4340TIP3    H234436   5.640   2.696  12.122  0.8659 -0.1006  0.9223
 4341TIP3   OH234437   1.876   3.621  14.986 -0.0186 -0.4444  0.4772
 4341TIP3    H134438   1.801   3.602  14.929 -0.4098 -0.4826  0.9992
 4341TIP3    H234439   1.892   3.538  15.032  0.0890 -0.3177  0.6667
 4342TIP3   OH234440   6.493   3.843  12.441 -0.1942 -0.4414 -0.0460
 4342TIP3    H134441   6.420   3.883  12.489  0.1755  0.9080 -0.5917
 4342TIP3    H234442   6.542   3.796  12.508 -1.4682 -1.2309  0.3596
 4343TIP3   OH234443   6.307   5.703   6.305 -0.0183  0.5127 -0.1243
 4343TIP3    H134444   6.379   5.740   6.356  1.3050 -1.8224 -0.2516
 4343TIP3    H234445   6.344   5.687   6.219 -0.6960 -0.6251 -0.2180
 4344TIP3   OH234446   4.508   1.205   3.229  0.0779  0.4407  0.5339
 4344TIP3    H134447   4.475   1.150   3.300 -0.0115 -0.0146  0.1455
 4344TIP3    H234448   4.458   1.286   3.236 -0.9664 -0.1475  0.1022
 4345TIP3   OH234449   4.445   0.391  11.739 -0.2928  0.0810 -0.5368
 4345TIP3    H134450   4.369   0.334  11.726  0.1509 -0.6612  0.0790
 4345TIP3    H234451   4.410   0.479  11.731 -1.1953 -0.2572 -0.4237
 4346TIP3   OH234452   3.078   1.846  13.687 -0.0314  0.1858  0.3418
 4346TIP3    H134453   3.073   1.812  13.776  1.8951 -1.5369 -0.1568
 4346TIP3    H234454   3.061   1.769  13.631 -0.1259  1.0040 -0.7808
 4347TIP3   OH234455   0.179   2.601   5.437  0.1327  0.1757 -0.6379
 4347TIP3    H134456   0.090   2.631   5.454  0.6365  0.4054  1.7506
 4347TIP3    H234457   0.196   2.536   5.505  2.1174  0.8451 -0.4668
 4348TIP3   OH234458   5.838   6.650  15.039 -0.0484  0.1255 -0.0732
 4348TIP3    H134459   5.897   6.682  14.971  1.6589 -0.1706  1.2221
 4348TIP3    H234460   5.881   6.571  15.073 -1.0910  0.0142  1.0320
 4349TIP3   OH234461   0.740   2.872  12.485 -0.3377  0.1207  0.0602
 4349TIP3    H134462   0.759   2.786  12.523 -0.2990  0.4899  0.8967
 4349TIP3    H234463   0.646   2.869  12.465 -0.1459 -0.4369 -0.7586
 4350TIP3   OH234464   0.014   1.688   4.233  0.5081 -0.5231  0.3966
 4350TIP3    H134465  -0.040   1.764   4.252  0.7631 -0.2397 -0.0136
 4350TIP3    H234466   0.039   1.654   4.319 -0.1100 -0.5057  0.5826
 4351TIP3   OH234467   4.163   3.119   1.893 -0.0387  0.1727 -0.3568
 4351TIP3    H134468   4.180   3.042   1.949  0.6527  1.5401  1.3699
 4351TIP3    H234469   4.248   3.138   1.852  0.3195  1.2451  0.8412
 4352TIP3   OH234470   5.285   4.111   2.774 -0.3216  0.2339  0.4135
 4352TIP3    H134471   5.261   4.200   2.800  0.7542  1.1690 -1.6822
 4352TIP3    H234472   5.359   4.089   2.831  0.5247  1.3674 -0.2211
 4353TIP3   OH234473   3.307   3.239  11.061  0.4611  0.6759  0.0324
 4353TIP3    H134474   3.372   3.291  11.015  0.0746  1.9178  0.8491
 4353TIP3    H234475   3.236   3.301  11.080 -0.3177 -0.3139  0.3963
 4354TIP3   OH234476   5.098   5.250   1.161  0.0709 -0.2409 -0.1441
 4354TIP3    H134477   5.072   5.332   1.120  1.6452  0.6354  0.5795
 4354TIP3    H234478   5.071   5.182   1.099 -0.7612  0.8487 -0.9824
 4355TIP3   OH234479   6.662   4.303   1.477  0.3362 -0.2461  0.0192
 4355TIP3    H134480   6.594   4.340   1.420 -0.7437 -1.2779  0.6055
 4355TIP3    H234481   6.660   4.358   1.556  1.2688  0.6807 -0.5957
 4356TIP3   OH234482   4.811   5.950  10.812 -0.3412 -1.3357 -0.0950
 4356TIP3    H134483   4.752   5.968  10.738 -0.2152  1.5134  0.4119
 4356TIP3    H234484   4.874   5.887  10.778  1.1828  1.7060 -3.2526
 4357TIP3   OH234485   5.163   5.513  13.806 -0.4188  0.2663 -0.6855
 4357TIP3    H134486   5.134   5.584  13.749 -2.3389 -0.3390 -0.5044
 4357TIP3    H234487   5.102   5.515  13.880 -0.5299 -1.5805 -0.6941
 4358TIP3   OH234488   6.311   5.980   2.375 -0.0668  0.2734 -0.3135
 4358TIP3    H134489   6.315   6.063   2.423  0.0011  0.8644 -1.3330
 4358TIP3    H234490   6.353   5.998   2.291  1.3154 -1.2030  0.0355
 4359TIP3   OH234491   3.462   6.738   6.173  1.0452  0.2846  0.4400
 4359TIP3    H134492   3.485   6.805   6.238 -0.0894  0.6408  0.4909
 4359TIP3    H234493   3.539   6.681   6.169  1.2415  0.4110  1.9076
 4360TIP3   OH234494   1.712   0.273   1.115 -0.0527  0.3176 -0.3330
 4360TIP3    H134495   1.747   0.360   1.134 -0.5765  0.6449 -0.8579
 4360TIP3    H234496   1.775   0.236   1.052  0.6834 -0.0578  0.6069
 4361TIP3   OH234497   5.045   1.585   6.166  0.1593 -0.1130 -0.3461
 4361TIP3    H134498   5.064   1.493   6.187 -1.0990 -0.5579 -1.1237
 4361TIP3    H234499   4.990   1.615   6.238  1.4087  0.3488  0.4396
 4362TIP3   OH234500   1.286   0.302   4.467 -0.1320 -0.2264  0.4136
 4362TIP3    H134501   1.346   0.270   4.534 -0.3277 -1.9547 -0.2196
 4362TIP3    H234502   1.218   0.235   4.461 -1.0329  0.7308 -0.3203
 4363TIP3   OH234503   4.673   5.412   0.556  0.5408 -0.2751  0.2483
 4363TIP3    H134504   4.707   5.402   0.645  1.8053  1.4855 -0.0163
 4363TIP3    H234505   4.744   5.455   0.508  0.4427 -2.4848 -1.9975
 4364TIP3   OH234506   5.675   4.064  13.447  0.3321 -0.6049 -0.0172
 4364TIP3    H134507   5.593   4.073  13.496  1.1784  1.8939  1.0032
 4364TIP3    H234508   5.744   4.070  13.513  1.4150 -0.1908 -1.1632
 4365TIP3   OH234509   4.702   1.837   5.533 -0.0853  0.6364  0.0482
 4365TIP3    H134510   4.777   1.781   5.509 -0.6836 -0.5716  0.9621
 4365TIP3    H234511   4.720   1.863   5.623 -0.3544  1.0187 -0.0093
 4366TIP3   OH234512   4.578   2.325  13.362  0.0266  0.7964 -0.0558
 4366TIP3    H134513   4.503   2.371  13.399 -1.1813 -1.2473  0.1268
 4366TIP3    H234514   4.552   2.305  13.273  0.0539 -0.5329  0.2220
 4367TIP3   OH234515   5.732   1.033  13.627 -0.0541  0.3527 -0.1788
 4367TIP3    H134516   5.644   1.060  13.601 -0.8058 -0.4567  1.4953
 4367TIP3    H234517   5.784   1.113  13.619 -0.9501  0.8748 -1.0362
 4368TIP3   OH234518   3.632   0.482   2.878 -0.4922 -0.2907  0.0032
 4368TIP3    H134519   3.635   0.389   2.857  0.5410 -0.0126 -1.1838
 4368TIP3    H234520   3.551   0.513   2.836 -2.1721 -1.1062  2.5173
 4369TIP3   OH234521   4.629   2.513   1.706 -0.4271 -0.2693  0.3890
 4369TIP3    H134522   4.652   2.605   1.718  1.6243 -0.8751  1.2713
 4369TIP3    H234523   4.554   2.500   1.764 -1.6187  1.1731 -0.7863
 4370TIP3   OH234524   2.808   4.698  16.823  0.3363  0.3314 -0.4994
 4370TIP3    H134525   2.733   4.664  16.873  1.4285  1.7651  2.2737
 4370TIP3    H234526   2.770   4.765  16.766 -0.7548 -0.3346 -0.5829
 4371TIP3   OH234527   5.010   3.211   4.350  0.2880 -0.2678 -0.0528
 4371TIP3    H134528   4.953   3.222   4.274  0.3662  1.4660  0.1238
 4371TIP3    H234529   4.968   3.141   4.401 -0.9969  0.1300 -0.5412
 4372TIP3   OH234530   0.280   4.379   5.021  0.2774 -0.4784 -0.4158
 4372TIP3    H134531   0.293   4.287   5.044 -1.2283 -0.6552 -0.2702
 4372TIP3    H234532   0.229   4.415   5.093 -1.1279 -0.0898 -1.5792
 4373TIP3   OH234533   5.586   3.150  11.419 -0.4718  0.5000  0.3005
 4373TIP3    H134534   5.612   3.202  11.342  0.6300 -1.7484 -0.8842
 4373TIP3    H234535   5.561   3.065  11.383 -0.3645 -0.4418  2.4033
 4374TIP3   OH234536   5.009   3.337   5.194  0.1971 -0.1697 -0.3461
 4374TIP3    H134537   5.103   3.355   5.187 -0.0809  1.0079 -1.1959
 4374TIP3    H234538   4.995   3.264   5.134  0.2945  0.7424 -1.5070
 4375TIP3   OH234539   5.480   4.447  15.988 -0.1732  0.4669  0.1242
 4375TIP3    H134540   5.417   4.393  15.941  0.5023  0.3285 -0.6197
 4375TIP3    H234541   5.426   4.514  16.031 -1.0631 -1.0366  1.4450
 4376TIP3   OH234542   2.578   0.041  12.066 -0.5893  0.0367 -0.4362
 4376TIP3    H134543   2.541   0.099  11.999 -2.1894  1.9165  1.9742
 4376TIP3    H234544   2.672   0.043  12.050 -0.7303  2.3242 -1.1953
 4377TIP3   OH234545   3.681   5.990   2.806  0.1946 -0.7629  0.2540
 4377TIP3    H134546   3.733   6.069   2.792 -0.2619 -0.4344  0.4137
 4377TIP3    H234547   3.702   5.963   2.895 -1.6413  0.6575  1.1334
 4378TIP3   OH234548   1.016   5.416  15.151  0.2936 -0.0965  0.2090
 4378TIP3    H134549   0.932   5.393  15.190 -0.0950  0.6905 -0.1621
 4378TIP3    H234550   1.076   5.423  15.226 -0.0161 -0.4258  0.4896
 4379TIP3   OH234551   1.030   5.760   5.534  0.2945 -0.2641 -0.0046
 4379TIP3    H134552   0.953   5.729   5.583 -0.4138  0.7708 -0.4305
 4379TIP3    H234553   1.085   5.683   5.525 -0.1248 -0.7513  1.3723
 4380TIP3   OH234554   6.275   1.320  13.923 -0.0747 -0.1526  0.7272
 4380TIP3    H134555   6.217   1.315  13.999 -0.4852  1.1909  0.5216
 4380TIP3    H234556   6.358   1.284  13.954 -0.0738  0.9023  1.9974
 4381TIP3   OH234557   5.573   6.494   4.263 -0.0031  0.0142 -0.3565
 4381TIP3    H134558   5.541   6.570   4.214 -0.0210  0.2209 -0.0270
 4381TIP3    H234559   5.512   6.486   4.336 -1.1469 -1.4777 -1.4314
 4382TIP3   OH234560   6.096   5.536   2.677  0.1598  0.1877  0.0555
 4382TIP3    H134561   6.070   5.595   2.606  3.2833 -0.1027 -1.4029
 4382TIP3    H234562   6.067   5.450   2.648 -2.5799  0.6518  1.2547
 4383TIP3   OH234563   4.966   5.942  11.444  0.5114 -0.1204 -0.2934
 4383TIP3    H134564   4.936   6.021  11.488  0.5430  0.0046 -0.4930
 4383TIP3    H234565   4.888   5.908  11.400  0.7827  0.5186 -1.2817
 4384TIP3   OH234566   5.310   0.239  13.947 -0.1404 -0.9017  0.6926
 4384TIP3    H134567   5.216   0.256  13.943 -0.1129 -0.3137  2.2424
 4384TIP3    H234568   5.350   0.326  13.947  0.5083 -1.1692 -1.9125
 4385TIP3   OH234569   1.311   1.002  12.278  0.1657 -0.1209 -0.3788
 4385TIP3    H134570   1.342   0.940  12.212 -0.2596 -0.5340 -0.1898
 4385TIP3    H234571   1.217   1.008  12.264  0.0262 -0.4591  0.4022
 4386TIP3   OH234572   4.528   5.244  11.057 -0.3194  0.3876 -0.1022
 4386TIP3    H134573   4.515   5.201  10.973  0.5290  2.1067 -1.1442
 4386TIP3    H234574   4.623   5.253  11.065 -0.2704 -1.6217  2.0104
 4387TIP3   OH234575   2.738   0.153  14.373  0.4165  0.5039  0.0136
 4387TIP3    H134576   2.662   0.168  14.316  0.5203 -1.6158 -0.7582
 4387TIP3    H234577   2.705   0.166  14.462 -0.8420 -0.3584 -0.3172
 4388TIP3   OH234578   5.716   2.138  16.239 -0.0698 -0.3030  0.5379
 4388TIP3    H134579   5.661   2.081  16.293 -0.5337 -0.1653  0.2088
 4388TIP3    H234580   5.745   2.207  16.300 -0.8241  0.0106  0.5419
 4389TIP3   OH234581   2.436   1.268   2.013  0.0750 -0.6286 -0.2520
 4389TIP3    H134582   2.517   1.231   1.978 -0.2788 -0.8779 -0.8078
 4389TIP3    H234583   2.431   1.355   1.974  0.3490 -0.4107  0.2007
 4390TIP3   OH234584   4.556   2.606   2.672 -0.0214 -0.7941 -0.1925
 4390TIP3    H134585   4.643   2.594   2.634  0.5201  0.2348  0.6770
 4390TIP3    H234586   4.553   2.699   2.694 -2.0381 -0.4205 -1.8744
 4391TIP3   OH234587   4.350   4.076  15.855 -0.1031 -0.5735 -0.2251
 4391TIP3    H134588   4.288   4.008  15.827 -0.5405 -1.2484  2.2297
 4391TIP3    H234589   4.298   4.156  15.856  0.2459 -0.2925 -2.5054
 4392TIP3   OH234590   0.697   6.755   2.812 -0.3562  0.4507 -0.3179
 4392TIP3    H134591   0.728   6.841   2.841  0.1044 -0.0121  0.5827
 4392TIP3    H234592   0.697   6.761   2.716  1.0981  0.9634 -0.3059
 4393TIP3   OH234593   5.712   6.025   1.017  0.2864  0.5671 -0.1239
 4393TIP3    H134594   5.727   6.120   1.020  1.9293  0.3623 -1.4292
 4393TIP3    H234595   5.776   5.992   0.955  0.0254 -1.4831  0.6495
 4394TIP3   OH234596   1.801   6.379  15.182  0.2515 -0.0757 -0.3361
 4394TIP3    H134597   1.826   6.442  15.114  1.4349  0.3477  0.4743
 4394TIP3    H234598   1.746   6.315  15.136  1.1944  0.0950 -1.7472
 4395TIP3   OH234599   3.648   2.908  15.649 -0.2337  0.3274 -0.0940
 4395TIP3    H134600   3.637   2.948  15.562 -1.3790 -0.9420 -0.5537
 4395TIP3    H234601   3.582   2.839  15.652 -0.2442  0.3998  1.8365
 4396TIP3   OH234602   5.168   0.978   1.604 -0.7056 -0.2040 -0.5984
 4396TIP3    H134603   5.209   0.899   1.639 -0.4143 -0.3964 -1.3737
 4396TIP3    H234604   5.077   0.971   1.632 -0.3538 -0.0553  0.6379
 4397TIP3   OH234605   2.105   3.099   4.750 -0.7895  0.3534  0.3871
 4397TIP3    H134606   2.069   3.174   4.702 -1.3173  0.1410  0.4410
 4397TIP3    H234607   2.160   3.053   4.687 -1.8392 -0.1806 -0.1580
 4398TIP3   OH234608   5.607   5.827  13.162 -0.6582  0.5237  0.4478
 4398TIP3    H134609   5.567   5.774  13.094  1.1196  1.3303 -1.3013
 4398TIP3    H234610   5.694   5.849  13.127  0.6501  0.2303  3.3506
 4399TIP3   OH234611   2.476   0.335   1.528 -0.7364  0.1528 -0.1822
 4399TIP3    H134612   2.492   0.377   1.612 -1.2336 -0.4094  0.1933
 4399TIP3    H234613   2.403   0.384   1.490  0.0164  0.9250 -0.6521
 4400TIP3   OH234614   6.585   0.103   1.202  0.4441  0.1700  0.4411
 4400TIP3    H134615   6.559   0.102   1.294 -0.0534  0.4158  0.3051
 4400TIP3    H234616   6.507   0.071   1.155  0.3896  0.9004  0.0335
 4401TIP3   OH234617   5.422   2.122  13.354  0.1376 -0.6964  0.1296
 4401TIP3    H134618   5.402   2.195  13.412 -0.3256 -1.3504  0.7948
 4401TIP3    H234619   5.512   2.097  13.377  0.4886 -0.0077 -0.4615
 4402TIP3   OH234620   4.939   4.665   4.610  1.3117 -0.2588 -0.1973
 4402TIP3    H134621   4.924   4.688   4.701  1.1036 -0.0889 -0.2744
 4402TIP3    H234622   4.902   4.577   4.601  1.1447 -0.1920 -0.1692
 4403TIP3   OH234623   4.308   5.523  12.687 -0.2743  0.0834 -0.0268
 4403TIP3    H134624   4.364   5.549  12.760 -1.4524 -0.7229  1.1945
 4403TIP3    H234625   4.319   5.428  12.681  0.1901  0.1939 -1.2386
 4404TIP3   OH234626   2.424   1.599   4.911  0.3393 -0.0494 -0.1459
 4404TIP3    H134627   2.412   1.666   4.979  1.0134 -0.2973  0.2200
 4404TIP3    H234628   2.436   1.518   4.959 -1.0172 -0.5397 -0.6047
 4405TIP3   OH234629   0.503   0.543   0.898 -0.1558 -1.2391 -0.4431
 4405TIP3    H134630   0.476   0.459   0.862  0.4455 -2.1387  1.1537
 4405TIP3    H234631   0.422   0.593   0.909 -0.6390 -2.0877 -0.1859
 4406TIP3   OH234632   4.383   1.608   5.910  0.0570 -0.1741 -0.4522
 4406TIP3    H134633   4.405   1.685   5.858 -0.6235  0.6989  0.5428
 4406TIP3    H234634   4.467   1.562   5.921 -0.0431 -1.3333 -3.7777
 4407TIP3   OH234635   5.713   1.176  12.869 -0.1543 -0.1019 -0.4645
 4407TIP3    H134636   5.682   1.098  12.824  0.1324 -0.2773 -0.3605
 4407TIP3    H234637   5.767   1.142  12.941  1.0317  0.2121 -1.1826
 4408TIP3   OH234638   2.579   1.409   5.845  0.6252 -0.1017 -0.4630
 4408TIP3    H134639   2.637   1.333   5.841 -1.4797 -1.7539 -0.5410
 4408TIP3    H234640   2.509   1.383   5.904  1.0863  2.6862  1.3997
 4409TIP3   OH234641   5.201   2.250   6.389 -0.6552  0.1268 -0.5346
 4409TIP3    H134642   5.198   2.345   6.402 -1.7540  0.1031 -0.5336
 4409TIP3    H234643   5.134   2.233   6.323 -0.1415 -0.5968 -0.8710
 4410TIP3   OH234644   6.113   6.638  11.566  0.2108 -0.3169 -0.0299
 4410TIP3    H134645   6.047   6.579  11.603  0.4953 -1.2105 -0.9138
 4410TIP3    H234646   6.179   6.647  11.635  0.2254 -1.1462  0.0748
 4411TIP3   OH234647   6.086   2.189   0.809 -0.2133 -0.2219  0.0748
 4411TIP3    H134648   6.002   2.191   0.762 -0.8465  1.8505  1.2241
 4411TIP3    H234649   6.141   2.131   0.757 -1.6683  0.1089 -1.9000
 4412TIP3   OH234650   1.063   1.047   4.346 -0.3042 -0.3551  0.4266
 4412TIP3    H134651   1.064   1.039   4.442  1.9221 -0.6533  0.4144
 4412TIP3    H234652   1.136   1.105   4.326 -0.8272 -0.2008 -1.0981
 4413TIP3   OH234653   5.946   3.068  17.124 -0.1148  0.7622 -0.4251
 4413TIP3    H134654   6.017   3.062  17.188 -1.0335 -0.9734  0.4599
 4413TIP3    H234655   5.969   3.003  17.057  0.3765  1.9381 -1.4330
 4414TIP3   OH234656   5.093   6.166   2.829 -0.1195 -0.1645 -0.1956
 4414TIP3    H134657   5.118   6.170   2.922  1.5886 -1.5835 -0.5721
 4414TIP3    H234658   5.072   6.074   2.814 -0.6713  0.1187 -1.1526
 4415TIP3   OH234659   6.025   1.340   2.667  0.2208 -0.0656  0.4094
 4415TIP3    H134660   6.001   1.372   2.580 -0.2736  1.1146  0.9747
 4415TIP3    H234661   6.073   1.412   2.707  0.2176 -0.5038  1.2090
 4416TIP3   OH234662   6.196   4.785   6.121 -0.0751 -0.0425 -0.2785
 4416TIP3    H134663   6.122   4.741   6.162 -0.8709  1.1654 -0.3932
 4416TIP3    H234664   6.264   4.785   6.189 -0.4022 -0.5845  0.0544
 4417TIP3   OH234665   1.708   6.314   2.003  0.2196  0.1936 -0.2608
 4417TIP3    H134666   1.613   6.318   2.013  0.4209  0.5671  1.7004
 4417TIP3    H234667   1.724   6.346   1.914 -1.2746  2.9696  0.4364
 4418TIP3   OH234668   2.349   1.560  17.033 -0.4203  0.1908  0.1321
 4418TIP3    H134669   2.385   1.622  16.970  0.6675 -1.0825 -0.5280
 4418TIP3    H234670   2.392   1.477  17.013 -2.0518 -0.8588  0.8141
 4419TIP3   OH234671   1.856   1.886   6.721 -0.1671 -0.0992 -0.3038
 4419TIP3    H134672   1.767   1.850   6.715 -0.0681 -0.6298  1.2131
 4419TIP3    H234673   1.911   1.820   6.679 -0.1185 -1.2412  1.5278
 4420TIP3   OH234674   5.932   1.548  14.110 -0.0380 -0.0850  0.2635
 4420TIP3    H134675   5.932   1.616  14.177  0.0518  1.0016 -0.8131
 4420TIP3    H234676   5.855   1.495  14.130 -1.9825  2.2478 -0.7358
 4421TIP3   OH234677   2.928   3.929  16.800  0.0147  0.0188  0.1847
 4421TIP3    H134678   3.006   3.939  16.744 -0.4180 -0.3460 -0.4895
 4421TIP3    H234679   2.964   3.921  16.889  0.6544  1.6244  0.0816
 4422TIP3   OH234680   3.569   0.051  17.220  0.4247 -0.1499  0.2729
 4422TIP3    H134681   3.662   0.048  17.241 -0.1947  1.7422  3.6669
 4422TIP3    H234682   3.527   0.002  17.291 -1.4422  2.4722  1.0687
 4423TIP3   OH234683   4.332   0.571   5.528  0.0200  0.8544 -0.3174
 4423TIP3    H134684   4.287   0.606   5.451 -1.0050 -0.0907 -0.1700
 4423TIP3    H234685   4.268   0.581   5.599 -0.5500 -1.8065 -0.3960
 4424TIP3   OH234686   3.080   1.012  14.458 -0.2823 -0.3661  0.2092
 4424TIP3    H134687   3.064   1.063  14.379 -0.3202 -0.8381 -0.0933
 4424TIP3    H234688   3.036   1.060  14.528 -0.6556 -0.1949 -0.1404
 4425TIP3   OH234689   1.577   6.441  14.705  0.0951 -0.3518 -0.1176
 4425TIP3    H134690   1.502   6.383  14.720 -0.8311  0.6955 -0.6126
 4425TIP3    H234691   1.646   6.383  14.674 -0.8421 -1.1791 -0.7111
 4426TIP3   OH234692   4.528   4.052  14.493 -0.3016  0.0937  0.0056
 4426TIP3    H134693   4.588   4.127  14.496  0.3664 -0.4231 -0.3035
 4426TIP3    H234694   4.575   3.981  14.537 -0.7815 -0.2457 -0.0275
 4427TIP3   OH234695   5.678   2.394   0.309 -0.3089 -0.1772 -0.1416
 4427TIP3    H134696   5.600   2.397   0.254  0.2069 -1.1449 -0.9453
 4427TIP3    H234697   5.706   2.485   0.316 -1.0455  0.0853 -0.5066
 4428TIP3   OH234698   4.499   1.527  15.874 -0.2090  0.1757 -0.2062
 4428TIP3    H134699   4.461   1.583  15.807  1.2596  0.5027 -0.7842
 4428TIP3    H234700   4.579   1.572  15.901  0.2244 -0.9059  0.3733
 4429TIP3   OH234701   5.101   4.170   1.093 -0.5503 -0.7168  0.1153
 4429TIP3    H134702   5.176   4.222   1.063 -0.7427 -0.2249  0.4857
 4429TIP3    H234703   5.117   4.082   1.058  0.9965 -1.0136  1.5034
 4430TIP3   OH234704   6.347   2.785  13.943 -0.1067  0.1765 -0.1036
 4430TIP3    H134705   6.403   2.726  13.994 -1.6577  0.4892  2.0525
 4430TIP3    H234706   6.348   2.867  13.992 -1.1096  0.6984 -0.9393
 4431TIP3   OH234707   5.498   1.176   2.196 -0.1957  0.2076 -0.5492
 4431TIP3    H134708   5.495   1.272   2.199 -1.0229  0.1724 -0.1465
 4431TIP3    H234709   5.431   1.148   2.258  0.4579 -0.6349 -0.2138
 4432TIP3   OH234710   3.341   5.688  11.135 -0.0364  0.3002 -0.3418
 4432TIP3    H134711   3.377   5.615  11.186 -0.5292  1.2943  1.4703
 4432TIP3    H234712   3.321   5.649  11.050  1.5724 -1.2035 -0.0798
 4433TIP3   OH234713   3.227   4.498  15.541 -0.1678  0.3097 -0.2106
 4433TIP3    H134714   3.233   4.578  15.594 -1.6544  0.5142 -0.3451
 4433TIP3    H234715   3.174   4.523  15.466  0.1554 -0.5655 -0.7317
 4434TIP3   OH234716   0.391   6.560   4.445 -1.0440  0.1947 -0.2408
 4434TIP3    H134717   0.377   6.608   4.363 -1.8394 -0.5338 -0.5370
 4434TIP3    H234718   0.373   6.624   4.513  1.2060  1.2622 -0.6284
 4435TIP3   OH234719   0.915   0.751   5.214  0.3393  0.0986 -0.1969
 4435TIP3    H134720   0.940   0.842   5.196  2.0883 -0.5829 -1.3916
 4435TIP3    H234721   0.864   0.755   5.295 -0.6936  2.2873 -0.9368
 4436TIP3   OH234722   2.332   5.957   4.659 -0.2479 -0.1653  0.1103
 4436TIP3    H134723   2.267   5.962   4.589 -0.2670  0.5004  0.1707
 4436TIP3    H234724   2.369   6.045   4.663  0.8519 -0.6102 -0.1043
 4437TIP3   OH234725   0.098   2.334   5.279  0.1307 -0.3200 -0.1214
 4437TIP3    H134726   0.132   2.419   5.308  2.2560  0.0197 -3.3518
 4437TIP3    H234727   0.150   2.270   5.328  0.7663  0.2372 -0.0587
 4438TIP3   OH234728   5.023   2.871   1.788  0.3793 -0.0235  0.6586
 4438TIP3    H134729   4.969   2.886   1.710 -1.5913 -0.4348  1.8815
 4438TIP3    H234730   5.001   2.944   1.846 -0.3595 -1.2592  1.9562
 4439TIP3   OH234731   6.394   4.419  10.870  0.0618 -0.6445  0.1976
 4439TIP3    H134732   6.405   4.383  10.958 -2.3850  2.5412  1.8917
 4439TIP3    H234733   6.325   4.366  10.830 -0.1918 -0.8445  0.8978
 4440TIP3   OH234734   1.341   6.258  14.561  0.4474 -0.7525 -0.2253
 4440TIP3    H134735   1.335   6.163  14.570  0.6058 -0.8251 -0.8911
 4440TIP3    H234736   1.318   6.292  14.648 -0.8548 -1.3470 -0.3257
 4441TIP3   OH234737   1.563   2.781  13.930 -0.3538 -0.3268  0.0284
 4441TIP3    H134738   1.497   2.752  13.866 -0.4744 -2.0417  0.9068
 4441TIP3    H234739   1.622   2.707  13.940  2.2867  1.4913 -1.4059
 4442TIP3   OH234740   1.814   3.748  14.323 -0.2436 -0.3554  0.6646
 4442TIP3    H134741   1.794   3.663  14.284  0.1788  1.1670 -3.1136
 4442TIP3    H234742   1.729   3.792  14.330 -0.3505 -0.7257  1.7368
 4443TIP3   OH234743   3.261   6.768   0.940  0.2154  0.4619 -0.0447
 4443TIP3    H134744   3.294   6.838   0.996  2.1960 -0.5004  0.0402
 4443TIP3    H234745   3.269   6.802   0.851  0.8483  0.4936  0.0214
 4444TIP3   OH234746   2.316   5.076   3.294  0.1757  0.0038  0.4395
 4444TIP3    H134747   2.338   5.152   3.348  0.6665  0.0922  0.1113
 4444TIP3    H234748   2.222   5.085   3.278  0.4328  1.0906 -0.4644
 4445TIP3   OH234749   3.972   3.595   5.214  0.0346 -0.3712  0.0923
 4445TIP3    H134750   3.927   3.571   5.295  1.3311  1.3686  1.3675
 4445TIP3    H234751   3.955   3.689   5.205  0.9789 -0.2970 -0.9688
 4446TIP3   OH234752   6.636   2.385  16.397  0.2025 -0.6485 -0.3758
 4446TIP3    H134753   6.576   2.404  16.325  1.3202 -3.6519 -2.1740
 4446TIP3    H234754   6.662   2.294  16.384  1.6079 -0.8219  2.9867
 4447TIP3   OH234755   5.194   0.196  12.201 -0.4214 -0.2587 -0.2202
 4447TIP3    H134756   5.201   0.289  12.224 -1.8336 -0.5116  1.3166
 4447TIP3    H234757   5.162   0.197  12.110  0.9371  0.7472 -0.7031
 4448TIP3   OH234758   4.351   2.805   2.902 -0.1086 -0.3644  0.1855
 4448TIP3    H134759   4.309   2.721   2.922 -2.4004  0.5059 -0.8662
 4448TIP3    H234760   4.293   2.871   2.940  1.4174  0.7781  0.5710
 4449TIP3   OH234761   5.524   0.648  12.616  0.1151  0.6975 -0.2565
 4449TIP3    H134762   5.488   0.579  12.559 -0.5963  1.7623 -1.1278
 4449TIP3    H234763   5.618   0.633  12.615 -0.1715 -1.4199  1.0974
 4450TIP3   OH234764   5.406   1.226   0.699 -0.5176 -0.3881 -0.2038
 4450TIP3    H134765   5.389   1.319   0.689  1.5556  0.3122  2.1699
 4450TIP3    H234766   5.346   1.198   0.768  1.2509  0.0298  1.5726
 4451TIP3   OH234767   4.494   5.972   6.027  0.5361 -0.1429  0.1185
 4451TIP3    H134768   4.587   5.953   6.026  0.5901  0.1210  0.1586
 4451TIP3    H234769   4.453   5.897   5.983  0.7619 -0.2805  0.1463
 4452TIP3   OH234770   1.538   1.077   5.439 -0.1380 -0.3196  0.0530
 4452TIP3    H134771   1.632   1.064   5.453  0.1975  2.0731  0.2661
 4452TIP3    H234772   1.503   0.988   5.431  2.0212 -1.2817  0.6760
 4453TIP3   OH234773   1.988   1.950  10.871 -0.5840 -0.4725  0.1804
 4453TIP3    H134774   1.941   2.027  10.901 -0.2676  0.4526 -1.6751
 4453TIP3    H234775   2.069   1.950  10.922 -1.1221 -0.2664  1.0467
 4454TIP3   OH234776   4.800   6.624   4.370  0.2248 -0.1774 -0.2552
 4454TIP3    H134777   4.779   6.544   4.321 -0.1464  0.5841 -1.3702
 4454TIP3    H234778   4.845   6.680   4.307 -0.3878  0.8813  0.2204
 4455TIP3   OH234779   0.787   6.117  12.242  0.2163 -0.0546 -0.4777
 4455TIP3    H134780   0.694   6.124  12.221 -0.1169 -1.6855  0.3378
 4455TIP3    H234781   0.812   6.030  12.212  1.5896  0.5201 -1.0546
 4456TIP3   OH234782   1.398   1.259   1.268 -0.3822 -0.0414 -0.1089
 4456TIP3    H134783   1.305   1.265   1.248 -0.5137 -0.9347  0.2130
 4456TIP3    H234784   1.412   1.168   1.293  0.0702  0.6561  2.3535
 4457TIP3   OH234785   1.735   4.221  12.038  0.2384 -0.5894 -0.1490
 4457TIP3    H134786   1.696   4.137  12.060  0.3421 -0.3755  0.9146
 4457TIP3    H234787   1.672   4.286  12.069  1.1768 -0.2495  1.1086
 4458TIP3   OH234788   0.787   6.322   4.081  0.1791  0.5581 -0.3272
 4458TIP3    H134789   0.787   6.289   4.171 -0.1903  1.9563  0.1951
 4458TIP3    H234790   0.695   6.340   4.062  0.1969 -0.2155 -1.1743
 4459TIP3   OH234791   2.356   5.359  13.369  0.5487  0.0787 -0.1816
 4459TIP3    H134792   2.302   5.394  13.440  0.1467 -0.9958  0.0381
 4459TIP3    H234793   2.336   5.417  13.295 -0.2387  0.2293  0.1342
 4460TIP3   OH234794   1.759   2.754  14.644  0.6476  0.3673  0.0745
 4460TIP3    H134795   1.837   2.703  14.664  0.4661  0.0118 -0.1213
 4460TIP3    H234796   1.696   2.731  14.713  1.0716  1.4370  0.8278
 4461TIP3   OH234797   0.196   4.560   4.207 -0.6764 -0.0797 -0.5219
 4461TIP3    H134798   0.179   4.542   4.299  1.6404 -0.5392 -0.1553
 4461TIP3    H234799   0.183   4.655   4.198 -1.5770 -0.1376  0.1092
 4462TIP3   OH234800   1.600   5.369  11.515 -0.5833  0.2652  0.1366
 4462TIP3    H134801   1.554   5.327  11.442  0.3534  0.2808 -0.4660
 4462TIP3    H234802   1.614   5.298  11.578  2.5365 -0.7916 -1.6201
 4463TIP3   OH234803   3.666   1.987  15.879  0.1182 -0.1482  0.6021
 4463TIP3    H134804   3.676   1.958  15.789  0.1342  0.8562  0.2739
 4463TIP3    H234805   3.749   1.965  15.921  0.1532 -0.5140  0.3413
 4464TIP3   OH234806   3.412   2.246   0.030  0.3360  0.3485  0.3121
 4464TIP3    H134807   3.468   2.321   0.010  0.1101  0.0849 -1.4215
 4464TIP3    H234808   3.419   2.235   0.124  1.5414  1.6337  0.3887
 4465TIP3   OH234809   3.295   6.313  14.739  0.7885 -0.4768  0.2674
 4465TIP3    H134810   3.281   6.300  14.645 -0.9096  1.2150  0.2655
 4465TIP3    H234811   3.390   6.303  14.750  1.0440 -0.4443 -1.6512
 4466TIP3   OH234812   1.037   0.329   3.596 -0.3930  0.5940 -0.2830
 4466TIP3    H134813   1.094   0.287   3.661 -0.3497  0.5686 -0.3370
 4466TIP3    H234814   1.043   0.422   3.614 -1.6569  0.4827  0.7971
 4467TIP3   OH234815   5.440   1.003  16.294  0.0009 -0.2739 -0.1365
 4467TIP3    H134816   5.507   1.001  16.362  0.0831 -1.3786 -0.2440
 4467TIP3    H234817   5.367   0.953  16.332  0.3036 -1.4851 -1.1101
 4468TIP3   OH234818   0.659   2.814   2.476 -0.3407 -0.2033  0.2429
 4468TIP3    H134819   0.569   2.848   2.472 -0.3268 -0.0091  1.5905
 4468TIP3    H234820   0.664   2.767   2.559  1.1040  0.6530  0.6579
 4469TIP3   OH234821   2.357   4.760  12.940 -0.5496  0.0020 -0.1414
 4469TIP3    H134822   2.407   4.754  12.859  0.0550  0.2941  0.2043
 4469TIP3    H234823   2.266   4.748  12.913 -0.1685 -2.1171 -0.5736
 4470TIP3   OH234824   2.242   3.483   2.296  0.0716  0.1991  0.2927
 4470TIP3    H134825   2.180   3.428   2.345  1.2821 -1.6954 -0.2439
 4470TIP3    H234826   2.282   3.539   2.363 -2.0664  1.3036  0.6660
 4471TIP3   OH234827   2.395   5.636   3.624  0.0487 -0.4030  0.2440
 4471TIP3    H134828   2.459   5.587   3.675 -0.0757 -1.1974 -0.3447
 4471TIP3    H234829   2.438   5.719   3.604 -0.4129  0.4782  2.7836
 4472TIP3   OH234830   2.682   1.167  15.540 -0.1218 -0.7347 -0.0339
 4472TIP3    H134831   2.727   1.182  15.457 -2.5780 -1.9630 -1.6402
 4472TIP3    H234832   2.743   1.113  15.590  2.8236  2.7791  0.3572
 4473TIP3   OH234833   0.473   5.870  15.102 -0.1336 -0.3356 -0.3603
 4473TIP3    H134834   0.396   5.814  15.093 -1.7404  1.8350 -0.4604
 4473TIP3    H234835   0.456   5.923  15.179  1.6784 -0.4467  0.1406
 4474TIP3   OH234836   2.977   5.162   0.103  0.2254 -0.2875  0.4234
 4474TIP3    H134837   2.970   5.248   0.063  3.4728  0.7590  1.8851
 4474TIP3    H234838   3.048   5.119   0.055  0.1677 -1.2623  1.1992
 4475TIP3   OH234839   0.542   5.409   3.098  0.4687 -0.5095  0.0715
 4475TIP3    H134840   0.483   5.377   3.031 -0.3144  0.5749  0.2408
 4475TIP3    H234841   0.486   5.458   3.159  1.0736 -1.8775  1.7852
 4476TIP3   OH234842   5.319   4.964   2.367  0.5710 -0.4648  0.0532
 4476TIP3    H134843   5.277   4.904   2.306 -0.1198  0.4445 -0.3798
 4476TIP3    H234844   5.301   5.051   2.332  1.2505  0.0170  0.8647
 4477TIP3   OH234845   6.001   4.686   6.310 -0.3731 -0.2976 -0.3669
 4477TIP3    H134846   5.959   4.614   6.357 -0.4513 -1.0164 -1.5296
 4477TIP3    H234847   5.937   4.757   6.312 -0.3305 -0.2883  0.7108
 4478TIP3   OH234848   6.315   0.144   5.548 -0.1350  0.4481 -0.2266
 4478TIP3    H134849   6.306   0.235   5.521 -0.5936  0.8847  1.3189
 4478TIP3    H234850   6.382   0.145   5.616  1.7307 -0.7710 -1.9982
 4479TIP3   OH234851   2.148   3.290   3.313  0.1370  0.2199  0.0528
 4479TIP3    H134852   2.175   3.201   3.293  1.0697  0.1069  1.6995
 4479TIP3    H234853   2.204   3.345   3.258 -0.3126 -0.2078 -0.8311
 4480TIP3   OH234854   4.995   3.259   3.826  0.5166  0.1478  0.0618
 4480TIP3    H134855   5.008   3.340   3.777 -0.1166  1.1011  1.4540
 4480TIP3    H234856   4.935   3.283   3.897 -0.4518 -1.7538 -0.0806
 4481TIP3   OH234857   1.273   0.764  13.103  0.0924  0.3444  0.4367
 4481TIP3    H134858   1.318   0.846  13.126  1.1025 -0.1865  0.3511
 4481TIP3    H234859   1.333   0.719  13.044  0.0813 -1.0122  1.4290
 4482TIP3   OH234860   1.497   0.215   5.664  0.0074  0.2629  0.7892
 4482TIP3    H134861   1.543   0.189   5.744  0.5524 -0.7364  0.1695
 4482TIP3    H234862   1.556   0.189   5.593  0.7690  3.6104  0.1191
 4483TIP3   OH234863   3.536   2.848   6.680  0.6571  0.2716  0.6111
 4483TIP3    H134864   3.534   2.843   6.585 -1.7983 -0.0243  0.6342
 4483TIP3    H234865   3.552   2.941   6.699  1.6916  0.2363 -0.0739
 4484TIP3   OH234866   2.781   2.230   3.061  0.3340 -0.3513  0.0422
 4484TIP3    H134867   2.769   2.282   2.981 -0.6809 -0.4232  0.1415
 4484TIP3    H234868   2.725   2.273   3.126  0.0780 -1.1100  0.3281
 4485TIP3   OH234869   5.725   4.614  15.370  0.1128 -0.3498 -0.2380
 4485TIP3    H134870   5.682   4.534  15.400  0.1583 -0.3815 -0.2559
 4485TIP3    H234871   5.719   4.674  15.444  2.2341 -1.2057  0.6826
 4486TIP3   OH234872   1.819   3.840   0.226 -0.4556 -0.7755  0.3180
 4486TIP3    H134873   1.758   3.902   0.267 -0.5630 -0.7578  0.1362
 4486TIP3    H234874   1.765   3.764   0.205 -0.8326 -0.0411 -1.5130
 4487TIP3   OH234875   4.814   4.199  12.191  0.5742 -0.4754 -0.0525
 4487TIP3    H134876   4.843   4.276  12.240  0.7097 -0.2599 -0.4686
 4487TIP3    H234877   4.783   4.234  12.107 -1.3317 -0.6537  0.5511
 4488TIP3   OH234878   2.591   0.664   4.709  0.0795 -0.2448  0.5217
 4488TIP3    H134879   2.573   0.694   4.620  2.3680  0.7745  0.3727
 4488TIP3    H234880   2.619   0.574   4.700 -0.8179 -0.5162  0.3528
 4489TIP3   OH234881   4.552   2.752  11.125  0.1405  0.8291 -0.1665
 4489TIP3    H134882   4.617   2.803  11.078  3.1037 -1.4305  1.3011
 4489TIP3    H234883   4.519   2.689  11.061  2.2518 -0.5216  0.0231
 4490TIP3   OH234884   0.833   6.140  11.490 -0.7594  0.1254  0.1647
 4490TIP3    H134885   0.779   6.147  11.569 -0.1008  1.0488  0.5344
 4490TIP3    H234886   0.913   6.188  11.511 -0.5166  0.2517 -1.0158
 4491TIP3   OH234887   1.314   5.359   4.123 -0.2213 -0.1147  0.4482
 4491TIP3    H134888   1.225   5.328   4.142 -2.4083  4.1049 -2.0257
 4491TIP3    H234889   1.328   5.431   4.185  0.8971  0.1549 -0.1039
 4492TIP3   OH234890   5.361   4.672  12.733  0.5193 -0.4905  0.1651
 4492TIP3    H134891   5.315   4.653  12.814 -0.6206 -0.8015 -0.5524
 4492TIP3    H234892   5.429   4.735  12.759 -0.1977 -0.1416  1.2504
 4493TIP3   OH234893   0.883   1.036  12.931  0.3040  0.7560  0.6295
 4493TIP3    H134894   0.828   1.113  12.948  0.0295  0.6899  0.0505
 4493TIP3    H234895   0.836   0.964  12.975 -1.1119  0.3363 -1.5022
 4494TIP3   OH234896   3.046   2.452  15.642  0.2834 -0.1934  0.2759
 4494TIP3    H134897   3.031   2.519  15.709 -0.3047 -0.4961  0.4531
 4494TIP3    H234898   3.069   2.374  15.692 -0.0379 -0.3889  0.1135
 4495TIP3   OH234899   2.957   2.010   6.578 -0.1045 -0.3356 -0.3809
 4495TIP3    H134900   2.897   2.060   6.524  0.2810  0.9884  0.3788
 4495TIP3    H234901   3.041   2.016   6.532  0.3175  1.1403  0.5456
 4496TIP3   OH234902   5.843   3.508  11.786 -0.6640  0.1207  0.7317
 4496TIP3    H134903   5.812   3.543  11.703  0.8674  0.9875  0.5188
 4496TIP3    H234904   5.778   3.441  11.809 -0.8219 -0.4813 -1.3950
 4497TIP3   OH234905   3.868   6.201   3.145  0.2646  0.5539  0.0615
 4497TIP3    H134906   3.804   6.272   3.155  0.8897  1.0720  0.3936
 4497TIP3    H234907   3.872   6.186   3.051  0.7522  1.5306 -0.0774
 4498TIP3   OH234908   4.470   5.506   4.028  0.2186 -0.0434  0.5361
 4498TIP3    H134909   4.380   5.527   4.003 -0.4667 -0.1653  2.8552
 4498TIP3    H234910   4.500   5.584   4.075  0.8875 -0.5289  0.9063
 4499TIP3   OH234911   6.720   6.140  14.087  0.3030  0.7076 -0.1378
 4499TIP3    H134912   6.780   6.091  14.142 -0.1184 -0.9153 -1.0841
 4499TIP3    H234913   6.776   6.199  14.037  0.9469  0.3155  0.1122
 4500TIP3   OH234914   0.200   6.397   3.572 -0.0934 -0.6318  0.0175
 4500TIP3    H134915   0.245   6.420   3.490 -1.2499  2.0919  0.1090
 4500TIP3    H234916   0.115   6.363   3.544 -1.4013  2.4263  0.1007
 4501TIP3   OH234917   1.227   1.542   1.484 -0.3465  0.1920 -0.7071
 4501TIP3    H134918   1.268   1.626   1.503  0.7781 -0.1764 -1.4723
 4501TIP3    H234919   1.283   1.477   1.526 -1.6817 -0.1330  0.6155
 4502TIP3   OH234920   1.091   3.988  12.074  0.0081 -0.4973  0.0125
 4502TIP3    H134921   1.069   3.968  11.983 -1.6881  2.0867 -0.1709
 4502TIP3    H234922   1.043   4.068  12.094  0.4429 -0.9607  3.1712
 4503TIP3   OH234923   1.181   0.569  11.777  0.1042 -0.4271 -0.2570
 4503TIP3    H134924   1.269   0.538  11.798  0.5702  1.2273  0.2903
 4503TIP3    H234925   1.190   0.612  11.692 -0.1411 -0.1164 -0.1278
 4504TIP3   OH234926   2.955   2.649  12.577 -0.1298  0.7565  0.1583
 4504TIP3    H134927   2.864   2.630  12.553 -0.1247 -1.2080  1.5894
 4504TIP3    H234928   3.008   2.597  12.517  0.1026  2.3063 -1.0262
 4505TIP3   OH234929   6.337   2.033   4.170 -0.2540  0.3644 -0.0683
 4505TIP3    H134930   6.257   2.027   4.118 -0.5346 -1.2351  0.4944
 4505TIP3    H234931   6.397   2.084   4.117 -1.6204  1.5298 -0.5335
 4506TIP3   OH234932   1.848   3.003   6.048 -0.0941 -0.5580  0.7330
 4506TIP3    H134933   1.935   2.985   6.085 -1.1353 -2.8046  2.2297
 4506TIP3    H234934   1.845   2.953   5.967  0.5627  0.7433 -0.0919
 4507TIP3   OH234935   3.291   4.063   0.004  0.0343 -0.3914 -0.3375
 4507TIP3    H134936   3.287   4.008   0.083  0.8402  0.0448  0.0223
 4507TIP3    H234937   3.312   4.151   0.038 -0.3986 -0.0403 -0.9777
 4508TIP3   OH234938   4.281   6.357  14.659  0.1958 -0.1187 -0.5213
 4508TIP3    H134939   4.231   6.435  14.633  0.7501  0.5836  0.4752
 4508TIP3    H234940   4.219   6.285  14.651 -1.3859  0.9223  1.9684
 4509TIP3   OH234941   4.682   5.909   5.812 -0.2271 -0.1006  0.0410
 4509TIP3    H134942   4.721   5.922   5.898 -1.7853  0.0774  0.7180
 4509TIP3    H234943   4.602   5.860   5.828 -1.1302  0.9233 -1.1842
 4510TIP3   OH234944   1.309   3.863  14.818  0.2335 -0.1377  0.1814
 4510TIP3    H134945   1.288   3.887  14.728  0.1830 -0.8823 -0.0053
 4510TIP3    H234946   1.380   3.799  14.810  0.3297 -0.0973  0.6781
 4511TIP3   OH234947   6.733   4.732   5.263  0.2745  0.0278  0.9522
 4511TIP3    H134948   6.673   4.799   5.296 -0.8310 -0.0592 -0.8136
 4511TIP3    H234949   6.702   4.714   5.175  2.1118 -0.9940  0.4945
 4512TIP3   OH234950   2.084   2.974   0.813 -0.2697  0.3099  0.6414
 4512TIP3    H134951   2.081   2.878   0.817  0.8935  0.2871  1.2563
 4512TIP3    H234952   2.027   3.002   0.884 -1.9776  0.1067 -0.6046
 4513TIP3   OH234953   5.350   1.859  13.887 -0.1030 -0.0318 -0.2655
 4513TIP3    H134954   5.304   1.849  13.803  1.4574 -0.5043 -1.0744
 4513TIP3    H234955   5.430   1.906  13.864 -0.3771  1.2001  1.2157
 4514TIP3   OH234956   0.529   1.683  14.352 -0.5474 -0.3056  0.1060
 4514TIP3    H134957   0.595   1.721  14.294  0.2117 -1.8619 -0.0783
 4514TIP3    H234958   0.577   1.620  14.406 -1.8409 -1.3354  0.0902
 4515TIP3   OH234959   3.941   0.217  17.203 -0.5296  0.5991  0.2533
 4515TIP3    H134960   3.952   0.275  17.278  0.4911  1.0723 -0.2565
 4515TIP3    H234961   4.016   0.236  17.146  0.4312 -1.9492  0.5764
 4516TIP3   OH234962   1.029   3.705   2.578 -0.3709 -0.1765 -0.2588
 4516TIP3    H134963   1.081   3.686   2.656 -0.4830  0.3565 -0.0537
 4516TIP3    H234964   0.941   3.676   2.601 -0.8151  1.7394  0.5225
 4517TIP3   OH234965   2.912   0.460   5.575 -0.0676  0.5073  0.4749
 4517TIP3    H134966   2.880   0.474   5.664  0.2378  1.1189  0.4902
 4517TIP3    H234967   2.993   0.411   5.586 -1.5900 -2.1051  0.3791
 4518TIP3   OH234968   0.904   2.875  14.659  0.1905 -0.4067 -0.0470
 4518TIP3    H134969   0.852   2.936  14.711  1.5302  0.8069 -0.1057
 4518TIP3    H234970   0.841   2.837  14.597 -1.1905 -1.0805  1.7234
 4519TIP3   OH234971   2.141   3.786  11.367  0.0038 -0.6162  0.5256
 4519TIP3    H134972   2.205   3.858  11.367 -0.0545 -0.5625  0.7392
 4519TIP3    H234973   2.099   3.791  11.282 -0.8342  0.3559  0.9798
 4520TIP3   OH234974   6.709   3.942  11.740  0.4373  0.3682  0.0057
 4520TIP3    H134975   6.738   3.941  11.649 -2.0483 -0.8732 -0.8131
 4520TIP3    H234976   6.702   3.850  11.764 -2.7502  0.6195  0.1667
 4521TIP3   OH234977   0.818   0.364   4.085  0.3390 -0.7870 -0.2318
 4521TIP3    H134978   0.898   0.334   4.042  0.9340  1.5457 -0.8123
 4521TIP3    H234979   0.841   0.450   4.120 -2.1167  0.1613 -0.9387
 4522TIP3   OH234980   3.555   6.611   5.043  0.2034  0.0722 -0.1933
 4522TIP3    H134981   3.650   6.604   5.043  0.1257 -0.9837  0.2533
 4522TIP3    H234982   3.533   6.639   5.132  0.0655 -0.0532 -0.1884
 4523TIP3   OH234983   6.459   0.936   3.474  0.1919  0.2032  0.0960
 4523TIP3    H134984   6.520   0.954   3.404  0.5078 -1.7556 -0.1688
 4523TIP3    H234985   6.513   0.927   3.552  0.1970 -0.8103 -0.0096
 4524TIP3   OH234986   0.114   4.248   4.316 -0.2291  0.9634  0.2857
 4524TIP3    H134987   0.106   4.343   4.325  0.3701  1.3944 -3.0591
 4524TIP3    H234988   0.208   4.233   4.307 -0.3934  0.1844 -0.2023
 4525TIP3   OH234989   1.347   2.523  16.397  0.1174  0.6552 -0.2445
 4525TIP3    H134990   1.397   2.442  16.405 -0.0501  0.4939 -0.7633
 4525TIP3    H234991   1.258   2.499  16.422 -0.0675  0.5242 -1.0121
 4526TIP3   OH234992   6.502   3.375  17.234  0.3878 -0.7557 -0.1165
 4526TIP3    H134993   6.451   3.453  17.214  0.5180 -1.0546 -1.6822
 4526TIP3    H234994   6.463   3.306  17.179  1.3746 -1.3802 -0.0456
 4527TIP3   OH234995   5.180   1.909   0.239  0.3187 -0.0255  0.0995
 4527TIP3    H134996   5.098   1.909   0.189  2.0148  0.7640 -2.7465
 4527TIP3    H234997   5.207   1.817   0.240  0.6049  0.0359 -1.0300
 4528TIP3   OH234998   6.597   4.725   0.365 -0.3289 -0.5214 -0.4832
 4528TIP3    H134999   6.686   4.714   0.332  0.1854 -0.1450  0.7735
 4528TIP3    H235000   6.598   4.808   0.411 -1.4509 -0.3106 -0.8164
 4529TIP3   OH235001   1.732   2.987  15.729 -0.7362 -0.4815 -0.4132
 4529TIP3    H135002   1.760   2.950  15.813 -0.5164  1.3773  0.3362
 4529TIP3    H235003   1.644   3.021  15.746 -0.2061  1.0023 -0.5968
 4530TIP3   OH235004   1.401   1.579   4.423 -0.3529  0.4277  0.1289
 4530TIP3    H135005   1.418   1.584   4.329 -1.6293 -2.6179 -0.3204
 4530TIP3    H235006   1.306   1.586   4.431 -0.5799 -2.5670  0.8456
 4531TIP3   OH235007   3.285   3.614  15.871 -0.2326  0.0022 -0.5936
 4531TIP3    H135008   3.328   3.533  15.843  0.3482  0.7083 -1.8323
 4531TIP3    H235009   3.232   3.640  15.795  0.4758  1.3725 -0.6305
 4532TIP3   OH235010   0.238   3.140   4.732  0.3373 -0.3808 -0.7268
 4532TIP3    H135011   0.194   3.100   4.657  1.5910 -1.9739 -0.6212
 4532TIP3    H235012   0.330   3.145   4.706  0.7840 -0.9764  0.7033
 4533TIP3   OH235013   2.208   4.633  11.652  0.4933 -0.2721  0.1588
 4533TIP3    H135014   2.156   4.556  11.676 -3.2224  1.6782 -1.3217
 4533TIP3    H235015   2.248   4.609  11.568  0.6158 -1.1208  0.4482
 4534TIP3   OH235016   4.485   0.967  16.785 -0.0076 -0.3408  0.2293
 4534TIP3    H135017   4.480   1.058  16.757  0.6844 -0.3648  0.0225
 4534TIP3    H235018   4.575   0.941  16.766  0.1138 -0.7385  1.3020
 4535TIP3   OH235019   0.315   3.553  15.552  0.1829 -0.8181 -0.6639
 4535TIP3    H135020   0.410   3.551  15.540  0.2166 -0.3312 -0.4780
 4535TIP3    H235021   0.279   3.561  15.463  0.3178 -0.8793 -0.7233
 4536TIP3   OH235022   3.271   5.010   0.341 -0.1955 -0.0624  0.2044
 4536TIP3    H135023   3.241   5.047   0.424 -0.0401 -0.4591  0.4327
 4536TIP3    H235024   3.363   5.036   0.335 -0.0811 -0.4247  0.3727
 4537TIP3   OH235025   3.407   0.493   5.516  0.1423  0.1743  0.2887
 4537TIP3    H135026   3.474   0.449   5.464 -0.1899 -1.5976  1.3194
 4537TIP3    H235027   3.324   0.469   5.473  0.1094  1.9396 -0.6821
 4538TIP3   OH235028   6.513   1.253   2.637 -0.2105 -0.0339 -0.4317
 4538TIP3    H135029   6.444   1.192   2.611 -0.3158  0.4886 -1.4093
 4538TIP3    H235030   6.525   1.309   2.561  1.0829  0.0799 -0.1500
 4539TIP3   OH235031   0.639   0.677  14.461 -0.1407 -0.1187  0.5035
 4539TIP3    H135032   0.728   0.646  14.442 -0.1656 -0.4745  0.9632
 4539TIP3    H235033   0.609   0.716  14.379  0.3398 -0.2411  0.2708
 4540TIP3   OH235034   3.833   2.774   4.224 -0.1623 -0.8198 -0.1060
 4540TIP3    H135035   3.906   2.817   4.269 -0.3416  0.0104 -0.6012
 4540TIP3    H235036   3.788   2.844   4.178  0.9054 -1.8648 -2.8473
 4541TIP3   OH235037   4.576   5.226  14.117  0.2818  0.4521 -0.3562
 4541TIP3    H135038   4.650   5.221  14.057 -0.3505  1.6250 -1.2690
 4541TIP3    H235039   4.544   5.316  14.109 -0.8953  0.1305  0.4381
 4542TIP3   OH235040   3.934   1.927  14.313  0.2986 -0.3725  0.3923
 4542TIP3    H135041   3.942   2.016  14.347  0.5246 -0.6700  1.1265
 4542TIP3    H235042   3.845   1.900  14.338  0.3599 -0.4818  0.4955
 4543TIP3   OH235043   4.848   0.177   4.190 -0.0718  0.5482  0.0431
 4543TIP3    H135044   4.832   0.240   4.120 -0.7653  0.8507  0.4670
 4543TIP3    H235045   4.870   0.231   4.266  3.5774  0.1408 -0.6465
 4544TIP3   OH235046   3.708   4.818   0.456 -0.4718 -0.3574  0.2330
 4544TIP3    H135047   3.637   4.839   0.516 -1.0246 -0.3082 -0.4386
 4544TIP3    H235048   3.736   4.902   0.420 -1.9774 -0.6250 -1.6506
 4545TIP3   OH235049   5.039   4.859   0.742  0.4443 -0.8585  0.9058
 4545TIP3    H135050   5.041   4.934   0.682  0.9632 -0.8106  0.9861
 4545TIP3    H235051   5.047   4.897   0.829  1.6278 -1.0781  0.8940
 4546TIP3   OH235052   6.283   3.823   0.154  0.1426 -0.0807  0.0978
 4546TIP3    H135053   6.277   3.898   0.095  0.0306  0.8976  1.3509
 4546TIP3    H235054   6.376   3.800   0.153  0.1693  0.0326 -0.3239
 4547TIP3   OH235055   3.104   2.883  15.994 -0.2797  0.6669 -0.0991
 4547TIP3    H135056   3.098   2.951  16.062  0.8484 -0.0611  0.7450
 4547TIP3    H235057   3.087   2.801  16.040 -0.4450  0.2553 -0.8773
 4548TIP3   OH235058   2.990   5.839  13.887  0.1110  0.9894  0.0193
 4548TIP3    H135059   2.966   5.905  13.952 -1.7034  1.3657 -1.0071
 4548TIP3    H235060   2.958   5.874  13.804 -0.2637 -0.8544 -0.6463
 4549TIP3   OH235061   3.040   1.243  16.944 -0.3938 -0.6715  0.2366
 4549TIP3    H135062   3.128   1.282  16.938 -0.9743  0.4947 -1.1287
 4549TIP3    H235063   3.056   1.150  16.953  1.0050 -0.4861 -0.1834
 4550TIP3   OH235064   2.640   1.092   2.449 -0.3212  0.7319  0.1411
 4550TIP3    H135065   2.545   1.102   2.436 -0.7051 -0.2264  2.0204
 4550TIP3    H235066   2.655   0.998   2.448  0.7023  0.8932 -0.6243
 4551TIP3   OH235067   0.196   3.806  12.281 -0.5759 -0.0744  0.2514
 4551TIP3    H135068   0.223   3.775  12.195  0.7706 -1.0350  0.9907
 4551TIP3    H235069   0.219   3.899  12.282  0.6263 -0.3579  0.0393
 4552TIP3   OH235070   1.244   5.381  13.319  0.2040  0.6313 -0.0370
 4552TIP3    H135071   1.339   5.394  13.320  0.2413  0.2848  0.9113
 4552TIP3    H235072   1.207   5.469  13.315  0.5220  0.8834  2.0687
 4553TIP3   OH235073   0.563   2.856  13.305 -0.0501  0.0040  0.1864
 4553TIP3    H135074   0.627   2.913  13.262  0.9426 -0.2676  1.2952
 4553TIP3    H235075   0.493   2.915  13.333  1.4777  0.8661  2.2942
 4554TIP3   OH235076   0.550   3.009   0.409 -0.2950 -0.2533  0.3366
 4554TIP3    H135077   0.500   3.055   0.477  1.6711 -0.0493  1.6873
 4554TIP3    H235078   0.602   3.078   0.367  1.0471 -0.8926  0.9204
 4555TIP3   OH235079   2.892   0.980  15.660  0.1346  0.3574 -0.4457
 4555TIP3    H135080   2.841   0.913  15.615 -0.3238  0.3552  0.0649
 4555TIP3    H235081   2.976   0.937  15.680 -0.8133 -0.6782  1.4740
 4556TIP3   OH235082   0.814   3.272   1.834  0.7488 -0.3584  0.1286
 4556TIP3    H135083   0.749   3.249   1.768  0.5388  1.2251 -0.2102
 4556TIP3    H235084   0.865   3.192   1.845  0.4093 -0.8144 -1.4987
 4557TIP3   OH235085   1.962   0.912   6.402  0.3080 -0.0606  0.6000
 4557TIP3    H135086   1.889   0.933   6.461  0.6706 -0.1262  1.0709
 4557TIP3    H235087   1.984   0.822   6.423  1.2901  0.3307  1.2759
 4558TIP3   OH235088   1.780   3.980   2.714  0.3137 -0.0668  0.0889
 4558TIP3    H135089   1.749   3.947   2.629 -0.6027  1.7035 -0.3002
 4558TIP3    H235090   1.867   4.015   2.695  0.4274 -0.3713  0.0458
 4559TIP3   OH235091   2.586   2.861   1.368 -0.0197  0.2383 -0.2538
 4559TIP3    H135092   2.673   2.893   1.394  0.5973 -0.2106 -1.7552
 4559TIP3    H235093   2.596   2.835   1.277 -1.0975 -2.2252  0.3153
 4560TIP3   OH235094   5.393   5.940  16.858  0.0651  0.0845  0.0107
 4560TIP3    H135095   5.395   5.853  16.817 -1.2682 -0.1301  0.3610
 4560TIP3    H235096   5.363   5.998  16.789  0.1190  0.1182  0.0164
 4561TIP3   OH235097   0.715   6.623   5.627  0.1494  0.0715  0.1416
 4561TIP3    H135098   0.788   6.565   5.645  0.2557  0.2499  0.2840
 4561TIP3    H235099   0.755   6.710   5.617  0.1864 -0.1134 -1.5787
 4562TIP3   OH235100   4.739   1.917   1.357 -0.1269  0.0482  0.1863
 4562TIP3    H135101   4.714   1.886   1.444  0.4602  1.5392  0.9003
 4562TIP3    H235102   4.663   1.967   1.327 -1.6893 -3.2246 -1.6024
 4563TIP3   OH235103   4.442   3.180   2.169  0.3543 -0.1631  0.1020
 4563TIP3    H135104   4.430   3.097   2.124  0.9568  0.1879 -0.7144
 4563TIP3    H235105   4.438   3.158   2.262  1.3958 -1.2373 -0.1040
 4564TIP3   OH235106   1.522   1.742  16.519 -0.2135  0.0504  0.2149
 4564TIP3    H135107   1.552   1.651  16.522  0.4969  0.2859  0.3759
 4564TIP3    H235108   1.528   1.772  16.610  0.6881  0.6172 -0.0267
 4565TIP3   OH235109   5.376   1.825  12.436 -0.7099 -0.4043 -0.5345
 4565TIP3    H135110   5.336   1.739  12.449 -2.1602  0.0253 -1.9635
 4565TIP3    H235111   5.313   1.886  12.475  0.0426  0.0613 -0.0381
 4566TIP3   OH235112   0.113   6.307  12.517 -0.2507 -0.6167  0.4961
 4566TIP3    H135113   0.153   6.382  12.561  1.1254 -0.6905 -0.5848
 4566TIP3    H235114   0.187   6.248  12.499 -0.6155 -0.1907 -2.6857
 4567TIP3   OH235115   0.561   2.365   1.939  0.0182 -0.3377 -0.2376
 4567TIP3    H135116   0.652   2.340   1.926  0.0448 -0.0637 -0.5941
 4567TIP3    H235117   0.564   2.460   1.951 -0.2121 -0.3394 -0.1539
 4568TIP3   OH235118   6.598   3.710  13.452 -0.7545  0.6059  0.0262
 4568TIP3    H135119   6.570   3.668  13.371 -0.0769  1.5713 -0.7035
 4568TIP3    H235120   6.535   3.679  13.517 -0.9324 -0.6567 -0.7314
 4569TIP3   OH235121   3.476   0.117  16.131  0.2311 -0.2079 -0.4119
 4569TIP3    H135122   3.507   0.034  16.167 -0.2262  0.3262  1.2803
 4569TIP3    H235123   3.469   0.102  16.037  0.1125 -2.1038 -0.1164
 4570TIP3   OH235124   2.779   1.247  12.533  0.3916  0.1644 -0.6065
 4570TIP3    H135125   2.751   1.164  12.572  0.0727  0.5919  0.0834
 4570TIP3    H235126   2.858   1.271  12.582  2.0579 -1.0557 -2.5652
 4571TIP3   OH235127   1.041   5.901  14.216 -0.0810 -0.1405 -0.2560
 4571TIP3    H135128   1.004   5.986  14.190 -0.6742 -0.4255 -0.3572
 4571TIP3    H235129   1.061   5.858  14.132 -2.2927 -1.1918 -0.2849
 4572TIP3   OH235130   3.263   6.214  14.224  0.0092 -0.0014  0.0694
 4572TIP3    H135131   3.174   6.247  14.239  0.5390  1.0770  0.9054
 4572TIP3    H235132   3.281   6.158  14.299  0.1403 -0.0126  0.0285
 4573TIP3   OH235133   2.185   3.143  16.966  0.3668 -0.4651 -0.4815
 4573TIP3    H135134   2.138   3.093  16.898 -0.8248  0.5658 -0.4400
 4573TIP3    H235135   2.175   3.235  16.939  0.3220 -0.0797  0.8159
 4574TIP3   OH235136   2.165   1.523   1.936 -0.1255 -0.3005 -0.4709
 4574TIP3    H135137   2.186   1.611   1.905  0.4085  0.3197  1.5432
 4574TIP3    H235138   2.094   1.537   1.999  1.9104 -0.9251  2.0622
 4575TIP3   OH235139   6.369   0.640  13.272 -0.4074  0.0893 -0.6498
 4575TIP3    H135140   6.293   0.627  13.216  1.1403 -1.0737 -2.5728
 4575TIP3    H235141   6.346   0.713  13.329 -2.2621  0.9196 -2.4254
 4576TIP3   OH235142   0.953   5.907  12.311  0.0027  0.4731  0.0389
 4576TIP3    H135143   0.988   5.832  12.263 -1.6587 -0.7328  0.6392
 4576TIP3    H235144   0.999   5.906  12.395 -0.4342 -0.2390  0.2714
 4577TIP3   OH235145   0.257   3.546  11.416  0.6906  0.4100  0.6599
 4577TIP3    H135146   0.296   3.556  11.328  0.0932 -1.0667  0.2169
 4577TIP3    H235147   0.288   3.623  11.464  0.6147  1.5038 -0.9976
 4578TIP3   OH235148   3.209   3.943   0.897 -0.6092  0.4465  0.3106
 4578TIP3    H135149   3.234   4.027   0.934 -1.2614  0.8678 -0.1932
 4578TIP3    H235150   3.138   3.964   0.836 -0.4324 -0.3974 -0.1931
 4579TIP3   OH235151   5.826   3.722   3.718 -0.0389  0.0360 -0.4481
 4579TIP3    H135152   5.743   3.722   3.765  0.6615  0.4229  0.8070
 4579TIP3    H235153   5.889   3.686   3.780  0.9942  0.9983 -0.9209
 4580TIP3   OH235154   1.462   3.806  16.908 -0.3333  0.0347  0.3532
 4580TIP3    H135155   1.396   3.875  16.913  1.1095  1.4754  0.0510
 4580TIP3    H235156   1.543   3.852  16.885  0.8204 -1.6581  0.9106
 4581TIP3   OH235157   0.200   2.088  13.714  0.3338  0.6002  0.1461
 4581TIP3    H135158   0.115   2.128  13.734  1.7079  2.0012  3.5851
 4581TIP3    H235159   0.261   2.162  13.708  1.5547 -0.4605 -1.1087
 4582TIP3   OH235160   3.584   0.915  14.391 -0.4048  0.5396 -0.3170
 4582TIP3    H135161   3.659   0.874  14.434 -0.3205 -0.1413 -1.1073
 4582TIP3    H235162   3.507   0.877  14.435 -0.3001  0.7003  0.0067
 4583TIP3   OH235163   5.272   1.943   5.167 -0.4589 -0.2072 -0.5944
 4583TIP3    H135164   5.183   1.978   5.177 -0.7185 -1.0321  0.1076
 4583TIP3    H235165   5.311   1.952   5.253  0.3445  0.6778 -1.0466
 4584TIP3   OH235166   5.033   5.784  14.766  0.0006  0.0664  0.0637
 4584TIP3    H135167   4.960   5.742  14.812 -0.9238  0.7403 -0.7435
 4584TIP3    H235168   4.992   5.823  14.688  1.6114 -1.5392 -1.6275
 4585TIP3   OH235169   2.179   2.550  11.476 -0.0029 -0.0178  0.5644
 4585TIP3    H135170   2.267   2.575  11.503 -0.8911  1.4356  2.2118
 4585TIP3    H235171   2.124   2.567  11.553 -1.9233  0.2889 -0.8234
 4586TIP3   OH235172   1.116   3.694   1.091  0.4500 -0.2583 -0.0839
 4586TIP3    H135173   1.131   3.703   1.185 -0.2323 -0.1703  0.0198
 4586TIP3    H235174   1.203   3.677   1.055  0.4464 -2.3132  0.7996
 4587TIP3   OH235175   5.500   4.388  16.667  0.1911  0.1782 -0.3709
 4587TIP3    H135176   5.594   4.378  16.648  0.3495 -1.9309  1.3131
 4587TIP3    H235177   5.497   4.402  16.762 -1.2369 -0.2521 -0.3548
 4588TIP3   OH235178   0.099   4.451  16.301 -0.0898 -0.0064 -0.3431
 4588TIP3    H135179   0.115   4.359  16.321  1.5754 -0.1797 -2.2182
 4588TIP3    H235180   0.023   4.475  16.354 -0.8355 -2.5753 -0.1768
 4589TIP3   OH235181   5.731   1.115   4.839 -0.1494  0.7595  0.2098
 4589TIP3    H135182   5.702   1.031   4.876 -0.0381  1.2453  1.4378
 4589TIP3    H235183   5.790   1.091   4.769 -0.6384 -0.2028  0.1142
 4590TIP3   OH235184   2.838   1.246  13.201  0.0441 -0.1106 -0.4919
 4590TIP3    H135185   2.876   1.322  13.246 -1.1761  0.7148 -0.8329
 4590TIP3    H235186   2.865   1.257  13.109  0.4248 -0.4441 -0.4193
 4591TIP3   OH235187   1.999   1.877   0.077 -0.2394  0.4523  0.2149
 4591TIP3    H135188   1.931   1.865   0.144  0.6865  0.6282  1.1986
 4591TIP3    H235189   1.980   1.811   0.011  1.0946 -2.3448  2.5271
 4592TIP3   OH235190   5.793   3.805  13.426  0.6301  0.4088  0.5251
 4592TIP3    H135191   5.878   3.841  13.402  0.7194  0.5975  1.1096
 4592TIP3    H235192   5.768   3.854  13.505 -1.3962  2.5172 -1.3386
 4593TIP3   OH235193   0.080   2.215   6.315  0.4557  0.1596  0.7827
 4593TIP3    H135194   0.038   2.139   6.357 -1.9821 -0.1884 -2.1359
 4593TIP3    H235195   0.099   2.186   6.226 -2.2256  3.4643 -0.9905
 4594TIP3   OH235196   3.287   2.244   3.650  0.2494  0.0941  0.5862
 4594TIP3    H135197   3.225   2.315   3.635 -0.7756 -0.8873  0.1750
 4594TIP3    H235198   3.233   2.170   3.677  1.0793 -1.2038 -1.2160
 4595TIP3   OH235199   6.201   4.169   1.809  0.3464  0.1609  0.3382
 4595TIP3    H135200   6.129   4.166   1.745  0.4883  0.1126  0.1806
 4595TIP3    H235201   6.222   4.262   1.815 -0.3664  0.2806  1.1011
 4596TIP3   OH235202   0.216   2.358  15.096  0.0605 -0.5950 -0.1075
 4596TIP3    H135203   0.126   2.370  15.066  0.4114 -2.3862 -2.0118
 4596TIP3    H235204   0.255   2.446  15.093 -1.1174 -0.0901 -0.9740
 4597TIP3   OH235205   5.961   0.633   5.300 -0.1296 -0.2194 -0.1186
 4597TIP3    H135206   6.025   0.633   5.372 -0.1884 -0.2891 -0.0658
 4597TIP3    H235207   5.962   0.723   5.267 -0.9632  0.1110  0.7420
 4598TIP3   OH235208   3.121   1.891  17.145  0.5308 -0.7301 -0.9111
 4598TIP3    H135209   3.036   1.850  17.131 -0.6082  0.6648  1.6578
 4598TIP3    H235210   3.115   1.975  17.100 -0.6972  0.8066  1.9966
 4599TIP3   OH235211   4.636   1.788   4.330  0.3296  0.3733 -0.0943
 4599TIP3    H135212   4.558   1.733   4.327 -0.1843  1.1200 -0.4939
 4599TIP3    H235213   4.647   1.810   4.422  0.0284  0.3253 -0.0480
 4600TIP3   OH235214   3.137   6.679  12.321  0.1993  0.1067 -0.6785
 4600TIP3    H135215   3.086   6.750  12.361 -0.6315  0.0285 -1.5836
 4600TIP3    H235216   3.086   6.600  12.339  1.0775 -0.2690  0.2448
 4601TIP3   OH235217   1.338   5.759  12.924  0.0568  0.1523  0.2115
 4601TIP3    H135218   1.272   5.819  12.891 -0.1318 -0.2283 -0.1073
 4601TIP3    H235219   1.362   5.705  12.849  1.3241  0.8144  0.1132
 4602TIP3   OH235220   2.984   1.546  11.677 -0.0641  0.1936  0.0567
 4602TIP3    H135221   3.003   1.518  11.587 -0.1103  0.1342  0.0645
 4602TIP3    H235222   3.060   1.596  11.704 -0.0957  0.3029 -0.0553
 4603TIP3   OH235223   2.997   4.910   5.784  0.5777 -0.1138 -0.0016
 4603TIP3    H135224   3.036   4.932   5.868  2.1674  0.8781 -0.9628
 4603TIP3    H235225   3.044   4.965   5.721 -0.4569 -0.9731 -1.5506
 4604TIP3   OH235226   3.718   3.854   3.047 -0.2569  0.2795 -0.8939
 4604TIP3    H135227   3.776   3.905   3.103 -0.8851  1.1563 -1.0233
 4604TIP3    H235228   3.705   3.909   2.970 -1.7871  0.4054 -0.5654
 4605TIP3   OH235229   6.331   0.225   3.864  0.7439  0.6247  0.6009
 4605TIP3    H135230   6.362   0.237   3.774  1.1413  2.0842  0.9026
 4605TIP3    H235231   6.243   0.262   3.864  0.2830 -0.4717  0.5332
 4606TIP3   OH235232   2.624   2.010   3.779 -0.7177  0.0480  0.1877
 4606TIP3    H135233   2.671   1.927   3.770 -0.3070  0.1547  1.2574
 4606TIP3    H235234   2.533   1.988   3.758 -0.5741 -0.6263  0.2476
 4607TIP3   OH235235   2.079   4.704   3.113  0.1064 -0.2292  0.5896
 4607TIP3    H135236   2.158   4.723   3.164  0.2541  0.0501  0.2595
 4607TIP3    H235237   2.082   4.766   3.040 -0.2915 -0.3833  0.4404
 4608TIP3   OH235238   0.670   0.325   3.089 -0.0691 -0.3299 -0.5005
 4608TIP3    H135239   0.642   0.388   3.155  2.5210  0.7001 -0.3408
 4608TIP3    H235240   0.613   0.249   3.103 -1.1285  0.7673  1.3567
 4609TIP3   OH235241   3.474   4.568   1.455  0.0873 -0.0710  0.1899
 4609TIP3    H135242   3.405   4.598   1.396  0.1212 -1.4434 -0.5549
 4609TIP3    H235243   3.455   4.612   1.538 -2.6032 -1.6086  0.4523
 4610TIP3   OH235244   3.148   5.029  17.118  0.0397  0.4831 -0.0637
 4610TIP3    H135245   3.210   5.091  17.080  0.1459  0.8781  0.7478
 4610TIP3    H235246   3.189   4.943  17.105  0.0265  0.5962 -0.9264
 4611TIP3   OH235247   0.890   5.673  11.547 -0.8429  0.1194  0.4564
 4611TIP3    H135248   0.864   5.672  11.454 -0.7073  1.5800  0.3885
 4611TIP3    H235249   0.973   5.624  11.549  0.7016  2.5856 -0.6991
 4612TIP3   OH235250   4.610   4.522  13.617  0.0759 -0.2195  0.1255
 4612TIP3    H135251   4.696   4.521  13.658 -0.8682 -1.7626  2.1055
 4612TIP3    H235252   4.555   4.468  13.673 -2.3647  1.2558 -0.7462
 4613TIP3   OH235253   5.506   5.133   1.512 -0.0226 -0.5615 -0.2097
 4613TIP3    H135254   5.411   5.130   1.519 -0.1756  1.3081 -1.0982
 4613TIP3    H235255   5.527   5.068   1.444 -0.8505  0.4380 -1.4490
 4614TIP3   OH235256   2.769   4.457  14.438  0.1491 -0.5156  0.3417
 4614TIP3    H135257   2.713   4.479  14.513  0.5182 -2.0852  1.1048
 4614TIP3    H235258   2.712   4.405  14.381 -0.4879  1.6762 -1.0691
 4615TIP3   OH235259   4.086   6.107   3.290  0.5343  0.2547  0.6906
 4615TIP3    H135260   4.158   6.137   3.235  0.4201 -1.3592 -0.3760
 4615TIP3    H235261   4.008   6.147   3.251  0.6583  0.6919  0.8802
 4616TIP3   OH235262   0.354   5.059  16.183  0.5426  0.3240  0.0347
 4616TIP3    H135263   0.295   5.009  16.126  0.2254  1.5433 -0.7267
 4616TIP3    H235264   0.323   5.149  16.176 -0.0530  0.4084  2.8029
 4617TIP3   OH235265   0.691   3.439  15.677  0.0470  0.1763  0.7149
 4617TIP3    H135266   0.686   3.486  15.760  1.2186  0.8775  0.3994
 4617TIP3    H235267   0.725   3.503  15.615 -0.3696 -0.4797 -0.2079
 4618TIP3   OH235268   6.512   2.196   2.919  0.1619 -0.0504 -0.4344
 4618TIP3    H135269   6.589   2.144   2.896  0.3241 -0.8486  1.8132
 4618TIP3    H235270   6.438   2.147   2.882  0.3363 -1.7787  1.4042
 4619TIP3   OH235271   2.116   3.213   0.047 -0.1299 -0.3121 -0.1350
 4619TIP3    H135272   2.183   3.267   0.006 -0.8507  2.2345  1.9173
 4619TIP3    H235273   2.158   3.178   0.126 -0.4403 -0.7489 -0.1594
 4620TIP3   OH235274   3.934   2.397   2.352 -0.0046 -0.0254 -0.1447
 4620TIP3    H135275   3.918   2.371   2.443  0.3724  0.8742  0.1943
 4620TIP3    H235276   3.849   2.391   2.309 -0.0501 -1.1318  0.0902
 4621TIP3   OH235277   5.274   3.937  11.834  0.2010 -0.0172 -0.1771
 4621TIP3    H135278   5.228   4.011  11.793  1.8797  1.5899  0.7717
 4621TIP3    H235279   5.243   3.937  11.924 -0.8989 -1.4015 -0.5481
 4622TIP3   OH235280   0.801   2.999   1.936  0.0459  0.0530 -0.2517
 4622TIP3    H135281   0.766   3.042   2.014  2.1814 -2.5049  2.2339
 4622TIP3    H235282   0.726   2.956   1.896 -0.7888 -0.1744  1.4991
 4623TIP3   OH235283   6.221   5.720   5.080 -0.3472  0.3937 -0.2685
 4623TIP3    H135284   6.303   5.756   5.114 -0.0749 -0.8686  0.4419
 4623TIP3    H235285   6.245   5.676   4.999 -0.2636 -0.2423  0.0985
 4624TIP3   OH235286   3.540   5.898   3.208  0.7364 -0.2244  0.0706
 4624TIP3    H135287   3.630   5.923   3.187  1.2196 -0.3820  1.9119
 4624TIP3    H235288   3.507   5.969   3.263 -1.0410  0.9453 -2.3952
 4625TIP3   OH235289   1.985   4.197  14.307  0.6389 -1.0120 -0.0243
 4625TIP3    H135290   1.960   4.225  14.219 -1.2416 -0.3606  0.6853
 4625TIP3    H235291   2.073   4.161  14.297  0.3388 -1.2088 -2.2142
 4626TIP3   OH235292   0.149   0.439  13.969 -0.2188 -0.2273 -0.3405
 4626TIP3    H135293   0.114   0.513  14.018  0.8925  1.6902 -2.3560
 4626TIP3    H235294   0.074   0.402  13.923 -0.2573  1.7204 -1.9115
 4627TIP3   OH235295   1.824   0.941  17.149 -0.0475  0.3271 -0.3956
 4627TIP3    H135296   1.914   0.943  17.119 -0.1928 -2.4979 -1.1390
 4627TIP3    H235297   1.830   0.920  17.242  0.0615  0.3657 -0.3943
 4628TIP3   OH235298   5.248   3.767   4.705  0.5818 -0.3827 -0.4201
 4628TIP3    H135299   5.303   3.836   4.668  1.7843 -0.0245  1.9327
 4628TIP3    H235300   5.292   3.685   4.682  1.9162 -0.1181  1.0710
 4629TIP3   OH235301   3.441   4.544   3.508  0.0157  0.5804 -0.1883
 4629TIP3    H135302   3.469   4.589   3.428  0.4157 -0.3231 -0.5619
 4629TIP3    H235303   3.456   4.608   3.578  0.3525  1.1136 -0.7457
 4630TIP3   OH235304   1.680   2.557  12.697  0.2720 -0.6576 -0.2510
 4630TIP3    H135305   1.769   2.569  12.664  0.6458 -1.5644  0.4060
 4630TIP3    H235306   1.625   2.563  12.619  0.9851 -0.8966 -0.7758
 4631TIP3   OH235307   6.105   4.857  11.680 -0.3678  0.8522 -0.2167
 4631TIP3    H135308   6.145   4.800  11.614 -1.6020  0.5270 -0.7012
 4631TIP3    H235309   6.128   4.946  11.652  1.0499  0.6204  0.2009
 4632TIP3   OH235310   2.249   3.931   4.357  0.3697 -0.4644 -0.3700
 4632TIP3    H135311   2.280   4.010   4.401  0.2419 -0.7372  0.2091
 4632TIP3    H235312   2.287   3.858   4.407  0.4814 -0.7742 -0.8943
 4633TIP3   OH235313   4.588   5.898  12.540  0.5359 -0.0959  0.6683
 4633TIP3    H135314   4.545   5.894  12.626 -0.8921 -0.2347 -0.0309
 4633TIP3    H235315   4.577   5.810  12.504 -0.4180  0.4228 -0.3635
 4634TIP3   OH235316   3.317   4.161  16.387  0.1563  0.5010  0.4427
 4634TIP3    H135317   3.275   4.096  16.443 -0.9323  0.3523 -0.5280
 4634TIP3    H235318   3.358   4.110  16.317 -1.6693  0.9236 -0.9536
 4635TIP3   OH235319   4.132   1.482  13.908  0.0408  0.2124 -0.1712
 4635TIP3    H135320   4.091   1.569  13.902  1.5000  1.0141  1.1560
 4635TIP3    H235321   4.214   1.491  13.860 -0.3164 -0.7783 -0.9843
 4636TIP3   OH235322   2.848   5.642  11.553 -0.2000  0.3372 -0.0456
 4636TIP3    H135323   2.758   5.668  11.532 -0.5410 -0.2587  0.6211
 4636TIP3    H235324   2.903   5.710  11.514 -1.0225  1.5328  0.8398
 4637TIP3   OH235325   3.929   0.446   1.333 -0.1724 -0.2102 -0.1769
 4637TIP3    H135326   4.023   0.441   1.348 -0.3449 -1.4449  0.5752
 4637TIP3    H235327   3.916   0.531   1.291  1.4651 -0.7259 -1.7814
 4638TIP3   OH235328   1.261   0.920  11.799  0.0284  0.2021  0.8094
 4638TIP3    H135329   1.248   1.012  11.777 -3.0585  0.1646  2.1871
 4638TIP3    H235330   1.242   0.873  11.718  1.0450  0.7462  0.2542
 4639TIP3   OH235331   5.486   2.178   3.585 -0.2219 -0.2762 -0.6513
 4639TIP3    H135332   5.567   2.184   3.535 -1.0186  0.7214 -1.8604
 4639TIP3    H235333   5.507   2.219   3.669  0.7064 -0.5974 -0.7217
 4640TIP3   OH235334   3.222   2.325   2.511 -0.0947  0.0958 -0.6262
 4640TIP3    H135335   3.225   2.294   2.421 -2.1528  0.1552 -0.7400
 4640TIP3    H235336   3.303   2.293   2.551  0.7904  0.0105 -2.4653
 4641TIP3   OH235337   5.150   6.663  14.992  0.2719  1.2052 -0.4382
 4641TIP3    H135338   5.215   6.664  15.063  1.2685  1.2970 -1.3310
 4641TIP3    H235339   5.070   6.629  15.032 -0.2145  4.5196  1.6332
 4642TIP3   OH235340   1.508   1.700  10.846  0.7838 -0.2828 -0.4971
 4642TIP3    H135341   1.452   1.676  10.773  0.1640  2.0477 -0.8304
 4642TIP3    H235342   1.572   1.761  10.809 -0.0475  1.5881  1.0328
 4643TIP3   OH235343   2.522   4.007   0.908  0.0465 -0.5083  0.2572
 4643TIP3    H135344   2.607   4.051   0.904  0.7165 -1.8000  0.0449
 4643TIP3    H235345   2.483   4.039   0.989 -0.1149  1.5922 -0.6274
 4644TIP3   OH235346   3.747   2.357  13.924 -0.5138 -0.6035 -1.3487
 4644TIP3    H135347   3.781   2.403  14.001 -2.3993  1.3765 -1.6667
 4644TIP3    H235348   3.742   2.265  13.952 -0.2197 -0.0796  0.5456
 4645TIP3   OH235349   6.739   5.265  15.952  0.0874 -0.3919 -0.4421
 4645TIP3    H135350   6.771   5.352  15.927  0.4381 -0.7314 -1.2093
 4645TIP3    H235351   6.801   5.235  16.018  0.1059 -0.1544 -0.3515
 4646TIP3   OH235352   5.928   1.201  11.504  0.1236 -0.1898  0.5412
 4646TIP3    H135353   5.835   1.220  11.491 -0.1878 -1.0532  1.4423
 4646TIP3    H235354   5.968   1.222  11.420 -0.6716  1.4857  0.5568
 4647TIP3   OH235355   4.128   4.005  11.865 -0.8940 -0.8358  0.4263
 4647TIP3    H135356   4.063   4.068  11.895 -0.3100  0.5461 -1.1425
 4647TIP3    H235357   4.122   4.007  11.769  1.5191 -0.5987  0.2436
 4648TIP3   OH235358   3.169   1.389   6.048  0.9915  0.1172  0.4511
 4648TIP3    H135359   3.237   1.333   6.084 -1.5683 -3.8433 -0.6340
 4648TIP3    H235360   3.116   1.414   6.124 -0.0692 -2.1268  0.4780
 4649TIP3   OH235361   4.408   0.595   2.225  0.4747  0.4827 -0.1132
 4649TIP3    H135362   4.445   0.508   2.238 -1.0546 -0.5901 -2.5318
 4649TIP3    H235363   4.392   0.628   2.314  3.2467 -0.7070  0.8640
 4650TIP3   OH235364   5.252   3.451   3.436  0.2995 -0.1305  0.2124
 4650TIP3    H135365   5.227   3.387   3.502  1.3285 -0.3298  0.4183
 4650TIP3    H235366   5.169   3.482   3.399 -0.1978 -1.8500 -0.1641
 4651TIP3   OH235367   1.799   4.133   1.865  1.0348 -0.5185  0.1246
 4651TIP3    H135368   1.859   4.128   1.791  0.7941  0.5811 -0.1578
 4651TIP3    H235369   1.719   4.090   1.834  1.0688 -0.4072 -0.1156
 4652TIP3   OH235370   5.803   0.667  13.502  0.2746 -0.2800  0.3488
 4652TIP3    H135371   5.869   0.717  13.453 -0.5457 -2.0294 -2.6156
 4652TIP3    H235372   5.720   0.708  13.479 -0.4078 -2.9442 -2.1246
 4653TIP3   OH235373   0.820   3.567  14.630 -0.6210  0.0439 -0.3014
 4653TIP3    H135374   0.803   3.557  14.724 -3.0500 -0.2124 -0.7292
 4653TIP3    H235375   0.906   3.527  14.617 -0.1888  0.1952  1.8191
 4654TIP3   OH235376   1.389   6.165   3.993 -0.4202  0.4016 -0.2047
 4654TIP3    H135377   1.465   6.223   3.999  0.6983 -0.9558 -1.2028
 4654TIP3    H235378   1.337   6.202   3.922 -0.3630  0.9192  0.0141
 4655TIP3   OH235379   5.903   0.234  13.662 -0.0595 -0.1687  0.3670
 4655TIP3    H135380   5.839   0.223  13.591  1.7107 -0.3116 -1.2265
 4655TIP3    H235381   5.945   0.318  13.643 -0.2257  0.2531  1.8063
 4656TIP3   OH235382   1.021   1.044  12.246 -0.5674  0.1294 -0.4797
 4656TIP3    H135383   1.042   1.076  12.159  0.4632 -1.9634 -1.0237
 4656TIP3    H235384   0.956   0.975  12.231  0.3898 -0.9647  0.3004
 4657TIP3   OH235385   4.837   4.191  17.220  0.0144  0.1537 -0.2026
 4657TIP3    H135386   4.863   4.123  17.282 -0.3251  0.5526  0.3807
 4657TIP3    H235387   4.744   4.173  17.203  0.3624 -0.5580 -1.3675
 4658TIP3   OH235388   0.297   0.224   4.887  0.0184  0.3502 -0.1630
 4658TIP3    H135389   0.208   0.236   4.855  0.2818  0.3969 -0.8846
 4658TIP3    H235390   0.287   0.209   4.981 -0.6749  1.2738 -0.0910
 4659TIP3   OH235391   0.128   2.815   4.299  0.7236 -0.0708 -0.2708
 4659TIP3    H135392   0.048   2.764   4.308 -0.4643  2.0115  1.5129
 4659TIP3    H235393   0.181   2.766   4.237 -2.6210 -0.6708 -2.8042
 4660TIP3   OH235394   3.664   6.395  16.378  0.0122 -0.1888  0.5128
 4660TIP3    H135395   3.711   6.403  16.461  1.1204 -1.1389 -0.0233
 4660TIP3    H235396   3.697   6.315  16.339 -0.4356  0.3022 -0.9054
 4661TIP3   OH235397   0.876   3.974  13.424  0.0541 -0.2822  0.1249
 4661TIP3    H135398   0.883   4.043  13.358 -1.2449  0.3021  0.5895
 4661TIP3    H235399   0.952   3.988  13.481  1.1840 -0.7854 -1.2139
 4662TIP3   OH235400   5.971   3.581   6.102 -0.6261  0.2528  0.1060
 4662TIP3    H135401   6.016   3.523   6.163 -1.7791 -1.2141 -0.3926
 4662TIP3    H235402   5.886   3.597   6.143 -0.1061  2.0665  0.5023
 4663TIP3   OH235403   0.071   5.160  16.748  0.4412  0.2418  0.3147
 4663TIP3    H135404   0.156   5.191  16.715  0.7184 -0.6738  0.1288
 4663TIP3    H235405   0.015   5.237  16.746  0.0370 -0.0235 -3.6274
 4664TIP3   OH235406   2.329   3.821  15.670 -0.0721  0.0878  0.1514
 4664TIP3    H135407   2.375   3.764  15.609  0.5783 -0.6668  1.3181
 4664TIP3    H235408   2.394   3.885  15.698 -0.0117 -0.3266  0.9866
 4665TIP3   OH235409   2.439   5.769   1.502 -0.0501  0.5572  0.0915
 4665TIP3    H135410   2.400   5.687   1.534 -0.1137  0.6312  0.2047
 4665TIP3    H235411   2.515   5.783   1.559 -0.2776  0.7934  0.3386
 4666TIP3   OH235412   1.889   4.680   0.595 -0.0303 -0.4913 -0.3693
 4666TIP3    H135413   1.818   4.642   0.646  0.6828 -1.1106  0.1797
 4666TIP3    H235414   1.968   4.661   0.646  0.3638  1.5944 -0.1677
 4667TIP3   OH235415   1.896   6.173  13.183 -0.2045  0.1812 -0.2802
 4667TIP3    H135416   1.971   6.213  13.139  0.9455 -0.1602  1.3034
 4667TIP3    H235417   1.845   6.247  13.216  0.0296  0.4004 -0.4110
 4668TIP3   OH235418   4.366   0.255  13.898 -0.2633 -0.5898 -0.2064
 4668TIP3    H135419   4.278   0.292  13.907 -0.1006 -0.0223 -0.8902
 4668TIP3    H235420   4.421   0.311  13.953 -0.1303 -0.2312 -0.7070
 4669TIP3   OH235421   2.791   4.725   1.447 -0.3190 -0.0405  0.4084
 4669TIP3    H135422   2.762   4.680   1.368  0.3483 -1.7941  1.1456
 4669TIP3    H235423   2.712   4.730   1.502 -0.1541 -1.2434  0.7560
 4670TIP3   OH235424   0.118   3.544   3.896 -0.3978 -0.1088 -0.0893
 4670TIP3    H135425   0.140   3.510   3.809  0.1630 -0.5191  0.2100
 4670TIP3    H235426   0.057   3.480   3.932 -0.5487  0.0069 -0.1389
 4671TIP3   OH235427   0.247   3.778  14.773  0.1076  0.1513 -0.3138
 4671TIP3    H135428   0.244   3.816  14.861 -0.7285  0.7753 -0.5983
 4671TIP3    H235429   0.156   3.759  14.752  0.4000 -0.8915 -0.6707
 4672TIP3   OH235430   4.524   3.771   1.808 -0.1715  0.3689  0.0876
 4672TIP3    H135431   4.478   3.711   1.867 -0.4700  2.4011  2.0167
 4672TIP3    H235432   4.608   3.729   1.791 -0.1999 -0.4086  1.7735
 4673TIP3   OH235433   4.197   1.319   5.923 -0.3364 -0.8001  0.0511
 4673TIP3    H135434   4.136   1.250   5.949  0.5395 -1.6055 -0.0178
 4673TIP3    H235435   4.278   1.273   5.904  0.2542  0.2566  0.0018
 4674TIP3   OH235436   4.648   5.854   4.568 -0.5413 -0.1872 -0.1564
 4674TIP3    H135437   4.595   5.904   4.630  0.5894  1.7771 -0.7268
 4674TIP3    H235438   4.659   5.768   4.609  0.2938  1.0993  2.4200
 4675TIP3   OH235439   0.255   5.013  13.420  0.0966 -0.5346  0.0148
 4675TIP3    H135440   0.211   5.052  13.344 -0.8236 -0.1392  0.7439
 4675TIP3    H235441   0.289   5.087  13.469  1.6678 -0.8475 -0.5923
 4676TIP3   OH235442   2.094   4.362  17.063  0.4168  0.0112 -0.3049
 4676TIP3    H135443   2.015   4.313  17.086  1.4916 -0.6787  2.1047
 4676TIP3    H235444   2.067   4.453  17.067 -0.0912 -0.1914  1.2357
 4677TIP3   OH235445   3.414   6.502  16.627  0.1743  0.0023 -0.0888
 4677TIP3    H135446   3.460   6.458  16.699  0.4441 -1.9997 -1.4265
 4677TIP3    H235447   3.426   6.595  16.643  0.9863 -0.4380  1.9651
 4678TIP3   OH235448   1.343   6.775   2.451  0.1613  0.0030 -0.0478
 4678TIP3    H135449   1.373   6.747   2.364  0.2963 -0.9105  0.2893
 4678TIP3    H235450   1.419   6.761   2.508 -0.4732 -1.0480  0.5513
 4679TIP3   OH235451   2.735   4.732  11.707  0.1846 -0.2913 -0.8546
 4679TIP3    H135452   2.759   4.734  11.615  2.9109 -0.2220 -0.1787
 4679TIP3    H235453   2.660   4.791  11.714 -0.1152 -0.3945 -3.0426
 4680TIP3   OH235454   0.487   4.011   0.051  0.0130  0.8657  0.2860
 4680TIP3    H135455   0.427   4.077   0.018 -0.4751  0.4822  0.4015
 4680TIP3    H235456   0.556   4.006  -0.016 -0.1299  1.2379  0.1099
 4681TIP3   OH235457   3.118   1.517   2.785 -0.4415 -0.0873  0.2990
 4681TIP3    H135458   3.067   1.598   2.791 -0.2279  0.1582 -1.0846
 4681TIP3    H235459   3.107   1.488   2.694 -0.1843 -1.3928  0.6700
 4682TIP3   OH235460   6.348   0.625  11.834 -0.2233 -0.0519 -0.4382
 4682TIP3    H135461   6.300   0.581  11.904 -1.2096 -0.4287 -1.3412
 4682TIP3    H235462   6.290   0.696  11.806  0.3914  0.4190 -0.5380
 4683TIP3   OH235463   4.742   1.515  14.973 -0.7162 -0.4614  0.1042
 4683TIP3    H135464   4.715   1.564  14.896  0.3714  0.6410  0.4107
 4683TIP3    H235465   4.836   1.529  14.979 -1.0646  1.1653  2.8084
 4684TIP3   OH235466   0.570   3.742   5.493  0.0904 -0.2819  0.4214
 4684TIP3    H135467   0.535   3.822   5.453 -0.7908 -0.5171  0.7128
 4684TIP3    H235468   0.508   3.721   5.563  0.9787 -0.5429  1.1427
 4685TIP3   OH235469   5.359   0.261   3.527 -0.6996 -0.2363  0.0984
 4685TIP3    H135470   5.432   0.311   3.490 -0.1533 -0.2057  1.1956
 4685TIP3    H235471   5.298   0.250   3.454  0.4481 -0.3468 -0.8656
 4686TIP3   OH235472   3.342   0.175   2.702 -0.6872 -0.3530 -0.1791
 4686TIP3    H135473   3.435   0.185   2.724 -0.3883 -1.7011 -0.7404
 4686TIP3    H235474   3.326   0.240   2.634 -0.2558  0.1536  0.2019
 4687TIP3   OH235475   0.579   5.796  15.857  0.1098 -0.8510 -0.9110
 4687TIP3    H135476   0.510   5.814  15.794 -1.2472 -1.6513  0.2950
 4687TIP3    H235477   0.633   5.728  15.816  1.2152  0.9720 -2.5644
 4688TIP3   OH235478   4.694   0.782   1.679  0.0042 -0.6457  0.4572
 4688TIP3    H135479   4.613   0.816   1.717 -0.4929 -0.5288 -0.6927
 4688TIP3    H235480   4.693   0.688   1.701 -0.4342 -0.6436  0.4473
 4689TIP3   OH235481   1.103   4.406   3.473  0.4109 -0.2078  0.1509
 4689TIP3    H135482   1.103   4.337   3.540  2.6371 -1.5000 -1.1120
 4689TIP3    H235483   1.016   4.402   3.434  0.0679 -1.4225  1.0120
 4690TIP3   OH235484   5.095   1.722   4.029  0.3282 -0.3445  0.1837
 4690TIP3    H135485   5.022   1.678   4.074  1.1462 -1.3081  0.5926
 4690TIP3    H235486   5.166   1.658   4.030  1.4504  0.8797  0.4950
 4691TIP3   OH235487   3.489   4.972   2.268  0.4644 -0.2803  0.5142
 4691TIP3    H135488   3.521   4.884   2.288  0.9613 -0.3930 -0.6743
 4691TIP3    H235489   3.462   4.967   2.176  0.4293  0.7910  0.4570
 4692TIP3   OH235490   5.782   1.473  16.978 -0.1389 -0.1020  0.1960
 4692TIP3    H135491   5.710   1.510  17.030  0.5632  1.4996  0.0498
 4692TIP3    H235492   5.837   1.427  17.042  0.4288  1.4004  0.8094
 4693TIP3   OH235493   4.707   5.942  14.727 -0.1206 -0.4139 -0.3582
 4693TIP3    H135494   4.756   5.995  14.790 -1.0742 -0.1542  0.1778
 4693TIP3    H235495   4.750   5.958  14.643  0.0708  0.6217 -0.0671
 4694TIP3   OH235496   1.158   6.732  16.429 -0.1727 -0.4061  0.2912
 4694TIP3    H135497   1.186   6.765  16.344  1.4370 -2.0880  0.1423
 4694TIP3    H235498   1.217   6.774  16.492 -1.4660  0.9647  0.6303
 4695TIP3   OH235499   5.542   3.212   2.062 -0.0681 -0.4356 -0.3813
 4695TIP3    H135500   5.493   3.175   1.988 -0.7278  0.3325 -0.3355
 4695TIP3    H235501   5.485   3.200   2.137 -0.9788  2.0702 -0.6334
 4696TIP3   OH235502   2.818   2.750  12.116 -0.7636  1.4230 -0.1384
 4696TIP3    H135503   2.799   2.775  12.026  0.4542  1.0735 -0.5039
 4696TIP3    H235504   2.786   2.823  12.169  0.0330  2.4058 -0.9770
 4697TIP3   OH235505   3.278   4.484  11.578 -0.0634 -0.5624  0.2551
 4697TIP3    H135506   3.357   4.431  11.591 -1.0732 -2.7766 -2.0570
 4697TIP3    H235507   3.207   4.420  11.576 -1.4792  1.0139 -1.4667
 4698TIP3   OH235508   3.979   6.758   3.086  0.1911 -0.5928  0.3953
 4698TIP3    H135509   3.991   6.686   3.148  0.9463 -0.3019  0.5905
 4698TIP3    H235510   4.009   6.722   3.002  2.1981  0.0355  0.8236
 4699TIP3   OH235511   6.519   6.356  11.252  1.0280  0.2123 -0.0189
 4699TIP3    H135512   6.549   6.446  11.243 -0.3328  0.8604  1.7208
 4699TIP3    H235513   6.517   6.340  11.346 -0.4088 -1.0469 -0.2370
 4700TIP3   OH235514   6.276   4.620  13.346  0.0886  0.2651 -0.3434
 4700TIP3    H135515   6.190   4.591  13.316  0.0100  1.1397 -1.0041
 4700TIP3    H235516   6.266   4.634  13.440  0.2067 -2.0838  0.0651
 4701TIP3   OH235517   2.839   0.818  13.635  0.0367  0.4746  0.6317
 4701TIP3    H135518   2.768   0.778  13.685  0.6639 -2.2563 -0.5681
 4701TIP3    H235519   2.919   0.781  13.672  0.5050 -1.7852 -2.4380
 4702TIP3   OH235520   4.383   4.402   2.950  0.0527 -0.2691  0.4894
 4702TIP3    H135521   4.381   4.308   2.970  1.7202  0.3722  4.0028
 4702TIP3    H235522   4.443   4.409   2.876  1.1182 -1.8246  1.1798
 4703TIP3   OH235523   6.567   3.846   4.382  0.2120 -0.0961 -0.4167
 4703TIP3    H135524   6.476   3.867   4.405  0.0956  1.3073 -2.1135
 4703TIP3    H235525   6.618   3.881   4.455 -0.6759 -2.3402  1.3731
 4704TIP3   OH235526   1.691   1.483   6.368  0.2199 -0.2093  1.0320
 4704TIP3    H135527   1.674   1.526   6.284  1.3976  1.1003  1.4351
 4704TIP3    H235528   1.766   1.426   6.351 -0.1585 -0.6877  0.9599
 4705TIP3   OH235529   6.683   0.131  16.194  0.0761  0.4607  0.4411
 4705TIP3    H135530   6.666   0.042  16.162  0.0784 -0.1526  2.1201
 4705TIP3    H235531   6.778   0.140  16.189  0.1164  0.1990  0.7393
 4706TIP3   OH235532   0.814   3.132   3.763  0.2251  0.0175  0.1087
 4706TIP3    H135533   0.730   3.138   3.809  0.7498  0.2773  1.0502
 4706TIP3    H235534   0.851   3.220   3.771  0.7915 -0.2177  0.1034
 4707TIP3   OH235535   6.457   2.016  12.860 -0.3615  0.6446  0.7964
 4707TIP3    H135536   6.364   2.019  12.882 -0.5439  3.3147 -0.1730
 4707TIP3    H235537   6.487   1.933  12.895 -3.0235 -0.0638  1.5013
 4708TIP3   OH235538   2.700   1.724  16.463 -0.2877 -0.0297 -0.0924
 4708TIP3    H135539   2.709   1.816  16.487 -0.9219 -0.2029  0.8546
 4708TIP3    H235540   2.672   1.725  16.371  1.6288  0.6622 -0.6895
 4709TIP3   OH235541   0.591   6.773   4.556 -0.5411  0.5933 -0.3165
 4709TIP3    H135542   0.641   6.710   4.608 -3.5551 -0.4782  1.3784
 4709TIP3    H235543   0.638   6.777   4.472  1.5109 -1.4700  0.6578
 4710TIP3   OH235544   1.712   0.145   0.772  0.4387 -0.3870  1.2395
 4710TIP3    H135545   1.764   0.224   0.758 -0.4480  0.1941  1.1826
 4710TIP3    H235546   1.776   0.077   0.791  1.2560  0.1877  0.5651
 4711TIP3   OH235547   0.082   4.755   5.661 -0.3866  0.2466  0.6183
 4711TIP3    H135548   0.149   4.758   5.728 -0.3759  0.9634  0.5756
 4711TIP3    H235549   0.124   4.789   5.582  0.4665 -3.2350 -0.5127
 4712TIP3   OH235550   4.938   3.745  15.634 -0.0729  0.2979  0.2016
 4712TIP3    H135551   4.945   3.838  15.613  0.7094  0.3550  0.6872
 4712TIP3    H235552   4.887   3.708  15.562 -0.0950  1.0416 -0.1730
 4713TIP3   OH235553   3.565   0.513  16.833 -0.1912 -0.0731 -0.2150
 4713TIP3    H135554   3.609   0.551  16.757  0.2602 -0.1709 -0.0032
 4713TIP3    H235555   3.479   0.555  16.833 -0.4382 -0.5656 -1.1604
 4714TIP3   OH235556   0.643   2.627   1.893 -0.0913  0.2972 -0.4014
 4714TIP3    H135557   0.681   2.684   1.959 -0.6249  1.9192 -1.4494
 4714TIP3    H235558   0.712   2.619   1.826  0.5656 -1.5880  0.4588
 4715TIP3   OH235559   0.874   6.192   3.289 -0.1618  0.4292  0.0542
 4715TIP3    H135560   0.853   6.239   3.207  0.1776  0.2278 -0.1479
 4715TIP3    H235561   0.901   6.105   3.260  0.9951  0.7008  0.3093
 4716TIP3   OH235562   0.139   3.785  13.074  0.3021 -0.0563  0.8235
 4716TIP3    H135563   0.189   3.776  13.155  1.7833  2.2186  0.1905
 4716TIP3    H235564   0.205   3.803  13.007 -0.9857 -1.1820 -0.7826
 4717TIP3   OH235565   5.364   6.457  12.331  0.0556  0.4991 -0.1959
 4717TIP3    H135566   5.295   6.500  12.281  0.7233  0.3140 -1.2991
 4717TIP3    H235567   5.416   6.411  12.265  0.9263  0.2096  0.6802
 4718TIP3   OH235568   2.428   1.236  13.714 -0.2779 -0.4246 -0.1644
 4718TIP3    H135569   2.417   1.227  13.620  0.3458  0.1054 -0.2920
 4718TIP3    H235570   2.339   1.248  13.748 -0.6937 -2.5421 -0.4666
 4719TIP3   OH235571   5.828   2.251  14.262  0.3136  0.4462  0.1626
 4719TIP3    H135572   5.845   2.162  14.230  1.3291 -0.1039  2.1960
 4719TIP3    H235573   5.748   2.243  14.314  0.5153  0.6870  0.5070
 4720TIP3   OH235574   1.418   4.189   1.352  0.0879  0.2060 -0.0841
 4720TIP3    H135575   1.347   4.179   1.288 -0.4954 -1.4003  0.7670
 4720TIP3    H235576   1.379   4.160   1.435  2.1229 -2.0894  0.1322
 4721TIP3   OH235577   5.222   4.866   4.638  0.3339 -0.1286  0.2749
 4721TIP3    H135578   5.222   4.788   4.693  0.6242  0.2583  0.8330
 4721TIP3    H235579   5.163   4.927   4.682  2.9661  1.3629  1.9105
 4722TIP3   OH235580   2.570   6.776  16.384 -0.2171  0.5642  0.2126
 4722TIP3    H135581   2.620   6.857  16.386  0.1295  0.3160  1.8402
 4722TIP3    H235582   2.617   6.721  16.320  0.0856  1.2808 -0.1912
 4723TIP3   OH235583   4.387   5.161  13.034  0.3488 -0.1025  0.0344
 4723TIP3    H135584   4.408   5.179  13.125 -1.2839  0.9294  0.2325
 4723TIP3    H235585   4.414   5.070  13.020 -0.2021 -0.5509  1.7916
 4724TIP3   OH235586   3.926   4.058  11.018  0.0977  0.4871  0.1449
 4724TIP3    H135587   3.863   4.121  10.982  0.2762  0.2330 -0.6179
 4724TIP3    H235588   3.930   3.988  10.953 -0.4687 -0.5581  1.2149
 4725TIP3   OH235589   4.812   5.748  15.132 -0.1588  0.2734  0.3639
 4725TIP3    H135590   4.813   5.841  15.153 -1.8712  0.1301  1.1956
 4725TIP3    H235591   4.869   5.707  15.197  0.2522  0.7006  0.2663
 4726TIP3   OH235592   3.369   5.482   1.159 -0.6984 -0.0861  0.5987
 4726TIP3    H135593   3.289   5.496   1.109 -0.0879  2.5689  0.2388
 4726TIP3    H235594   3.355   5.532   1.240 -0.4486 -1.7909  1.7108
 4727TIP3   OH235595   1.967   4.304   3.518  0.2552  0.3956  0.0281
 4727TIP3    H135596   1.973   4.237   3.450  1.3930  0.5378 -0.0320
 4727TIP3    H235597   2.045   4.291   3.572 -0.6421  0.2804  1.3256
 4728TIP3   OH235598   0.391   2.402   3.976  0.2769 -0.3307 -0.2479
 4728TIP3    H135599   0.406   2.311   4.002 -1.2898 -0.4747  0.1865
 4728TIP3    H235600   0.363   2.396   3.885 -1.2801 -0.4135  0.2268
 4729TIP3   OH235601   6.136   2.408  14.016 -0.2202  0.0097 -0.3880
 4729TIP3    H135602   6.128   2.317  13.987 -2.6243  0.4350 -1.1077
 4729TIP3    H235603   6.206   2.406  14.082  0.4125 -2.1769 -1.0912
 4730TIP3   OH235604   6.298   3.928   5.645  0.2155  0.1892 -0.1690
 4730TIP3    H135605   6.323   3.976   5.566  0.1803  1.9636  0.8719
 4730TIP3    H235606   6.378   3.925   5.697  0.5915 -2.1260 -0.7966
 4731TIP3   OH235607   1.188   5.176   5.355 -0.3990 -0.7415  0.0361
 4731TIP3    H135608   1.269   5.210   5.393 -2.3031  1.3998  2.3494
 4731TIP3    H235609   1.203   5.082   5.345  1.8191 -0.5951  1.8132
 4732TIP3   OH235610   5.130   2.750  10.657  0.3311 -0.3231 -0.1956
 4732TIP3    H135611   5.041   2.757  10.689 -0.2700 -0.9155 -1.6779
 4732TIP3    H235612   5.164   2.670  10.697  0.1051 -0.2527  0.1400
 4733TIP3   OH235613   1.170   4.957  12.862  0.3912  0.6530  0.2364
 4733TIP3    H135614   1.081   4.945  12.829  1.2861 -1.3827 -1.5572
 4733TIP3    H235615   1.173   4.909  12.944 -0.3253  1.2054  0.5855
 4734TIP3   OH235616   4.399   6.263  11.258  0.2692  0.0500  0.0278
 4734TIP3    H135617   4.335   6.281  11.327 -1.7776 -3.0514 -0.9714
 4734TIP3    H235618   4.353   6.283  11.177 -0.1972 -4.0394 -0.8069
 4735TIP3   OH235619   5.205   1.621   0.162  0.3743 -0.5858 -0.4792
 4735TIP3    H135620   5.284   1.653   0.119  2.5983  0.2501  3.9697
 4735TIP3    H235621   5.220   1.527   0.171 -1.6297 -1.3797 -4.4005
 4736TIP3   OH235622   2.484   2.522  12.719 -0.0997 -0.7598  0.2082
 4736TIP3    H135623   2.562   2.474  12.746  0.4879  0.6444  1.0457
 4736TIP3    H235624   2.458   2.571  12.797  0.8520  2.3256 -1.3491
 4737TIP3   OH235625   5.148   4.849   3.544 -0.1322  0.1004  0.1965
 4737TIP3    H135626   5.163   4.792   3.619  1.8607 -1.5168 -1.3906
 4737TIP3    H235627   5.129   4.789   3.472 -0.5806  1.5744 -0.9378
 4738TIP3   OH235628   4.370   1.061   3.403 -0.2200 -0.1799 -0.0125
 4738TIP3    H135629   4.319   0.986   3.433  0.1420 -0.8573 -1.0603
 4738TIP3    H235630   4.319   1.138   3.431 -0.3172 -0.7970  1.5367
 4739TIP3   OH235631   6.535   4.892  13.971  0.1715  0.0461 -0.3723
 4739TIP3    H135632   6.620   4.849  13.961 -0.0847 -0.4111 -0.5940
 4739TIP3    H235633   6.537   4.930  14.058 -0.3078 -1.9553  0.5318
 4740TIP3   OH235634   5.845   0.491   4.739 -0.4225 -0.2177  0.4986
 4740TIP3    H135635   5.771   0.491   4.678  0.6231  0.8106 -0.7841
 4740TIP3    H235636   5.921   0.511   4.685  0.7456 -0.7691  1.8928
 4741TIP3   OH235637   1.792   0.766  11.181  0.1183 -0.0151 -0.4454
 4741TIP3    H135638   1.842   0.825  11.236 -1.8660  1.3548 -0.0498
 4741TIP3    H235639   1.787   0.810  11.096  1.8244 -1.3852 -1.2852
 4742TIP3   OH235640   4.612   6.617   1.334  0.4095 -0.1307  0.7378
 4742TIP3    H135641   4.653   6.544   1.381  1.6580  0.9310  1.3270
 4742TIP3    H235642   4.540   6.643   1.391  0.0608 -0.7944  0.6075
 4743TIP3   OH235643   4.765   6.062  16.245  0.0301  0.4701  0.2341
 4743TIP3    H135644   4.729   6.122  16.181 -0.8873 -0.3699 -0.0559
 4743TIP3    H235645   4.858   6.055  16.223 -0.2586  0.2855 -0.9179
 4744TIP3   OH235646   0.907   3.796  16.491  0.3996  0.7281 -0.1339
 4744TIP3    H135647   0.838   3.759  16.546  0.7117 -0.2394 -0.3831
 4744TIP3    H235648   0.921   3.884  16.526 -1.3295  1.1366 -0.4122
 4745TIP3   OH235649   3.460   2.118   1.642  0.2428  0.1822 -0.1773
 4745TIP3    H135650   3.456   2.170   1.723 -0.0144 -2.0042  1.2474
 4745TIP3    H235651   3.368   2.107   1.616  0.2992  0.4379 -0.4949
 4746TIP3   OH235652   3.238   6.387  12.203  0.5727  0.7726 -0.4013
 4746TIP3    H135653   3.199   6.398  12.117 -2.1664 -0.8543  0.5660
 4746TIP3    H235654   3.272   6.297  12.203  0.9270  0.9046  0.0692
 4747TIP3   OH235655   0.013   6.519  16.330 -0.4045 -0.1238 -0.1647
 4747TIP3    H135656  -0.070   6.480  16.357 -0.4541 -0.6832 -1.1431
 4747TIP3    H235657  -0.011   6.581  16.261  0.0422 -0.6076 -0.7565
 4748TIP3   OH235658   3.184   5.079  11.261  0.4914  0.4624 -0.1173
 4748TIP3    H135659   3.123   5.012  11.228  1.2263 -1.0640  1.5217
 4748TIP3    H235660   3.147   5.104  11.345  3.4475 -2.4272  2.1749
 4749TIP3   OH235661   2.962   6.570  12.994 -0.0778 -0.2497 -0.2950
 4749TIP3    H135662   2.979   6.594  12.903 -1.1785 -1.5644 -0.8657
 4749TIP3    H235663   2.905   6.639  13.028 -1.9393 -1.1937 -1.4492
 4750TIP3   OH235664   2.539   6.240   4.171  0.5260 -0.4041 -0.2000
 4750TIP3    H135665   2.589   6.210   4.095 -0.7179 -0.0748 -1.1687
 4750TIP3    H235666   2.457   6.273   4.134  0.7408  1.6799  1.0916
 4751TIP3   OH235667   2.370   4.427   2.280  0.6340  0.1095  0.4336
 4751TIP3    H135668   2.396   4.350   2.229 -1.3241  0.8933 -1.7895
 4751TIP3    H235669   2.327   4.391   2.358  0.4181 -1.0372 -0.2101
 4752TIP3   OH235670   3.018   5.220   1.761 -0.1869  0.2962  0.4097
 4752TIP3    H135671   2.955   5.152   1.784 -0.0453  0.2658  0.7054
 4752TIP3    H235672   3.013   5.225   1.665  0.4563 -0.7619  0.3094
 4753TIP3   OH235673   6.689   4.510  14.235  0.4109  0.1482 -0.0166
 4753TIP3    H135674   6.600   4.508  14.198  1.0054 -1.3004 -1.4468
 4753TIP3    H235675   6.701   4.424  14.274  1.5402 -0.0386 -0.7393
 4754TIP3   OH235676   5.628   3.943  12.635  0.5414  0.1017  0.0715
 4754TIP3    H135677   5.671   3.932  12.550 -0.8752 -0.2127 -0.6202
 4754TIP3    H235678   5.558   3.878  12.635 -0.3260  1.0188  0.9241
 4755TIP3   OH235679   6.462   3.696   1.816  0.0252 -0.8739  0.0942
 4755TIP3    H135680   6.483   3.651   1.734 -1.2932 -1.4549  0.0527
 4755TIP3    H235681   6.442   3.786   1.790  0.5721 -0.8081 -0.1001
 4756TIP3   OH235682   2.405   2.591   1.693 -0.0370 -0.3423 -0.4986
 4756TIP3    H135683   2.369   2.675   1.667  1.1453  0.4980  0.5580
 4756TIP3    H235684   2.442   2.555   1.612 -1.3175 -0.2669 -1.1320
 4757TIP3   OH235685   2.095   6.290   1.787 -0.4084 -0.1421 -0.7578
 4757TIP3    H135686   2.037   6.224   1.750  0.6918 -1.1176 -0.7699
 4757TIP3    H235687   2.084   6.282   1.881 -0.7202  0.0764 -0.7733
 4758TIP3   OH235688   5.294   2.741  14.807 -0.3669  0.3647  0.0668
 4758TIP3    H135689   5.345   2.665  14.833 -0.9444 -0.3419 -0.8290
 4758TIP3    H235690   5.243   2.763  14.885 -0.8071 -0.6739  0.0848
 4759TIP3   OH235691   3.862   2.467  10.893 -0.3505 -0.1535 -0.1142
 4759TIP3    H135692   3.900   2.437  10.810  1.9615  1.4604  0.3006
 4759TIP3    H235693   3.805   2.540  10.868 -1.4451 -1.1299 -0.5070
 4760TIP3   OH235694   3.995   3.330   3.580  0.0804 -0.3176 -0.1827
 4760TIP3    H135695   3.937   3.313   3.654 -1.6631  0.3882 -1.3640
 4760TIP3    H235696   3.958   3.281   3.507  0.2278  1.1405 -1.2753
 4761TIP3   OH235697   0.123   0.993   6.728 -0.7360  0.1912 -0.1935
 4761TIP3    H135698   0.122   1.068   6.787 -2.1664 -0.6955  0.9493
 4761TIP3    H235699   0.045   1.004   6.673 -0.5957 -0.1221 -0.4609
 4762TIP3   OH235700   0.582   1.945   0.565 -0.8016 -0.7064  0.0442
 4762TIP3    H135701   0.488   1.960   0.571 -0.5850  0.7733 -0.1410
 4762TIP3    H235702   0.608   1.920   0.654 -0.9111  1.6849  0.7780
 4763TIP3   OH235703   5.771   2.076  15.986 -0.6570 -0.1882  0.0041
 4763TIP3    H135704   5.753   2.112  16.073 -1.6005  0.6682 -0.5258
 4763TIP3    H235705   5.844   2.128  15.953 -2.2342  1.5356 -0.8938
 4764TIP3   OH235706   1.527   1.500   2.895  0.3066  0.5126 -0.0496
 4764TIP3    H135707   1.438   1.535   2.884  0.8703  1.5691 -1.4298
 4764TIP3    H235708   1.582   1.559   2.843  1.6401 -0.9262 -0.2840
 4765TIP3   OH235709   1.802   6.720   2.454  0.7902 -0.2133  0.4779
 4765TIP3    H135710   1.772   6.629   2.445 -0.6630  0.1228  1.7995
 4765TIP3    H235711   1.876   6.715   2.515  1.1566 -0.5699  0.0201
 4766TIP3   OH235712   1.131   3.042  13.691  0.4115 -0.2596 -0.3079
 4766TIP3    H135713   1.177   3.007  13.767  0.9379  2.5835  0.7351
 4766TIP3    H235714   1.039   3.040  13.715  0.5808  0.6598  0.4067
 4767TIP3   OH235715   3.752   0.308  12.899 -0.1660 -0.1845  0.1495
 4767TIP3    H135716   3.684   0.319  12.832  1.0542 -2.0158 -1.4634
 4767TIP3    H235717   3.710   0.256  12.968 -0.6449 -0.6053 -0.4551
 4768TIP3   OH235718   6.694   1.736  15.993  0.6180  0.4571  0.0464
 4768TIP3    H135719   6.699   1.831  15.985 -0.8818  0.4424 -1.3560
 4768TIP3    H235720   6.659   1.706  15.909  1.4566 -1.3734  0.3159
 4769TIP3   OH235721   1.485   0.559  14.627 -0.4594 -0.3683 -0.7736
 4769TIP3    H135722   1.511   0.543  14.717 -1.8919 -1.1734 -0.4912
 4769TIP3    H235723   1.487   0.655  14.618  0.3895 -0.3201 -0.1178
 4770TIP3   OH235724   1.364   6.286   6.902  0.2730 -0.5445 -0.1947
 4770TIP3    H135725   1.307   6.210   6.912  0.1388 -0.3933  0.2108
 4770TIP3    H235726   1.433   6.257   6.842  0.8199 -1.3350  0.8025
 4771TIP3   OH235727   6.498   3.121  13.685 -0.5354 -0.5541 -0.1188
 4771TIP3    H135728   6.585   3.135  13.648 -0.4967 -0.4089  0.0286
 4771TIP3    H235729   6.451   3.071  13.618 -0.7031  0.3645 -0.6825
 4772TIP3   OH235730   2.873   3.903  12.118 -0.8110 -0.9044 -0.5943
 4772TIP3    H135731   2.917   3.987  12.130  0.7589 -1.2422 -3.6183
 4772TIP3    H235732   2.893   3.853  12.197 -0.7514  1.0936  0.6806
 4773TIP3   OH235733   4.782   6.461  17.068 -0.1228 -0.2936 -0.2719
 4773TIP3    H135734   4.712   6.523  17.052  0.1563  0.2825  0.7082
 4773TIP3    H235735   4.859   6.500  17.026  0.6104  1.2188  2.3611
 4774TIP3   OH235736   6.335   6.709  12.150 -0.1207  0.4766 -0.2448
 4774TIP3    H135737   6.366   6.624  12.119  0.4759  0.5250  0.1967
 4774TIP3    H235738   6.261   6.730  12.093 -0.2453 -0.3158 -0.3817
 4775TIP3   OH235739   4.078   3.616  15.236  0.2409 -0.3808 -0.5710
 4775TIP3    H135740   4.018   3.660  15.175 -0.4721  0.1684  0.5177
 4775TIP3    H235741   4.069   3.664  15.318 -0.4831 -2.4482  0.6147
 4776TIP3   OH235742   5.926   5.129   2.194  0.0454  0.1762  0.5550
 4776TIP3    H135743   5.926   5.200   2.259  0.2988 -1.3972  2.3002
 4776TIP3    H235744   6.019   5.113   2.177 -0.0240  0.7055 -0.3552
 4777TIP3   OH235745   1.108   6.547   2.950 -0.3863  0.3482  0.3667
 4777TIP3    H135746   1.173   6.600   2.904  0.7979 -0.6486  0.8489
 4777TIP3    H235747   1.150   6.461   2.960 -2.4760 -0.8632 -0.8876
 4778TIP3   OH235748   6.134   1.192  16.199  0.3817 -0.4218 -0.3395
 4778TIP3    H135749   6.139   1.227  16.109 -1.5397 -1.0770 -0.7246
 4778TIP3    H235750   6.134   1.097  16.187  1.9173 -0.5436  0.4912
 4779TIP3   OH235751   4.899   6.336  13.689  0.2714 -0.5202 -0.2278
 4779TIP3    H135752   4.865   6.425  13.688  1.7908  0.0981 -3.2235
 4779TIP3    H235753   4.980   6.341  13.738 -1.2552 -0.9666  2.4403
 4780TIP3   OH235754   4.025   5.001  15.387 -0.1089 -0.8495  0.1807
 4780TIP3    H135755   4.046   4.973  15.476  0.2320  1.4283  0.8267
 4780TIP3    H235756   3.937   4.966  15.372  0.0689 -1.7614  1.1762
 4781TIP3   OH235757   5.950   5.557  14.479  0.0408  0.0208 -0.3189
 4781TIP3    H135758   5.923   5.475  14.439 -1.0501 -0.4332  1.2919
 4781TIP3    H235759   5.893   5.623  14.438 -1.9013 -0.5997  1.2923
 4782TIP3   OH235760   1.061   1.778  15.230  0.1268  0.6174  0.3245
 4782TIP3    H135761   0.992   1.783  15.163  0.5251  1.2531 -0.0443
 4782TIP3    H235762   1.135   1.738  15.185 -0.5530 -1.7277  1.2015
 4783TIP3   OH235763   5.852   0.919   6.767 -0.3478 -0.0809  0.7913
 4783TIP3    H135764   5.793   0.885   6.700  0.3742  1.5471 -0.7181
 4783TIP3    H235765   5.840   1.014   6.763  0.3474  0.0878  2.3854
 4784TIP3   OH235766   3.564   5.994  15.353 -0.3915 -0.0758  0.1729
 4784TIP3    H135767   3.486   5.985  15.408  0.4146 -1.0681  1.1566
 4784TIP3    H235768   3.626   6.041  15.408 -0.3250  0.8266 -0.6577
 4785TIP3   OH235769   3.500   5.245   3.995  0.5488 -0.1789 -0.2124
 4785TIP3    H135770   3.432   5.287   3.942  0.4266  0.4744  0.4563
 4785TIP3    H235771   3.564   5.314   4.010  1.2761 -0.7503 -0.6959
 4786TIP3   OH235772   3.539   2.674  15.515 -0.3843  0.5059 -0.3608
 4786TIP3    H135773   3.614   2.705  15.465 -0.1999  0.4809 -0.0956
 4786TIP3    H235774   3.561   2.584  15.538 -0.3268  0.6273  0.0542
 4787TIP3   OH235775   5.312   1.974  17.204  0.1856  0.1580 -0.1219
 4787TIP3    H135776   5.231   1.939  17.166  0.3705 -0.9871  0.5023
 4787TIP3    H235777   5.339   1.907  17.267  0.6123  1.4047  1.0365
 4788TIP3   OH235778   4.140   0.661   2.824  0.4959  0.3001 -0.4441
 4788TIP3    H135779   4.054   0.627   2.799  0.8387 -0.1020 -1.0883
 4788TIP3    H235780   4.120   0.730   2.887 -0.1780 -1.3447  1.1699
 4789TIP3   OH235781   4.012   2.375  14.808 -0.0930  0.5216  0.0165
 4789TIP3    H135782   3.937   2.377  14.748 -0.6680  1.3927  0.7473
 4789TIP3    H235783   4.000   2.453  14.863  1.6017  0.9269 -0.1600
 4790TIP3   OH235784   4.673   6.187   3.736  0.1695  0.2881 -0.0780
 4790TIP3    H135785   4.629   6.272   3.730 -0.9151 -0.2952 -0.4685
 4790TIP3    H235786   4.765   6.209   3.752  0.2038  1.5724 -1.9143
 4791TIP3   OH235787   2.046   6.629  12.241  0.1151 -0.2772  0.6391
 4791TIP3    H135788   1.966   6.655  12.194  1.1594  2.1700  0.1747
 4791TIP3    H235789   2.059   6.697  12.306  1.7846 -0.7235  0.7812
 4792TIP3   OH235790   2.474   5.899   1.045  0.4396 -0.8223  0.2915
 4792TIP3    H135791   2.405   5.877   0.983 -0.5552 -0.7219  1.3367
 4792TIP3    H235792   2.457   5.842   1.121  0.4545  0.4246  1.2524
 4793TIP3   OH235793   0.754   5.598   3.484  0.0108  0.1507 -0.6369
 4793TIP3    H135794   0.815   5.664   3.450  1.7497 -1.0595  0.0257
 4793TIP3    H235795   0.701   5.645   3.548 -0.7810  1.5778 -2.3158
 4794TIP3   OH235796   0.913   4.102   2.207 -0.6467 -0.2814 -0.2515
 4794TIP3    H135797   0.976   4.029   2.206  0.7816  0.9136  0.1474
 4794TIP3    H235798   0.829   4.061   2.225  0.5702 -1.5481  3.0192
 4795TIP3   OH235799   2.550   0.823   3.869  0.1139 -0.7243  0.0389
 4795TIP3    H135800   2.583   0.875   3.795 -0.0362 -0.6568  0.0205
 4795TIP3    H235801   2.618   0.757   3.883  0.0466 -0.8684 -0.2931
 4796TIP3   OH235802   1.785   0.192   5.187  0.3794 -0.5513 -0.0833
 4796TIP3    H135803   1.866   0.165   5.143  0.8161 -0.9729  0.9639
 4796TIP3    H235804   1.744   0.253   5.126  2.8727  1.8563  0.5352
 4797TIP3   OH235805   5.128   6.495  15.367  0.5005 -0.3300 -0.4321
 4797TIP3    H135806   5.088   6.412  15.339 -1.3058  0.8466 -1.4163
 4797TIP3    H235807   5.074   6.522  15.442  2.5211 -1.1833  1.3843
 4798TIP3   OH235808   2.258   3.511   5.844 -0.2934  0.3393  0.0345
 4798TIP3    H135809   2.183   3.457   5.821  0.4807 -0.3081 -1.0370
 4798TIP3    H235810   2.332   3.470   5.799  0.4928  1.6565  0.0905
 4799TIP3   OH235811   1.336   5.857  12.095  0.2471  0.2242  0.1131
 4799TIP3    H135812   1.311   5.943  12.127  1.0770  0.5381 -0.0665
 4799TIP3    H235813   1.430   5.865  12.076  0.9247 -1.4056  2.4544
 4800TIP3   OH235814   0.349   4.116  10.627 -0.2909 -0.3043  0.5695
 4800TIP3    H135815   0.274   4.101  10.570  0.4718  0.8793 -0.7736
 4800TIP3    H235816   0.313   4.114  10.716 -1.6522 -1.1656 -0.0021
 4801TIP3   OH235817   5.471   2.975   3.456  0.3056 -0.4317  0.1268
 4801TIP3    H135818   5.396   2.961   3.514 -0.1331  0.3062 -0.2514
 4801TIP3    H235819   5.537   2.913   3.486 -0.2743 -0.7320  0.7902
 4802TIP3   OH235820   5.234   5.936  11.404 -0.0326  0.1460 -0.7340
 4802TIP3    H135821   5.146   5.938  11.441 -0.9511  1.0242 -2.8444
 4802TIP3    H235822   5.232   5.860  11.345  1.1790 -0.8431  0.4869
 4803TIP3   OH235823   6.185   1.140   4.754 -0.0057 -0.1954 -0.3099
 4803TIP3    H135824   6.267   1.123   4.707 -0.0165 -0.2187 -0.3206
 4803TIP3    H235825   6.167   1.059   4.801 -0.2413 -0.3334 -0.6375
 4804TIP3   OH235826   0.994   1.716   1.969  0.2356 -0.2591 -0.2175
 4804TIP3    H135827   1.062   1.661   2.008 -0.6529 -0.0639  1.6672
 4804TIP3    H235828   0.942   1.656   1.915 -0.4194 -1.1961  1.4211
 4805TIP3   OH235829   6.679   4.663  13.834  0.1983 -0.5923  0.0922
 4805TIP3    H135830   6.648   4.705  13.754 -1.1932  0.8198  1.3397
 4805TIP3    H235831   6.644   4.574  13.830  0.3459 -0.6017 -0.9753
 4806TIP3   OH235832   3.549   3.191   4.913 -0.4788 -0.1826 -0.1983
 4806TIP3    H135833   3.538   3.256   4.983 -0.8700 -1.5719  1.0594
 4806TIP3    H235834   3.462   3.151   4.904 -0.3298 -0.2957 -1.2178
 4807TIP3   OH235835   0.229   4.816   1.387 -0.4169  0.4182 -0.3564
 4807TIP3    H135836   0.164   4.751   1.359  2.8699 -2.8022 -0.8747
 4807TIP3    H235837   0.194   4.849   1.470 -2.8183 -1.0921 -0.7054
 4808TIP3   OH235838   3.612   6.337   0.902 -0.4902  0.1283 -0.1125
 4808TIP3    H135839   3.577   6.249   0.919  0.7850 -1.0813 -3.3653
 4808TIP3    H235840   3.546   6.378   0.846 -1.0144  1.2352  1.2874
 4809TIP3   OH235841   5.980   5.941  14.791  0.5246  0.0118  0.2114
 4809TIP3    H135842   6.047   5.873  14.804  0.5427  0.1776  1.0353
 4809TIP3    H235843   5.908   5.896  14.748  0.3619 -0.6327  1.1467
 4810TIP3   OH235844   2.310   0.561  15.794  0.0511  0.4610  0.0163
 4810TIP3    H135845   2.376   0.542  15.861 -2.5703 -0.6010  2.4302
 4810TIP3    H235846   2.324   0.494  15.727 -0.1766 -1.3794  1.7622
 4811TIP3   OH235847   4.022   6.267   1.465  0.4837  0.1881 -0.2309
 4811TIP3    H135848   3.970   6.190   1.489  0.1859  0.9255  1.6445
 4811TIP3    H235849   4.078   6.282   1.542  1.1251  1.3421 -0.9176
 4812TIP3   OH235850   1.496   5.897  15.582 -0.3784 -0.5166 -0.2863
 4812TIP3    H135851   1.415   5.938  15.610  0.6993  1.6568 -0.2353
 4812TIP3    H235852   1.497   5.908  15.487  1.2922  2.3364 -0.0110
 4813TIP3   OH235853   4.885   4.646  14.124 -0.6695 -0.4725 -0.6438
 4813TIP3    H135854   4.870   4.554  14.100 -0.1707 -0.4468 -1.0676
 4813TIP3    H235855   4.968   4.668  14.081 -0.6128  0.0720 -0.2479
 4814TIP3   OH235856   4.389   6.001   2.083  0.4449  0.2398 -0.0454
 4814TIP3    H135857   4.397   6.078   2.139  0.5676 -2.0285  3.2443
 4814TIP3    H235858   4.462   6.008   2.021  1.1941  2.1271  1.0225
 4815TIP3   OH235859   4.464   5.600  15.558 -0.9617  0.0403  0.9199
 4815TIP3    H135860   4.445   5.619  15.650  1.2970  1.9767  1.0340
 4815TIP3    H235861   4.552   5.635  15.544  0.2130 -3.4293 -1.0424
 4816TIP3   OH235862   6.545   4.934  12.388  0.4509  0.0238  0.2498
 4816TIP3    H135863   6.580   4.964  12.472 -1.4495 -0.8358  1.3738
 4816TIP3    H235864   6.580   4.846  12.378 -0.1994 -0.2831  0.6675
 4817TIP3   OH235865   5.526   0.180   0.640  0.0573  0.3673 -0.3564
 4817TIP3    H135866   5.517   0.154   0.732 -2.6895 -0.9952 -0.9605
 4817TIP3    H235867   5.524   0.275   0.641 -0.5697  0.3436  0.9421
 4818TIP3   OH235868   0.547   5.188  11.465 -0.2163  0.1151  0.0924
 4818TIP3    H135869   0.598   5.263  11.432  0.2503 -0.1815  0.1327
 4818TIP3    H235870   0.538   5.131  11.390  2.4571 -1.4556  0.8775
 4819TIP3   OH235871   4.557   3.060   5.773 -0.7999  0.1208 -0.4385
 4819TIP3    H135872   4.648   3.032   5.777 -0.0190  2.6949  0.2691
 4819TIP3    H235873   4.559   3.142   5.724 -2.5326  1.0039  0.9176
 4820TIP3   OH235874   5.718   5.481   0.321  0.0158 -0.4534  0.5385
 4820TIP3    H135875   5.632   5.469   0.361  0.5013  0.8175  2.0379
 4820TIP3    H235876   5.769   5.527   0.388  0.5616  2.6715 -1.8584
 4821TIP3   OH235877   4.999   4.440  13.786  0.6445 -0.0899 -0.0374
 4821TIP3    H135878   4.992   4.534  13.768 -1.9831 -0.2687 -0.2175
 4821TIP3    H235879   5.082   4.414  13.747 -0.1347  1.5463 -2.9503
 4822TIP3   OH235880   6.079   3.706   1.984 -0.1853  0.8160 -0.3124
 4822TIP3    H135881   6.117   3.747   1.907  0.7627  1.0933  0.2879
 4822TIP3    H235882   6.112   3.758   2.058 -1.1789  0.6401  0.2763
 4823TIP3   OH235883   1.706   4.999   0.957 -0.2549 -0.6811 -0.0193
 4823TIP3    H135884   1.675   4.929   1.014  0.5361 -1.1840 -0.2010
 4823TIP3    H235885   1.796   4.975   0.936  0.1775  0.6248  0.2780
 4824TIP3   OH235886   3.695   5.413  11.529 -0.4441  0.7519 -0.0327
 4824TIP3    H135887   3.772   5.381  11.482  0.0520  0.4608  0.9599
 4824TIP3    H235888   3.724   5.494  11.571 -0.6785  0.6514  0.3251
 4825TIP3   OH235889   5.199   3.441   2.877  0.2934 -0.2781  0.3652
 4825TIP3    H135890   5.175   3.444   2.969 -1.5518  0.7008 -0.1221
 4825TIP3    H235891   5.118   3.420   2.831  0.3012  2.8841 -1.2950
 4826TIP3   OH235892   6.307   2.369  11.055 -0.0166  0.0068  0.5025
 4826TIP3    H135893   6.350   2.334  10.977 -1.9040 -0.4754 -0.3736
 4826TIP3    H235894   6.378   2.396  11.113  1.4208 -0.4739 -1.0113
 4827TIP3   OH235895   6.638   0.181  15.733 -0.2378  0.7945 -0.4406
 4827TIP3    H135896   6.543   0.172  15.737 -0.1673  0.5687  0.9177
 4827TIP3    H235897   6.671   0.098  15.769  0.4536  1.9072  1.5616
 4828TIP3   OH235898   1.726   1.615   0.929 -0.6151 -0.4169 -0.2700
 4828TIP3    H135899   1.690   1.702   0.943  0.0967 -0.2409  0.5063
 4828TIP3    H235900   1.815   1.631   0.896 -0.8793 -0.8426 -1.1820
 4829TIP3   OH235901   5.567   0.258   3.780  0.1515 -0.0853 -0.0324
 4829TIP3    H135902   5.628   0.328   3.757 -0.2428  0.4427  0.5015
 4829TIP3    H235903   5.530   0.231   3.697 -2.0254  2.5001  0.0167
 4830TIP3   OH235904   2.081   1.265   2.174  0.1933  0.2747 -0.4758
 4830TIP3    H135905   2.024   1.219   2.236 -0.4293 -1.1181 -2.0500
 4830TIP3    H235906   2.033   1.344   2.150 -1.3029 -1.1215 -2.1557
 4831TIP3   OH235907   4.698   0.883   5.105 -0.1717  0.1830 -0.3121
 4831TIP3    H135908   4.640   0.915   5.036 -0.1743 -0.3567 -0.5640
 4831TIP3    H235909   4.775   0.849   5.057 -1.3811 -2.8133 -0.2671
 4832TIP3   OH235910   2.182   1.546  15.629 -0.3942  0.0514 -0.5475
 4832TIP3    H135911   2.126   1.565  15.554  1.0130 -0.1541 -1.6610
 4832TIP3    H235912   2.184   1.450  15.632 -3.0428 -0.0032  1.7357
 4833TIP3   OH235913   4.816   6.663   2.090  0.1017  1.1350  0.3022
 4833TIP3    H135914   4.772   6.695   2.168 -1.3520  0.5698 -0.2597
 4833TIP3    H235915   4.754   6.678   2.019  1.1746  1.1308 -0.6576
 4834TIP3   OH235916   5.777   6.539  14.521  0.1458 -0.0363 -0.1724
 4834TIP3    H135917   5.709   6.482  14.485  0.2271 -0.2133 -0.0480
 4834TIP3    H235918   5.733   6.622  14.537 -0.0127 -0.1149 -0.2016
 4835TIP3   OH235919   2.354   5.072  11.446 -0.0290 -0.0294 -0.1515
 4835TIP3    H135920   2.448   5.088  11.463 -0.5588  2.0401  1.1076
 4835TIP3    H235921   2.351   5.043  11.355  1.8781 -0.4200 -0.1204
 4836TIP3   OH235922   2.498   0.551  14.686 -0.0163  0.2571  0.0237
 4836TIP3    H135923   2.441   0.586  14.754 -0.1398 -0.5330  0.3321
 4836TIP3    H235924   2.495   0.617  14.616  1.1682  1.7073  1.3204
 4837TIP3   OH235925   3.966   6.376  15.168 -0.2820 -0.7629  0.2380
 4837TIP3    H135926   4.031   6.432  15.210 -0.7434 -1.8795  2.4900
 4837TIP3    H235927   3.963   6.407  15.077  1.2343  1.2385  0.8383
 4838TIP3   OH235928   5.753   3.710   1.591 -0.4006 -0.2719 -0.2480
 4838TIP3    H135929   5.784   3.690   1.679  1.3323  1.3584 -0.4665
 4838TIP3    H235930   5.670   3.662   1.583 -1.5766  1.1576  2.9516
 4839TIP3   OH235931   5.405   1.702  15.049 -0.1258 -0.0074 -0.5844
 4839TIP3    H135932   5.386   1.702  15.143 -2.2572  0.3926 -0.9805
 4839TIP3    H235933   5.476   1.639  15.039 -0.4475 -0.6915  1.1900
 4840TIP3   OH235934   2.912   5.970   8.797 -0.0895 -0.1040 -0.5140
 4840TIP3    H135935   2.905   6.051   8.847 -0.3631 -0.9049  0.7420
 4840TIP3    H235936   2.867   5.989   8.714  1.5202  1.6438 -1.0106
 4841TIP3   OH235937   0.113   2.321  16.080 -0.4845 -0.1011 -0.4977
 4841TIP3    H135938   0.028   2.287  16.054 -0.1363 -0.6925 -0.8576
 4841TIP3    H235939   0.176   2.272  16.027  0.1369 -0.3526  0.4656
 4842TIP3   OH235940   6.778   6.131   6.218  0.4852  0.5504 -0.2377
 4842TIP3    H135941   6.726   6.208   6.193 -1.1772 -0.6292 -0.5164
 4842TIP3    H235942   6.819   6.103   6.136  0.6510  0.8112 -0.2459
 4843TIP3   OH235943   1.981   3.107  16.193  0.7563 -0.5442 -0.0933
 4843TIP3    H135944   1.958   3.126  16.284 -0.3828 -0.2524 -0.4374
 4843TIP3    H235945   2.073   3.133  16.187  0.3680  1.0408  0.5371
 4844TIP3   OH235946   5.638   0.246   4.571 -0.0686 -0.4267  0.5192
 4844TIP3    H135947   5.712   0.188   4.585  0.9937  0.5112 -1.1292
 4844TIP3    H235948   5.591   0.245   4.655  2.4790 -0.0600  2.0172
 4845TIP3   OH235949   4.579   2.290   1.248 -0.1812  0.4248 -0.0861
 4845TIP3    H135950   4.625   2.340   1.315  0.5136  0.1387 -0.3529
 4845TIP3    H235951   4.592   2.341   1.168  0.1026  0.0782 -0.2600
 4846TIP3   OH235952   4.723   1.783   6.695  0.4344 -0.3094  0.0811
 4846TIP3    H135953   4.650   1.815   6.642  0.0663  0.9127  1.2906
 4846TIP3    H235954   4.710   1.688   6.697 -0.9287 -0.1437 -0.0276
 4847TIP3   OH235955   0.510   2.751  14.562 -0.3410  0.7872  0.0569
 4847TIP3    H135956   0.511   2.844  14.585  0.2487  0.7750  0.0815
 4847TIP3    H235957   0.599   2.733  14.531 -0.4066  0.1875  0.2193
 4848TIP3   OH235958   0.860   0.676  11.559  0.1153 -0.5878 -0.6911
 4848TIP3    H135959   0.895   0.610  11.499  0.3018 -0.4422 -0.7415
 4848TIP3    H235960   0.888   0.759  11.522 -1.2518 -0.4078 -1.3690
 4849TIP3   OH235961   3.581   1.359  15.221  0.0352  0.2724  0.5540
 4849TIP3    H135962   3.609   1.450  15.233  0.2921  0.0669  1.5915
 4849TIP3    H235963   3.485   1.364  15.213  0.1953  0.8127 -1.3395
 4850TIP3   OH235964   6.648   2.106   2.497 -0.3778  0.4263 -0.0842
 4850TIP3    H135965   6.672   2.197   2.480 -1.0915  0.5818 -0.2814
 4850TIP3    H235966   6.578   2.088   2.434 -1.9272  0.5026  1.5831
 4851TIP3   OH235967   1.795   0.085   4.432  0.7004 -0.0712 -0.1739
 4851TIP3    H135968   1.770   0.111   4.343  3.1876  1.4435 -0.5129
 4851TIP3    H235969   1.784  -0.010   4.434 -0.8689  0.0658 -1.5973
 4852TIP3   OH235970   3.032   4.210  15.360 -0.0838 -0.2436  0.7017
 4852TIP3    H135971   2.976   4.281  15.328  1.8165  0.5843 -0.8901
 4852TIP3    H235972   3.057   4.238  15.449 -0.5437  0.3631  0.6444
 4853TIP3   OH235973   3.235   0.424  11.959  0.1412 -0.2243  0.0616
 4853TIP3    H135974   3.270   0.462  12.040  0.0834  0.2189 -0.1240
 4853TIP3    H235975   3.210   0.499  11.906 -3.0573 -0.5296  1.0191
 4854TIP3   OH235976   3.361   5.879   2.582 -0.5457  0.0597  0.2549
 4854TIP3    H135977   3.288   5.871   2.520  0.1111  0.8507 -0.6483
 4854TIP3    H235978   3.405   5.960   2.556 -0.7181  0.8327  2.2713
 4855TIP3   OH235979   2.523   1.418  16.449 -0.4530 -0.9648  0.2218
 4855TIP3    H135980   2.528   1.461  16.535 -1.2368 -1.4696  0.5241
 4855TIP3    H235981   2.594   1.458  16.398  0.7101 -1.4082  1.4515
 4856TIP3   OH235982   6.488   5.400   1.489 -0.5281 -0.9252  0.3646
 4856TIP3    H135983   6.550   5.453   1.438 -1.4718  1.5402  1.7111
 4856TIP3    H235984   6.530   5.388   1.574 -1.9095  0.8920  1.3381
 4857TIP3   OH235985   4.940   6.723   4.959 -0.6091  0.0673  0.3452
 4857TIP3    H135986   4.929   6.628   4.949  1.0804 -0.3589  2.3393
 4857TIP3    H235987   5.003   6.747   4.891 -1.1542 -0.1793 -0.2622
 4858TIP3   OH235988   1.776   5.281   5.820 -0.5628 -0.6669 -0.2007
 4858TIP3    H135989   1.720   5.359   5.817 -1.0252 -0.9926 -0.1554
 4858TIP3    H235990   1.865   5.316   5.824 -0.7668 -0.1386 -0.1246
 4859TIP3   OH235991   5.595   5.127  16.720 -0.1841  0.5209 -0.5538
 4859TIP3    H135992   5.502   5.142  16.703 -0.0933  0.5545 -1.0103
 4859TIP3    H235993   5.618   5.050  16.668 -0.0425  0.2979 -0.1627
 4860TIP3   OH235994   3.802   2.969   3.660 -0.3533 -0.4058  0.0130
 4860TIP3    H135995   3.880   2.917   3.639  0.3295 -0.1853  1.8957
 4860TIP3    H235996   3.837   3.053   3.689 -1.2959 -0.2201  0.6280
 4861TIP3   OH235997   1.714   2.320   0.137  0.3767  0.3879  0.2936
 4861TIP3    H135998   1.656   2.347   0.208  0.7133 -3.0767  2.0222
 4861TIP3    H235999   1.657   2.278   0.073  0.4775  0.5901  0.0699
 4862TIP3   OH236000   3.043   3.152  16.542  0.0744 -0.2845 -0.3127
 4862TIP3    H136001   2.953   3.132  16.570  0.0870  0.5578  0.3778
 4862TIP3    H236002   3.098   3.120  16.614  0.2627  0.0347 -0.3151
 4863TIP3   OH236003   2.899   4.037   3.697  0.3059 -0.0573  0.3656
 4863TIP3    H136004   2.955   3.998   3.764 -1.3613 -2.8836  0.1716
 4863TIP3    H236005   2.867   4.118   3.737  0.7315 -0.8045  2.2888
 4864TIP3   OH236006   4.465   5.505   5.015 -0.8850  0.4881  0.3389
 4864TIP3    H136007   4.455   5.419   4.973  0.8129 -0.6949  2.2263
 4864TIP3    H236008   4.520   5.555   4.956  1.6987 -1.2358  1.1795
 4865TIP3   OH236009   2.757   4.554   0.897  0.4971  0.2654 -0.1925
 4865TIP3    H136010   2.721   4.626   0.846  0.0577  1.5609  1.8773
 4865TIP3    H236011   2.837   4.530   0.850 -1.3497 -0.5431 -3.0626
 4866TIP3   OH236012   6.666   4.468  11.140 -0.2244 -0.2848  0.1899
 4866TIP3    H136013   6.585   4.514  11.119  0.3505  0.4695 -0.3703
 4866TIP3    H236014   6.655   4.441  11.231 -2.1656 -2.4154 -0.6343
 4867TIP3   OH236015   2.627   5.815  12.014 -0.0428  0.0842 -0.2917
 4867TIP3    H136016   2.651   5.757  12.085 -1.5290 -1.0800 -0.7160
 4867TIP3    H236017   2.708   5.827  11.964  0.7781  0.1477  1.0336
 4868TIP3   OH236018   2.348   1.851  15.176  0.0077  0.8618  0.2822
 4868TIP3    H136019   2.280   1.915  15.196  0.4119  0.8585  1.7446
 4868TIP3    H236020   2.413   1.900  15.125 -1.3434  0.7146 -1.6083
 4869TIP3   OH236021   0.236   0.226   1.405  0.0897  0.1039 -0.1115
 4869TIP3    H136022   0.143   0.204   1.407  0.4672 -1.5190  0.2103
 4869TIP3    H236023   0.279   0.151   1.445  1.5097  1.0496  0.1728
 4870TIP3   OH236024   1.293   5.658  11.088 -0.1603  0.3575  0.0043
 4870TIP3    H136025   1.312   5.745  11.055 -1.2330  1.1598  1.4346
 4870TIP3    H236026   1.214   5.631  11.042  0.3297 -0.0061 -0.6468
 4871TIP3   OH236027   6.510   0.624   1.686  0.0557 -0.0401 -0.3436
 4871TIP3    H136028   6.482   0.684   1.755  0.8608 -0.3315  0.2460
 4871TIP3    H236029   6.586   0.667   1.646 -0.7933  0.4258 -1.4742
 4872TIP3   OH236030   2.231   4.679   2.456 -0.3128  0.0875 -0.0725
 4872TIP3    H136031   2.137   4.690   2.443 -0.3390  0.0547  0.0905
 4872TIP3    H236032   2.268   4.764   2.432 -0.0526 -0.8777 -3.3422
 4873TIP3   OH236033   3.423   6.050   2.937  0.4065 -0.3976  0.2294
 4873TIP3    H136034   3.455   6.055   2.847 -0.5011  0.2819 -0.0681
 4873TIP3    H236035   3.468   6.122   2.982 -1.3826  1.1710 -0.4227
 4874TIP3   OH236036   2.498   0.831   1.379  0.3694 -0.0646  0.4946
 4874TIP3    H136037   2.444   0.820   1.301  0.6209  1.1203  0.1387
 4874TIP3    H236038   2.475   0.757   1.435 -0.2246 -0.6106 -0.4630
 4875TIP3   OH236039   1.007   2.505  11.342 -0.2982 -0.2719 -0.1046
 4875TIP3    H136040   1.025   2.491  11.249  0.1192 -0.9924  0.0768
 4875TIP3    H236041   0.985   2.598  11.349 -2.8109 -0.7282 -1.3085
 4876TIP3   OH236042   3.669   3.090  12.867  0.3715 -0.3488  0.2413
 4876TIP3    H136043   3.633   3.091  12.778 -0.5887 -0.8541  0.6140
 4876TIP3    H236044   3.718   3.008  12.872  0.2823 -0.4020  0.2393
 4877TIP3   OH236045   0.198   2.923  12.253  0.0441  0.0272 -0.2885
 4877TIP3    H136046   0.152   2.896  12.174 -1.2879  0.2069  0.4069
 4877TIP3    H236047   0.221   2.842  12.298 -0.0586 -0.0483 -0.3737
 4878TIP3   OH236048   6.402   0.956  14.567  0.2876 -0.2002  0.6149
 4878TIP3    H136049   6.322   0.909  14.590  0.2431  0.5153  2.0108
 4878TIP3    H236050   6.464   0.931  14.636  1.0733 -0.2768 -0.1203
 4879TIP3   OH236051   5.326   5.387   1.277 -0.0724  0.1866  0.1764
 4879TIP3    H136052   5.245   5.349   1.245  0.7646 -0.2321 -1.4970
 4879TIP3    H236053   5.376   5.408   1.198  0.8094  1.8600  1.1329
 4880TIP3   OH236054   2.998   1.366  12.020 -0.3685 -0.1369  0.1455
 4880TIP3    H136055   2.953   1.333  11.942 -0.7502  1.4029 -0.3119
 4880TIP3    H236056   3.061   1.298  12.042  0.2920 -0.2635 -2.0101
 4881TIP3   OH236057   0.160   4.095  12.248 -0.0996 -0.1079  0.1605
 4881TIP3    H136058   0.068   4.102  12.273  0.1235  0.1776  0.9054
 4881TIP3    H236059   0.165   4.140  12.164 -1.2041 -2.5892 -1.3244
 4882TIP3   OH236060   5.814   1.975  14.159  0.0459  0.1102  0.7889
 4882TIP3    H136061   5.733   1.929  14.182 -0.5741  1.0878  0.5729
 4882TIP3    H236062   5.884   1.913  14.180 -0.8180 -1.1980 -0.1963
 4883TIP3   OH236063   0.372   4.968  16.961  0.4124 -0.6102  0.0451
 4883TIP3    H136064   0.362   5.063  16.964  1.0926 -0.4103 -2.9469
 4883TIP3    H236065   0.285   4.935  16.939  0.5874 -0.5632 -0.7130
 4884TIP3   OH236066   4.961   0.872   2.247  0.1684  0.2892 -0.0219
 4884TIP3    H136067   4.958   0.810   2.174  1.1725  1.5630 -1.1717
 4884TIP3    H236068   4.939   0.820   2.324  1.0731 -1.5041 -0.9567
 4885TIP3   OH236069   6.028   5.558   0.288 -0.3747 -0.4308  0.0460
 4885TIP3    H136070   6.064   5.621   0.350 -0.3820  0.5496 -0.9422
 4885TIP3    H236071   6.003   5.610   0.212 -1.6084 -1.4373 -0.2545
 4886TIP3   OH236072   4.763   0.276   5.550 -0.4419 -0.0630  0.0634
 4886TIP3    H136073   4.776   0.181   5.554  0.4104 -0.0540 -2.1213
 4886TIP3    H236074   4.717   0.296   5.632 -1.5893 -2.4932  0.0817
 4887TIP3   OH236075   4.084   1.689  14.441 -0.6654 -0.7224  0.1351
 4887TIP3    H136076   4.101   1.731  14.356  1.6798 -1.8395  0.0160
 4887TIP3    H236077   4.005   1.733  14.474 -0.1728  1.4776 -1.4716
 4888TIP3   OH236078   3.595   5.502  17.101  0.1210  0.1299  0.5391
 4888TIP3    H136079   3.607   5.574  17.039 -0.1038 -0.2010  0.1100
 4888TIP3    H236080   3.501   5.483  17.098 -0.0281  0.6434  1.5711
 4889TIP3   OH236081   3.281   4.782   6.288  0.3047  0.7883  0.1543
 4889TIP3    H136082   3.335   4.819   6.357  0.4726  1.4097 -0.3067
 4889TIP3    H236083   3.251   4.857   6.237  0.1627  0.3430 -0.4352
 4890TIP3   OH236084   6.035   4.526   1.456  0.4676  0.0299  0.1306
 4890TIP3    H136085   6.049   4.614   1.491  0.2554 -0.4423  1.4121
 4890TIP3    H236086   6.063   4.533   1.364  2.1796  0.9677  0.6890
 4891TIP3   OH236087   5.770   4.757   5.728 -0.5969  0.0012 -0.8756
 4891TIP3    H136088   5.816   4.691   5.676  0.3588 -0.2026  0.2399
 4891TIP3    H236089   5.834   4.787   5.792 -1.8093  0.1481  0.2918
 4892TIP3   OH236090   0.273   1.779   0.543  0.2024 -0.2346  0.2636
 4892TIP3    H136091   0.301   1.869   0.558 -0.3580 -0.4329  2.7105
 4892TIP3    H236092   0.257   1.744   0.631  0.0613 -2.6056 -0.6723
 4893TIP3   OH236093   6.360   5.558   4.466 -0.0023 -0.6488  0.5876
 4893TIP3    H136094   6.282   5.511   4.494 -0.6021 -0.5982 -0.9336
 4893TIP3    H236095   6.405   5.497   4.407 -0.1721  0.2435 -0.4717
 4894TIP3   OH236096   4.452   1.869   1.331 -0.1653 -0.0099  0.0800
 4894TIP3    H136097   4.425   1.792   1.280  3.3363 -1.0913 -0.2963
 4894TIP3    H236098   4.403   1.861   1.413 -0.1106 -2.5122 -0.0749
 4895TIP3   OH236099   2.377   5.471  16.818 -0.7224 -0.0398  0.2865
 4895TIP3    H136100   2.372   5.566  16.816  0.2466 -0.0200 -2.1478
 4895TIP3    H236101   2.349   5.443  16.731 -0.1300 -1.9350  0.6676
 4896TIP3   OH236102   2.840   6.036  12.283 -0.0795 -0.0127 -0.3358
 4896TIP3    H136103   2.759   6.061  12.327  0.2495  2.2691 -0.9816
 4896TIP3    H236104   2.908   6.044  12.350  0.0127  0.7272 -0.5201
 4897TIP3   OH236105   5.195   1.793   4.414  0.1326  0.1774  0.0346
 4897TIP3    H136106   5.216   1.721   4.355 -0.0500 -0.5414  0.8409
 4897TIP3    H236107   5.101   1.808   4.401 -0.0973 -0.5764  0.7890
 4898TIP3   OH236108   6.015   0.329  12.699  0.3465  0.4527 -0.3018
 4898TIP3    H136109   6.073   0.261  12.733 -0.7928 -0.4008 -0.0245
 4898TIP3    H236110   5.953   0.282  12.643  0.5365  1.4897 -1.4066
 4899TIP3   OH236111   5.903   3.414  15.616  1.3853  0.3022 -0.2088
 4899TIP3    H136112   5.890   3.409  15.711 -0.8315 -1.2842 -0.5665
 4899TIP3    H236113   5.862   3.496  15.590 -1.7007 -1.1959 -0.3076
 4900TIP3   OH236114   3.851   5.596   1.574  0.1593  0.1630 -0.1018
 4900TIP3    H136115   3.894   5.568   1.655 -0.5534 -1.7045 -0.3339
 4900TIP3    H236116   3.882   5.685   1.560  0.2031  0.5741  2.2976
 4901TIP3   OH236117   4.631   2.841  16.996 -0.3893 -0.3664  0.4563
 4901TIP3    H136118   4.634   2.925  16.949 -4.0331 -0.2571  0.2856
 4901TIP3    H236119   4.547   2.803  16.972 -0.0959 -2.7055  2.8965
 4902TIP3   OH236120   6.646   5.745  12.370  0.7176  0.0905  0.4694
 4902TIP3    H136121   6.673   5.653  12.373 -0.1901 -0.1668  0.9000
 4902TIP3    H236122   6.552   5.742  12.349  0.9036  0.9559 -0.5461
 4903TIP3   OH236123   0.143   1.701  10.834  0.6253  0.3050  0.1872
 4903TIP3    H136124   0.205   1.748  10.778  1.0179 -1.1128 -0.6220
 4903TIP3    H236125   0.198   1.656  10.898  0.5800 -1.7413 -1.1282
 4904TIP3   OH236126   1.180   0.513   5.618 -0.2856 -0.0012  0.0968
 4904TIP3    H136127   1.206   0.421   5.607  0.4140  0.2007  0.0067
 4904TIP3    H236128   1.136   0.535   5.536 -0.9430 -0.4186  0.3406
 4905TIP3   OH236129   6.706   2.674  12.286  0.3100  0.2518  0.2182
 4905TIP3    H136130   6.715   2.660  12.380  0.1788 -0.3306  0.1475
 4905TIP3    H236131   6.694   2.586  12.250 -0.9732  0.5785 -0.1917
 4906TIP3   OH236132   2.454   4.381   0.877 -0.3072 -0.4719 -0.7247
 4906TIP3    H136133   2.519   4.318   0.846  0.8347  0.2674  0.1365
 4906TIP3    H236134   2.494   4.466   0.862 -0.6438 -0.0437  0.7390
 4907TIP3   OH236135   0.933   3.677   3.911 -0.6138  0.1043  0.0048
 4907TIP3    H136136   0.922   3.687   3.817 -0.9091 -3.7459 -0.4316
 4907TIP3    H236137   0.843   3.670   3.945 -0.4862  0.7842  0.5008
 4908TIP3   OH236138   6.023   3.064   3.051 -0.7263  0.0578 -0.7512
 4908TIP3    H136139   6.004   3.156   3.034 -0.8597 -0.2067 -2.0966
 4908TIP3    H236140   5.939   3.020   3.041 -0.6402 -0.2213 -0.2260
 4909TIP3   OH236141   0.317   0.520  16.954  0.0752  0.3914  0.5573
 4909TIP3    H136142   0.412   0.524  16.942  0.0568 -0.8487 -0.1437
 4909TIP3    H236143   0.282   0.543  16.868 -0.2318 -0.2788  0.5015
 4910TIP3   OH236144   1.036   3.451   1.452 -0.5105  0.0025  0.0785
 4910TIP3    H136145   0.977   3.386   1.413 -1.6016  1.2944 -0.4765
 4910TIP3    H236146   1.040   3.428   1.545 -0.8181 -0.9036 -0.1309
 4911TIP3   OH236147   3.186   2.824  16.946 -0.0344 -0.1872 -0.0479
 4911TIP3    H136148   3.193   2.869  16.862  1.3823 -1.1744 -0.4941
 4911TIP3    H236149   3.116   2.869  16.992  0.8219  1.9823 -0.7768
 4912TIP3   OH236150   5.084   3.546  12.511 -0.2359 -0.0671 -0.4647
 4912TIP3    H136151   5.060   3.621  12.566  1.4197  0.0807  0.1052
 4912TIP3    H236152   5.123   3.483  12.572  2.1477  0.3257 -1.4987
 4913TIP3   OH236153   6.134   3.110   0.091 -0.7785  0.7934 -0.1275
 4913TIP3    H136154   6.121   3.161   0.171 -0.3109 -1.4262  1.3840
 4913TIP3    H236155   6.225   3.125   0.068 -0.7740  1.0391  0.0497
 4914TIP3   OH236156   3.239   4.798   1.679  0.2079  0.2202  0.0441
 4914TIP3    H136157   3.238   4.894   1.679  0.8476  0.2347  0.7736
 4914TIP3    H236158   3.331   4.776   1.694  0.1922 -0.5145 -0.8613
 4915TIP3   OH236159   3.883   4.253   5.681 -0.2177 -0.6280 -0.0990
 4915TIP3    H136160   3.964   4.209   5.659  0.3042  0.1880  0.1831
 4915TIP3    H236161   3.876   4.244   5.776 -1.0203 -1.6637 -0.2517
 4916TIP3   OH236162   5.295   2.864   1.851 -0.1017  0.5841  0.1935
 4916TIP3    H136163   5.201   2.846   1.859  0.5310 -2.9272  0.7862
 4916TIP3    H236164   5.317   2.837   1.762  0.6980 -0.5419  0.7194
 4917TIP3   OH236165   1.266   6.742  15.769  0.0377  0.3737  0.3176
 4917TIP3    H136166   1.212   6.692  15.708  1.6890  1.2686 -1.9578
 4917TIP3    H236167   1.304   6.676  15.827  0.9952 -0.8606 -1.6753
 4918TIP3   OH236168   3.949   4.376  13.275  0.2863 -0.3948 -0.4334
 4918TIP3    H136169   3.869   4.429  13.266 -0.0159 -1.0948 -2.1340
 4918TIP3    H236170   3.937   4.328  13.357 -1.5788 -1.3628 -1.2479
 4919TIP3   OH236171   2.175   1.980   5.875 -0.2033 -0.2336 -1.2258
 4919TIP3    H136172   2.223   2.003   5.955 -1.4374 -0.9628 -0.2550
 4919TIP3    H236173   2.100   1.929   5.906 -1.3913  0.5493 -2.7542
 4920TIP3   OH236174   2.969   1.593   1.890  0.4320  1.0901 -0.0093
 4920TIP3    H136175   3.028   1.637   1.952  0.6366  1.5418 -0.5201
 4920TIP3    H236176   2.964   1.653   1.816 -0.3453  0.8622 -0.1436
 4921TIP3   OH236177   1.848   2.654   2.012 -0.4739  0.4745 -0.2231
 4921TIP3    H136178   1.880   2.707   2.086 -1.3049  0.1230  0.3873
 4921TIP3    H236179   1.803   2.580   2.053 -0.5863  0.0602 -1.0868
 4922TIP3   OH236180   4.548   3.608  16.762 -0.0788 -0.4145  0.6811
 4922TIP3    H136181   4.572   3.526  16.719 -0.1870  0.1920 -0.5478
 4922TIP3    H236182   4.473   3.640  16.712 -1.2124 -0.4826  2.2779
 4923TIP3   OH236183   3.799   6.426   1.534 -0.4129  0.1271  0.1990
 4923TIP3    H136184   3.861   6.354   1.525 -0.4042  0.1465  0.0997
 4923TIP3    H236185   3.807   6.454   1.625 -0.7721 -0.3157  0.3644
 4924TIP3   OH236186   1.052   3.625   6.115 -0.0473  0.4890 -0.0592
 4924TIP3    H136187   1.146   3.635   6.128  0.2916  0.5305 -2.3674
 4924TIP3    H236188   1.013   3.658   6.196  1.9198  0.1044  1.0801
 4925TIP3   OH236189   3.558   0.457   3.159 -0.2934 -0.1566 -0.2119
 4925TIP3    H136190   3.573   0.549   3.181 -0.8504 -0.3348  0.9448
 4925TIP3    H236191   3.572   0.453   3.064 -0.1254  1.0903 -0.2540
 4926TIP3   OH236192   3.551   5.415   3.227  0.4279 -0.5835 -0.0521
 4926TIP3    H136193   3.608   5.491   3.241 -1.9503  0.9672  1.4316
 4926TIP3    H236194   3.537   5.412   3.132  1.5214  0.0529 -0.2429
 4927TIP3   OH236195   2.050   1.153  13.371  0.0623  0.5184  0.4553
 4927TIP3    H136196   1.994   1.091  13.324  0.3508  1.4236 -1.1031
 4927TIP3    H236197   2.138   1.136  13.338  0.3159  0.9802  0.8773
 4928TIP3   OH236198   1.647   4.117   1.536 -0.0895  0.7667 -0.3569
 4928TIP3    H136199   1.711   4.185   1.559 -0.7279  0.4439  2.5091
 4928TIP3    H236200   1.565   4.165   1.523 -0.0417  0.7886 -0.5836
 4929TIP3   OH236201   5.481   2.075  11.329 -0.5475 -0.2217 -0.1287
 4929TIP3    H136202   5.497   2.149  11.270 -0.5441  1.5178  2.0099
 4929TIP3    H236203   5.507   1.998  11.278 -0.2026  1.2540 -2.2644
 4930TIP3   OH236204   1.856   3.498   1.500  0.3616  0.4192 -0.3153
 4930TIP3    H136205   1.941   3.474   1.535 -0.6906 -2.5358  0.3111
 4930TIP3    H236206   1.842   3.438   1.427 -2.5632 -1.3969  1.6320
 4931TIP3   OH236207   4.739   3.441   4.929  0.3401 -0.3564 -0.1860
 4931TIP3    H136208   4.681   3.513   4.955  0.9421 -1.0812  3.3378
 4931TIP3    H236209   4.826   3.482   4.923  0.5433 -0.5988  1.0051
 4932TIP3   OH236210   0.432   5.229  11.713  0.0165 -0.4516 -0.1372
 4932TIP3    H136211   0.388   5.154  11.754 -0.6120 -0.0219 -0.0108
 4932TIP3    H236212   0.470   5.193  11.633 -2.1050 -0.4765 -1.1782
 4933TIP3   OH236213   5.435   6.761   1.689 -0.5463  0.9222  0.4804
 4933TIP3    H136214   5.506   6.708   1.725 -0.0998 -0.2873 -2.0891
 4933TIP3    H236215   5.473   6.848   1.680 -0.1903  0.8795  1.4425
 4934TIP3   OH236216   1.995   3.549  12.558  0.4542  0.7418  0.0350
 4934TIP3    H136217   2.055   3.526  12.629  0.9086  1.6217 -0.0615
 4934TIP3    H236218   1.912   3.570  12.601  1.0992  2.5720  0.4274
 4935TIP3   OH236219   4.452   2.318  14.973  0.1769 -0.4065  0.2983
 4935TIP3    H136220   4.391   2.347  14.905  0.4096 -0.1147  0.2185
 4935TIP3    H236221   4.477   2.398  15.019  0.4169 -0.5435  0.4038
 4936TIP3   OH236222   2.796   0.880   2.749  0.5718 -0.8183 -0.3490
 4936TIP3    H136223   2.881   0.851   2.781 -0.2727 -1.9644  0.8990
 4936TIP3    H236224   2.743   0.800   2.746 -0.9845  0.1607  0.5488
 4937TIP3   OH236225   3.173   6.158  13.070  0.0684  0.2708  0.3007
 4937TIP3    H136226   3.159   6.239  13.119  1.9664 -0.7828  2.6581
 4937TIP3    H236227   3.166   6.184  12.978  0.0664  2.9880  1.0340
 4938TIP3   OH236228   5.012   2.895  13.806  0.4017  0.6914 -0.0901
 4938TIP3    H136229   4.995   2.809  13.768  0.7310  1.1268 -1.2476
 4938TIP3    H236230   4.926   2.934  13.817  0.2116  0.0136  0.9542
 4939TIP3   OH236231   6.713   0.458  15.256  0.3067 -0.4332 -0.0244
 4939TIP3    H136232   6.657   0.411  15.194 -1.0543  1.2108 -0.0804
 4939TIP3    H236233   6.715   0.402  15.334 -0.4776 -1.0555 -0.4406
 4940TIP3   OH236234   4.991   3.368  15.412 -0.1268  0.7094  0.4735
 4940TIP3    H136235   4.984   3.273  15.400  0.7037  0.7419 -0.3183
 4940TIP3    H236236   5.036   3.399  15.333 -0.3940  1.7626  0.7295
 4941TIP3   OH236237   2.928   3.772   4.146 -0.6042 -0.1420 -0.2540
 4941TIP3    H136238   2.888   3.752   4.231  0.1748  0.4159  0.2453
 4941TIP3    H236239   2.977   3.853   4.161 -2.0389  1.0288 -1.7304
 4942TIP3   OH236240   1.866   0.094   5.774 -0.1277 -0.3359  0.5543
 4942TIP3    H136241   1.911   0.128   5.851  0.0671  1.5794 -0.3663
 4942TIP3    H236242   1.906   0.009   5.757  3.4690  1.4536 -0.4522
 4943TIP3   OH236243   4.844   4.832  14.456  0.6437  0.0312  0.3557
 4943TIP3    H136244   4.769   4.880  14.492  1.8093  0.1989  2.6885
 4943TIP3    H236245   4.810   4.787  14.379 -2.4875 -1.8433  2.7289
 4944TIP3   OH236246   3.316   5.298  15.159 -0.5755 -0.0459 -0.3719
 4944TIP3    H136247   3.367   5.248  15.095 -0.9400 -1.5956  0.5165
 4944TIP3    H236248   3.359   5.280  15.242 -1.5141  0.0506  0.1341
 4945TIP3   OH236249   5.119   5.521   3.640 -0.5965 -0.2683 -0.1869
 4945TIP3    H136250   5.094   5.599   3.691 -1.6512 -1.5438  1.2837
 4945TIP3    H236251   5.084   5.538   3.552 -1.5738  0.5467  0.3452
 4946TIP3   OH236252   2.654   1.679   1.991 -0.0800  0.3372 -0.6730
 4946TIP3    H136253   2.720   1.734   2.033 -0.4080  0.8709 -0.8376
 4946TIP3    H236254   2.655   1.597   2.040  0.9748  0.1966 -0.9174
 4947TIP3   OH236255   5.492   5.282   2.716 -0.3954 -0.1631  0.1153
 4947TIP3    H136256   5.475   5.364   2.762  0.9190  0.6350 -0.7880
 4947TIP3    H236257   5.588   5.276   2.713 -0.4350  0.2350 -3.2434
 4948TIP3   OH236258   5.466   6.415   5.471  0.1050  0.0079  0.2528
 4948TIP3    H136259   5.522   6.406   5.548 -1.4132  0.4289  1.4423
 4948TIP3    H236260   5.398   6.476   5.498 -0.8012 -0.3191 -1.2283
 4949TIP3   OH236261   2.196   2.688  13.449 -0.5711 -0.4253 -0.0487
 4949TIP3    H136262   2.113   2.732  13.466 -0.2152 -0.0146  0.6416
 4949TIP3    H236263   2.247   2.701  13.529  0.4265 -0.0657 -0.7432
 4950TIP3   OH236264   2.071   1.893  12.976 -0.2786 -0.2203 -0.0785
 4950TIP3    H136265   2.078   1.975  12.928 -2.2835 -0.3428 -0.6321
 4950TIP3    H236266   2.048   1.919  13.065  0.7041 -0.1276  0.1612
 4951TIP3   OH236267   3.520   2.164   4.880 -0.0665 -0.5364 -0.6918
 4951TIP3    H136268   3.433   2.134   4.902  0.4940 -1.5718  0.1447
 4951TIP3    H236269   3.575   2.134   4.952  0.7909  1.0572 -0.6683
 4952TIP3   OH236270   2.613   1.007  17.055  0.0520  0.0813  0.1219
 4952TIP3    H136271   2.656   1.072  17.110 -0.1081  0.2802  0.0140
 4952TIP3    H236272   2.529   1.047  17.032 -0.0137 -0.1302 -0.0069
 4953TIP3   OH236273   4.000   6.387   3.704  0.1770 -0.4030 -0.1584
 4953TIP3    H136274   3.949   6.324   3.653 -1.5269  1.3128 -0.6169
 4953TIP3    H236275   3.998   6.467   3.652  1.3742  0.3780  0.9566
 4954TIP3   OH236276   6.148   3.743   3.536 -0.2673  0.1833 -0.1741
 4954TIP3    H136277   6.133   3.773   3.447  0.7560  0.4693 -0.2601
 4954TIP3    H236278   6.095   3.802   3.591  0.4808  1.1324 -0.4610
 4955TIP3   OH236279   0.806   1.773   1.030 -0.2790 -0.1229 -0.3284
 4955TIP3    H136280   0.810   1.762   1.125 -0.0636 -1.7380 -0.5068
 4955TIP3    H236281   0.871   1.712   0.995 -0.2771  0.5267 -1.5140
 4956TIP3   OH236282   0.668   4.509   2.183  0.7817 -0.1340 -0.5109
 4956TIP3    H136283   0.626   4.590   2.214 -1.0160 -0.8106 -1.0853
 4956TIP3    H236284   0.649   4.445   2.251 -0.4506 -0.8219 -1.4735
 4957TIP3   OH236285   2.302   1.317  13.289  0.0067  0.5658  0.0849
 4957TIP3    H136286   2.215   1.327  13.248  0.2889 -0.4695 -0.8061
 4957TIP3    H236287   2.358   1.378  13.241 -0.2034  1.1804  0.6092
 4958TIP3   OH236288   1.062   4.429  14.794 -0.1993  0.2240 -0.2194
 4958TIP3    H136289   1.117   4.451  14.870  0.1121  0.8108 -0.6161
 4958TIP3    H236290   1.092   4.488  14.725 -1.2807  0.4899 -0.4626
 4959TIP3   OH236291   4.538   1.753  13.421  0.0340  0.3040  0.2372
 4959TIP3    H136292   4.514   1.793  13.505 -0.4844 -2.0539  1.2374
 4959TIP3    H236293   4.457   1.755  13.370 -0.6413 -1.6175  1.1812
 4960TIP3   OH236294   4.075   3.204   0.204  0.1619  0.0758  0.0640
 4960TIP3    H136295   4.157   3.156   0.221  0.5333  0.7757  0.2753
 4960TIP3    H236296   4.066   3.203   0.109  0.4913  0.1120  0.0304
 4961TIP3   OH236297   1.329   1.107   1.752 -0.0495 -0.2234 -0.5959
 4961TIP3    H136298   1.288   1.174   1.697  0.2446  1.3193  1.0215
 4961TIP3    H236299   1.302   1.024   1.712 -1.4408  0.8282 -1.9148
 4962TIP3   OH236300   0.019   3.936   5.530  0.2916 -0.4023 -0.0866
 4962TIP3    H136301   0.006   4.029   5.514  2.2246 -0.1158 -0.0981
 4962TIP3    H236302   0.040   3.931   5.623 -2.1550 -1.0998  0.4499
 4963TIP3   OH236303   5.171   6.208  14.613  0.3252  0.0377 -1.1029
 4963TIP3    H136304   5.176   6.128  14.665  0.5501 -0.2095 -1.5017
 4963TIP3    H236305   5.191   6.278  14.676 -0.2554 -0.1833 -0.6692
 4964TIP3   OH236306   0.505   1.623   3.786  0.9671  0.1539  0.0832
 4964TIP3    H136307   0.509   1.593   3.696 -3.2996 -1.5806  0.3432
 4964TIP3    H236308   0.545   1.552   3.837  0.5215 -0.2998 -0.1938
 4965TIP3   OH236309   1.812   5.056  11.174  0.0710 -0.2171  0.2902
 4965TIP3    H136310   1.873   4.988  11.147  0.4515 -0.2505  1.1896
 4965TIP3    H236311   1.741   5.053  11.110  1.2198  0.1006 -0.9990
 4966TIP3   OH236312   1.705   1.189  17.076 -0.0204  0.3541  0.2886
 4966TIP3    H136313   1.740   1.102  17.093  0.1100  0.0692 -1.3154
 4966TIP3    H236314   1.672   1.219  17.160 -0.2876 -1.3428  0.8020
 4967TIP3   OH236315   3.147   5.358  16.560  0.1374  0.1432  0.4574
 4967TIP3    H136316   3.061   5.354  16.519  0.6397  0.6204 -0.6623
 4967TIP3    H236317   3.199   5.293  16.513 -0.0638 -1.3449  2.2469
 4968TIP3   OH236318   0.785   2.163   3.777 -0.0498  0.1170  0.3072
 4968TIP3    H136319   0.850   2.096   3.755 -0.5223 -0.0637 -0.5496
 4968TIP3    H236320   0.712   2.114   3.814  0.0351  0.2579  0.6588
 4969TIP3   OH236321   3.064   4.284  15.885 -0.1923 -0.1443 -0.2793
 4969TIP3    H136322   3.109   4.219  15.939 -0.8569  0.1665  0.6724
 4969TIP3    H236323   3.073   4.366  15.934 -2.3284 -0.1909  0.2854
 4970TIP3   OH236324   6.227   6.390   5.581  0.1572  0.2932 -0.2823
 4970TIP3    H136325   6.157   6.350   5.530  0.7256 -0.7196 -0.2799
 4970TIP3    H236326   6.289   6.318   5.598 -0.0274  0.6179  1.8392
 4971TIP3   OH236327   0.997   3.467   2.211  0.0204  0.3677 -0.1781
 4971TIP3    H136328   1.007   3.514   2.293 -1.4724 -0.4355  0.4886
 4971TIP3    H236329   0.992   3.375   2.236 -4.0351  0.3265 -0.7786
 4972TIP3   OH236330   3.957   5.298  10.491  0.1147  0.2609  0.4871
 4972TIP3    H136331   4.046   5.273  10.517  0.8390  0.8898 -1.2984
 4972TIP3    H236332   3.919   5.218  10.455 -0.7651 -0.5184  3.0345
 4973TIP3   OH236333   6.205   1.001   3.139  0.2812 -0.0807 -0.0867
 4973TIP3    H136334   6.151   1.058   3.085  0.5468  0.4493  0.1939
 4973TIP3    H236335   6.213   1.049   3.222  0.6239 -0.4621  0.0986
 4974TIP3   OH236336   2.767   2.257   5.165 -0.3131 -0.2994 -0.3044
 4974TIP3    H136337   2.714   2.199   5.110 -0.5863 -0.7803  0.4543
 4974TIP3    H236338   2.750   2.228   5.254 -1.6225  1.9183  0.2017
 4975TIP3   OH236339   5.340   4.223  13.959  0.2076  0.2820  0.0197
 4975TIP3    H136340   5.358   4.307  13.916  0.4776  0.5975  0.7312
 4975TIP3    H236341   5.247   4.226  13.979 -0.2899 -0.6000 -2.0858
 4976TIP3   OH236342   5.697   0.906  11.413 -0.4199  0.3986 -0.0807
 4976TIP3    H136343   5.610   0.912  11.453 -1.0125  1.4050 -1.4691
 4976TIP3    H236344   5.739   0.990  11.435 -0.3127  0.4694 -0.5436
 4977TIP3   OH236345   5.821   5.519  13.602  0.2774  0.2692 -0.2349
 4977TIP3    H136346   5.853   5.430  13.619  0.4425  0.3415 -0.1591
 4977TIP3    H236347   5.824   5.527  13.507  1.6907  0.7036 -0.1689
 4978TIP3   OH236348   5.187   5.549   4.967  0.3052  0.0849  0.5522
 4978TIP3    H136349   5.134   5.506   5.034  0.0411 -0.5338 -0.0377
 4978TIP3    H236350   5.266   5.577   5.012  0.0889 -0.2497  1.1390
 4979TIP3   OH236351   0.903   3.126  17.107 -0.1574  0.0394  0.3903
 4979TIP3    H136352   0.998   3.125  17.091 -0.1267 -0.6156  0.6011
 4979TIP3    H236353   0.869   3.191  17.046  0.1394 -1.4371 -1.3920
 4980TIP3   OH236354   1.617   4.459   4.932  0.2957 -0.2936 -0.1454
 4980TIP3    H136355   1.661   4.486   4.852 -0.9094 -0.2894 -0.8143
 4980TIP3    H236356   1.523   4.460   4.910 -0.0917  0.3711  1.4503
 4981TIP3   OH236357   5.169   6.511  13.253 -0.2396 -0.8658 -0.2909
 4981TIP3    H136358   5.182   6.448  13.324  1.0427 -0.4077 -0.0985
 4981TIP3    H236359   5.225   6.585  13.277  2.6597 -1.9422 -3.2856
 4982TIP3   OH236360   6.187   1.780  13.740  0.3562  0.1146  0.0533
 4982TIP3    H136361   6.136   1.767  13.660 -1.5002  0.1834  1.2149
 4982TIP3    H236362   6.173   1.700  13.791  1.4659  0.1062  0.3766
 4983TIP3   OH236363   3.971   1.667  11.398  0.1876  0.3481 -0.1346
 4983TIP3    H136364   3.933   1.616  11.327  0.1955  1.0493 -0.6528
 4983TIP3    H236365   3.919   1.748  11.400  0.0669  0.2587  0.7773
 4984TIP3   OH236366   3.071   4.913   0.624  0.0102  0.2785  0.4373
 4984TIP3    H136367   3.015   4.844   0.589  1.0864  0.1211 -0.9937
 4984TIP3    H236368   3.160   4.880   0.613  0.3915  0.2437  3.2915
 4985TIP3   OH236369   1.528   0.159   3.413 -0.6362  0.0077 -0.1158
 4985TIP3    H136370   1.463   0.120   3.471 -1.3744  1.7656  0.2636
 4985TIP3    H236371   1.608   0.109   3.430 -1.6831 -1.6662 -0.0294
 4986TIP3   OH236372   6.714   2.326   1.204 -0.1344  0.4038  0.1828
 4986TIP3    H136373   6.726   2.252   1.145 -1.1806 -2.0642  2.9304
 4986TIP3    H236374   6.653   2.384   1.158 -0.2092 -0.9958 -1.5376
 4987TIP3   OH236375   6.650   4.976  12.890 -0.1834 -0.2389 -0.3560
 4987TIP3    H136376   6.583   4.950  12.954 -1.8131  0.9900 -1.5093
 4987TIP3    H236377   6.733   4.959  12.933 -1.2567 -0.8053  1.5277
 4988TIP3   OH236378   4.715   0.745   0.584 -0.0355  0.3397  0.3000
 4988TIP3    H136379   4.673   0.671   0.541 -1.5939  0.9510  0.7435
 4988TIP3    H236380   4.753   0.708   0.664 -1.3889  0.1258  0.8643
 4989TIP3   OH236381   1.012   2.021  11.407  1.2578 -0.7186  0.3499
 4989TIP3    H136382   1.077   2.050  11.471  0.8199 -0.0393  0.4919
 4989TIP3    H236383   0.957   1.959  11.456  1.4009 -0.7985  0.4095
 4990TIP3   OH236384   2.566   2.151  11.001 -0.4351 -0.6369  0.3854
 4990TIP3    H136385   2.558   2.115  10.912 -0.3817  0.1701  0.0559
 4990TIP3    H236386   2.659   2.165  11.013 -0.5754  0.6998 -0.0070
 4991TIP3   OH236387   1.095   6.265  17.073 -0.1173 -0.4718  0.0207
 4991TIP3    H136388   1.000   6.267  17.090 -0.0166 -1.6481  0.7757
 4991TIP3    H236389   1.121   6.357  17.077 -1.1513 -0.1733  0.2576
 4992TIP3   OH236390   2.804   1.968  16.575  0.3131 -0.1941  0.0158
 4992TIP3    H136391   2.839   1.906  16.639 -0.2875 -0.0841  0.4496
 4992TIP3    H236392   2.880   1.993  16.522  0.4749 -1.5838 -0.4080
 4993TIP3   OH236393   0.900   0.208  11.745  0.7686  0.5183 -0.2998
 4993TIP3    H136394   0.880   0.295  11.710  1.3237  1.1960  0.9898
 4993TIP3    H236395   0.987   0.188  11.712  0.4477  0.2508 -0.9774
 4994TIP3   OH236396   1.457   4.660   3.230  0.3030 -0.3023 -0.2749
 4994TIP3    H136397   1.448   4.652   3.325  0.3034  0.1410 -0.2320
 4994TIP3    H236398   1.521   4.731   3.219  3.0691 -2.7487 -0.5573
 4995TIP3   OH236399   1.840   4.324   1.577 -0.6997 -0.0555  0.4883
 4995TIP3    H136400   1.877   4.413   1.572  2.7191 -1.3279  1.9737
 4995TIP3    H236401   1.763   4.334   1.633 -1.5074  2.3093 -0.9634
 4996TIP3   OH236402   0.133   2.454   3.210  0.6647 -0.3289 -0.5081
 4996TIP3    H136403   0.164   2.395   3.279 -0.1695 -1.4099 -1.0483
 4996TIP3    H236404   0.092   2.527   3.257  2.6421  0.3762  0.1895
 4997TIP3   OH236405   4.302   0.698   4.256  0.3320 -0.1561 -0.4614
 4997TIP3    H136406   4.337   0.742   4.334  2.8906 -1.4767 -0.8425
 4997TIP3    H236407   4.374   0.646   4.223 -1.2477 -0.9377 -2.7829
 4998TIP3   OH236408   6.590   4.395   4.621 -0.4461 -0.1866  0.1079
 4998TIP3    H136409   6.633   4.323   4.574  0.1579  0.2100  0.0527
 4998TIP3    H236410   6.560   4.355   4.703  0.3450 -0.3931  0.3074
 4999TIP3   OH236411   3.069   0.253  11.164 -0.0972  0.2954 -0.3622
 4999TIP3    H136412   3.088   0.322  11.100  0.1994  0.3245 -0.2437
 4999TIP3    H236413   3.131   0.183  11.143  0.7410  0.7484  0.5893
 5000TIP3   OH236414   1.428   1.319   0.648 -0.1696  0.0489 -0.0021
 5000TIP3    H136415   1.473   1.402   0.630  1.0000 -0.6548 -0.4095
 5000TIP3    H236416   1.364   1.341   0.715  0.7901  1.0944  0.5998
 5001TIP3   OH236417   3.289   6.594   5.579  0.2703 -0.0884 -0.0210
 5001TIP3    H136418   3.197   6.610   5.598 -0.0007 -0.7671 -0.7383
 5001TIP3    H236419   3.326   6.564   5.663 -0.1535  0.2044  0.2706
 5002TIP3   OH236420   6.037   1.336   5.634  0.2515  0.7494 -0.1900
 5002TIP3    H136421   6.033   1.397   5.707 -1.4599  1.0520 -0.5108
 5002TIP3    H236422   5.946   1.309   5.620  0.5629  0.6174 -2.1423
 5003TIP3   OH236423   1.177   0.174  13.583  0.6212 -0.0837 -0.0384
 5003TIP3    H136424   1.091   0.151  13.619  1.3195 -1.4816  0.7830
 5003TIP3    H236425   1.221   0.220  13.654 -0.0026  2.0461 -0.9888
 5004TIP3   OH236426   6.162   1.899  16.014  0.7672 -0.2218  0.0289
 5004TIP3    H136427   6.184   1.965  15.948 -1.6976 -0.6383 -1.2934
 5004TIP3    H236428   6.153   1.949  16.095  1.8842  0.6099 -0.3509
 5005TIP3   OH236429   5.503   6.155  14.800  0.5076 -0.2487  0.2127
 5005TIP3    H136430   5.473   6.214  14.869  1.6183  1.6033 -0.8231
 5005TIP3    H236431   5.587   6.122  14.832  0.4247 -0.3805  0.2946
 5006TIP3   OH236432   1.680   4.964  15.666 -0.4509  0.2025 -0.6614
 5006TIP3    H136433   1.623   5.017  15.610  1.1619  2.7278 -0.0141
 5006TIP3    H236434   1.670   5.003  15.753  1.2899 -0.1130 -0.3043
 5007TIP3   OH236435   2.354   2.949   2.499  0.1229  0.2441  0.8780
 5007TIP3    H136436   2.308   2.870   2.527  1.1415 -0.1554  1.4680
 5007TIP3    H236437   2.423   2.917   2.440  1.6650  0.4956  2.4983
 5008TIP3   OH236438   1.988   3.345   0.741  0.0635  0.4627 -0.3227
 5008TIP3    H136439   1.956   3.326   0.830 -0.6409 -0.1411 -0.6984
 5008TIP3    H236440   1.972   3.439   0.730 -0.4079  0.4210 -0.0298
 5009TIP3   OH236441   3.537   6.272  13.761  0.0260  0.7647  0.7472
 5009TIP3    H136442   3.473   6.247  13.695  0.8282 -0.1566  0.2936
 5009TIP3    H236443   3.507   6.230  13.842 -0.5193  1.2238  0.7806
 5010TIP3   OH236444   2.184   3.087   1.509  0.0482 -0.2569  0.2162
 5010TIP3    H136445   2.212   3.168   1.466 -1.0621 -0.9089 -1.8111
 5010TIP3    H236446   2.255   3.025   1.495  0.3983  0.0230  0.7562
 5011TIP3   OH236447   4.902   4.619   5.410 -0.1655  0.2613  0.0316
 5011TIP3    H136448   4.843   4.620   5.335  0.6587  1.5983 -0.6010
 5011TIP3    H236449   4.855   4.666   5.479  0.4212  1.9426 -0.6888
 5012TIP3   OH236450   4.304   5.024  15.744  0.2605  0.0708 -0.4834
 5012TIP3    H136451   4.342   5.010  15.830 -0.6254 -2.9717 -0.5289
 5012TIP3    H236452   4.379   5.036  15.686  0.8525  2.3425  0.6917
 5013TIP3   OH236453   1.907   5.883   3.077 -0.3126 -0.5891  0.0378
 5013TIP3    H136454   1.971   5.955   3.077 -1.4724  0.4581 -0.2294
 5013TIP3    H236455   1.901   5.857   3.169 -0.7148  0.4269  0.3106
 5014TIP3   OH236456   1.732   4.296  13.799  0.1674  0.6210  0.3666
 5014TIP3    H136457   1.659   4.330  13.747  0.6104  1.2759  0.1693
 5014TIP3    H236458   1.773   4.230  13.744  2.0416  2.9190 -1.0685
 5015TIP3   OH236459   2.395   5.779   5.130 -0.1331 -0.1948  0.4538
 5015TIP3    H136460   2.388   5.755   5.038 -1.8238  1.0419  0.2480
 5015TIP3    H236461   2.488   5.799   5.142  0.0281 -0.0004 -1.0705
 5016TIP3   OH236462   1.420   5.542   0.835  0.1861 -0.3636  0.7557
 5016TIP3    H136463   1.440   5.609   0.900 -0.2036 -0.2837  0.7932
 5016TIP3    H236464   1.499   5.536   0.782 -0.4202  1.4889 -0.4464
 5017TIP3   OH236465   0.983   4.581  16.816 -0.5269  0.3320 -0.3833
 5017TIP3    H136466   0.906   4.559  16.869 -1.1601  1.4782 -0.7989
 5017TIP3    H236467   1.021   4.657  16.860  1.5423 -1.4332  0.9549
 5018TIP3   OH236468   2.202   1.142  16.334 -0.2943  0.4473  0.4466
 5018TIP3    H136469   2.117   1.121  16.372 -1.2439  1.4371 -1.0678
 5018TIP3    H236470   2.196   1.112  16.243 -0.5902  4.2623 -0.9022
 5019TIP3   OH236471   0.177   6.433  15.075 -0.4344  0.3430 -0.2057
 5019TIP3    H136472   0.151   6.521  15.102 -1.8731 -0.2339  0.3701
 5019TIP3    H236473   0.193   6.441  14.981 -1.4661  1.0271 -0.3405
 5020TIP3   OH236474   4.879   4.772  11.815 -0.2845  0.2630 -0.2940
 5020TIP3    H136475   4.795   4.803  11.782  0.2907  2.3800  0.1036
 5020TIP3    H236476   4.944   4.825  11.767  0.7179  0.1482  0.9068
 5021TIP3   OH236477   0.252   3.332  16.805 -0.3839 -0.1372 -0.6390
 5021TIP3    H136478   0.272   3.241  16.780  1.3792 -0.2085  0.9564
 5021TIP3    H236479   0.308   3.385  16.748  1.0098 -0.1861  0.6456
 5022TIP3   OH236480   1.895   3.444   5.642  0.4170 -0.5390 -0.0735
 5022TIP3    H136481   1.900   3.406   5.730  1.0467 -1.5238 -0.5278
 5022TIP3    H236482   1.985   3.441   5.609  0.3440  0.6765 -0.4035
 5023TIP3   OH236483   1.339   5.937  11.664  0.6261  0.1541  0.7281
 5023TIP3    H136484   1.345   5.864  11.602  2.1773 -0.7524  1.8656
 5023TIP3    H236485   1.246   5.955  11.672  0.2858 -1.0629 -0.3339
 5024TIP3   OH236486   3.700   6.115   6.440 -0.5998 -0.4815 -0.5931
 5024TIP3    H136487   3.764   6.165   6.492 -0.6858 -0.6602 -0.3136
 5024TIP3    H236488   3.663   6.180   6.380  0.3257 -0.5140 -1.2192
 5025TIP3   OH236489   6.718   1.146   1.759  0.0958  0.2182 -0.2473
 5025TIP3    H136490   6.678   1.170   1.675  0.2358 -1.2057 -0.7406
 5025TIP3    H236491   6.786   1.083   1.736  1.8287  1.6703  0.7079
 5026TIP3   OH236492   2.375   0.788  17.056 -0.3137  0.9318 -0.0779
 5026TIP3    H136493   2.408   0.873  17.088  1.9518  0.2514 -0.5431
 5026TIP3    H236494   2.406   0.783  16.966 -0.9552 -0.1598 -0.2405
 5027TIP3   OH236495   1.995   1.624   1.302 -0.2485  0.0520 -0.4096
 5027TIP3    H136496   2.043   1.689   1.250 -0.2381 -0.7262 -1.3882
 5027TIP3    H236497   1.946   1.574   1.237 -1.0652 -0.2455  0.4410
 5028TIP3   OH236498   0.474   3.441  11.516  0.4060 -0.1065  0.7042
 5028TIP3    H136499   0.420   3.373  11.556  0.5971 -0.5637  0.1740
 5028TIP3    H236500   0.413   3.491  11.462  0.2983  0.0514  0.9687
 5029TIP3   OH236501   1.534   1.063  12.789  0.5283  0.1498  0.2151
 5029TIP3    H136502   1.528   0.971  12.766  3.7283  0.4575 -2.2611
 5029TIP3    H236503   1.470   1.106  12.732 -0.4253 -0.4402  0.8326
 5030TIP3   OH236504   0.264   0.707  14.149  0.1664  0.2261 -0.4399
 5030TIP3    H136505   0.324   0.727  14.077 -0.7684  1.2929 -0.9328
 5030TIP3    H236506   0.188   0.764  14.134 -1.5520 -2.0473 -0.5594
 5031TIP3   OH236507   4.841   6.412   1.906 -0.3524  0.2888 -0.7744
 5031TIP3    H136508   4.757   6.384   1.870 -1.2002 -1.6704  2.5235
 5031TIP3    H236509   4.820   6.488   1.961  0.4526  1.4124 -1.9999
 5032TIP3   OH236510   3.987   0.916   6.215  0.3193  0.8537  0.2292
 5032TIP3    H136511   3.928   0.989   6.233  0.3544  0.5885  1.4715
 5032TIP3    H236512   4.032   0.900   6.297  1.2251  0.2396 -0.3721
 5033TIP3   OH236513   4.297   1.420  16.578 -0.1634  0.5268 -0.3352
 5033TIP3    H136514   4.308   1.378  16.493  0.4856 -0.4455  0.2188
 5033TIP3    H236515   4.366   1.487  16.580 -0.6307  1.0291 -0.8557
 5034TIP3   OH236516   4.268   2.517  16.304  0.2532  0.5053 -0.3957
 5034TIP3    H136517   4.177   2.497  16.285  0.6160 -0.4050 -1.2294
 5034TIP3    H236518   4.268   2.609  16.329 -0.9190  0.4479 -0.1888
 5035TIP3   OH236519   6.398   2.870   0.618 -0.5943  0.3082 -0.4808
 5035TIP3    H136520   6.335   2.939   0.601 -0.4583  1.3759  3.0694
 5035TIP3    H236521   6.483   2.914   0.615 -0.3526 -0.1451 -0.3178
 5036TIP3   OH236522   2.741   4.489  15.689 -0.4094 -0.3533  1.0429
 5036TIP3    H136523   2.804   4.561  15.694  0.4397 -1.1018  1.2984
 5036TIP3    H236524   2.794   4.410  15.699 -1.3703 -1.0046  1.0679
 5037TIP3   OH236525   2.598   1.542  12.119  0.5068  0.5626 -0.4969
 5037TIP3    H136526   2.676   1.572  12.166 -0.6920  2.4519  0.3478
 5037TIP3    H236527   2.571   1.618  12.067 -1.2972  0.2330 -0.0531
 5038TIP3   OH236528   1.281   4.485   1.925 -0.4513 -0.1038 -0.4609
 5038TIP3    H136529   1.209   4.495   1.863 -0.1375 -0.0549 -0.8204
 5038TIP3    H236530   1.240   4.492   2.011 -1.2798 -2.6539 -0.6079
 5039TIP3   OH236531   4.880   1.002   4.387 -0.0728  0.3374 -0.4664
 5039TIP3    H136532   4.892   0.923   4.439 -2.2296  0.1318 -0.2292
 5039TIP3    H236533   4.915   1.073   4.441 -1.0360 -0.0502  0.6735
 5040TIP3   OH236534   1.880   3.682  16.456  0.1875  0.3357 -0.2363
 5040TIP3    H136535   1.822   3.643  16.391  0.5393  1.2902 -1.1406
 5040TIP3    H236536   1.961   3.701  16.408 -0.3889  3.2501 -0.1452
 5041TIP3   OH236537   4.430   6.629   3.746  0.8012  0.3440 -0.4364
 5041TIP3    H136538   4.516   6.661   3.720  1.1169  1.0637  1.4225
 5041TIP3    H236539   4.426   6.645   3.841 -0.7780 -1.0660 -0.2500
 5042TIP3   OH236540   3.509   0.755   4.968 -0.3834 -0.1016 -0.0858
 5042TIP3    H136541   3.450   0.797   5.030  0.1944 -1.1785  1.2292
 5042TIP3    H236542   3.500   0.806   4.887 -0.8355  1.5803  1.0054
 5043TIP3   OH236543   4.754   4.832  15.705  0.2445 -0.3244 -0.9818
 5043TIP3    H136544   4.797   4.888  15.640  0.8495  0.1266 -0.1968
 5043TIP3    H236545   4.824   4.808  15.766 -0.8826  1.6784  1.1972
 5044TIP3   OH236546   3.388   1.416  11.654  0.2156 -0.7761 -0.1767
 5044TIP3    H136547   3.331   1.390  11.582  0.5865 -0.8934 -0.4290
 5044TIP3    H236548   3.454   1.472  11.613 -0.1422 -0.0362  0.2343
 5045TIP3   OH236549   0.410   2.256  16.174  0.4697  0.0949  0.5328
 5045TIP3    H136550   0.426   2.163  16.156  1.6546  0.6135 -1.2949
 5045TIP3    H236551   0.414   2.263  16.269 -0.5431 -1.8750  0.7676
 5046TIP3   OH236552   5.691   5.514   3.491  0.4409 -0.2014  0.4665
 5046TIP3    H136553   5.623   5.530   3.556 -2.1909  0.2722 -2.2504
 5046TIP3    H236554   5.760   5.577   3.512 -0.7425  0.5344  2.2362
 5047TIP3   OH236555   5.060   0.813   3.759 -0.4224 -0.2655  0.1794
 5047TIP3    H136556   5.011   0.731   3.766 -0.2224 -0.1734  3.0232
 5047TIP3    H236557   5.101   0.824   3.844  2.7440  0.8199 -1.4126
 5048TIP3   OH236558   2.736   6.658  11.756 -0.4741 -0.4736 -0.2421
 5048TIP3    H136559   2.753   6.568  11.783  0.9665 -1.1523 -3.2102
 5048TIP3    H236560   2.663   6.652  11.694  0.9921  0.1015 -2.0766
 5049TIP3   OH236561   5.196   0.532  14.080 -0.1672 -0.3409  0.2123
 5049TIP3    H136562   5.288   0.538  14.055 -0.2352  1.0921  0.2657
 5049TIP3    H236563   5.148   0.531  13.998 -0.1434 -0.4468  0.1996
 5050TIP3   OH236564   1.470   5.037  13.514  0.1937 -0.1742  0.0702
 5050TIP3    H136565   1.440   5.126  13.533  0.6241  0.3461 -1.6878
 5050TIP3    H236566   1.401   4.999  13.459  0.5296 -0.5622 -0.0916
 5051TIP3   OH236567   5.361   4.864   3.240 -0.4346  0.2261 -0.0667
 5051TIP3    H136568   5.284   4.914   3.213  0.3616  0.2427 -2.3948
 5051TIP3    H236569   5.429   4.890   3.179  1.2865 -0.2085  1.6280
 5052TIP3   OH236570   3.474   2.493   3.305 -0.0112  0.1443 -0.1258
 5052TIP3    H136571   3.489   2.438   3.382 -1.4159  1.2808  0.9896
 5052TIP3    H236572   3.418   2.441   3.248 -0.0078 -0.2012  0.1881
 5053TIP3   OH236573   5.759   0.626  11.455  0.2344  0.7317 -0.0081
 5053TIP3    H136574   5.826   0.596  11.393 -0.1126  0.5428 -0.2884
 5053TIP3    H236575   5.753   0.720  11.439 -0.3317  0.5776 -0.7258
 5054TIP3   OH236576   6.635   5.509   5.023 -0.5724  0.4379  0.2205
 5054TIP3    H136577   6.588   5.429   5.047 -0.0144 -0.2139 -0.7918
 5054TIP3    H236578   6.687   5.531   5.100 -2.2945  1.0099  1.2522
 5055TIP3   OH236579   0.404   1.402   4.539  0.0274  0.4337 -0.1797
 5055TIP3    H136580   0.460   1.327   4.559 -1.6234 -0.7941 -0.0278
 5055TIP3    H236581   0.323   1.384   4.587 -0.1973  2.5948  0.2913
 5056TIP3   OH236582   2.225   3.316  15.223 -0.6455  0.6771  0.2517
 5056TIP3    H136583   2.190   3.387  15.276 -0.9009 -1.3171  2.8120
 5056TIP3    H236584   2.317   3.310  15.249 -0.1724  1.1423 -1.2184
 5057TIP3   OH236585   4.722   3.144   1.506 -0.4820 -0.3942 -0.0749
 5057TIP3    H136586   4.650   3.105   1.555 -0.3348 -0.3515  0.1705
 5057TIP3    H236587   4.799   3.129   1.559 -0.6122  1.3283  0.6300
 5058TIP3   OH236588   3.330   4.016   4.538  0.0619 -0.6637  0.0066
 5058TIP3    H136589   3.389   4.063   4.597  0.9647 -0.4990 -1.0123
 5058TIP3    H236590   3.346   4.055   4.452 -0.6160 -1.4872 -0.5049
 5059TIP3   OH236591   3.195   4.694   0.833 -0.3451  0.3205  0.1391
 5059TIP3    H136592   3.225   4.716   0.745 -0.1212 -0.3126  0.0565
 5059TIP3    H236593   3.233   4.762   0.889 -0.0865  0.4436 -0.1861
 5060TIP3   OH236594   5.032   2.831  15.347  0.3974 -0.0240 -0.3762
 5060TIP3    H136595   5.019   2.810  15.439  0.9789  0.0403 -0.2765
 5060TIP3    H236596   4.963   2.784  15.301 -0.6789  0.9440  0.2139
 5061TIP3   OH236597   5.380   2.176  16.831  0.1104  0.0242 -0.3473
 5061TIP3    H136598   5.335   2.213  16.907 -0.1172 -0.9550  0.0065
 5061TIP3    H236599   5.331   2.207  16.756 -0.7248 -0.4320  0.0012
 5062TIP3   OH236600   4.549   4.408  11.313 -0.0494 -0.0416 -0.1559
 5062TIP3    H136601   4.612   4.376  11.377 -2.1641 -1.7475  1.1570
 5062TIP3    H236602   4.553   4.345  11.242  0.3176  0.3063 -0.4426
 5063TIP3   OH236603   3.731   1.485   3.758 -0.3633 -0.5114 -0.1205
 5063TIP3    H136604   3.810   1.442   3.792 -0.1949 -1.1369 -1.3091
 5063TIP3    H236605   3.662   1.460   3.819  0.6693  1.3939  1.9077
 5064TIP3   OH236606   4.536   4.823   1.737  0.4411  0.0926 -0.6571
 5064TIP3    H136607   4.448   4.798   1.708  0.2096 -0.2869  0.3862
 5064TIP3    H236608   4.594   4.761   1.693  0.1880  0.2528 -1.2322
 5065TIP3   OH236609   4.044   4.564  14.743  0.0566 -0.3704  0.1138
 5065TIP3    H136610   4.083   4.646  14.775 -1.4088  0.2215  0.4408
 5065TIP3    H236611   4.057   4.566  14.649 -0.2385  0.4060  0.0818
 5066TIP3   OH236612   6.786   0.403  15.764  0.5770 -0.0049 -0.5384
 5066TIP3    H136613   6.724   0.471  15.790  1.1879  0.3081  0.1102
 5066TIP3    H236614   6.732   0.325  15.751  0.3463 -0.4648  2.7689
 5067TIP3   OH236615   4.770   1.216  16.933  0.3454 -0.1027  0.7099
 5067TIP3    H136616   4.716   1.223  17.011  0.4657 -0.2608  0.8069
 5067TIP3    H236617   4.824   1.138  16.948 -1.3131 -1.5275 -0.5522
 5068TIP3   OH236618   1.303   2.013  16.680 -0.1419 -0.8995 -0.1473
 5068TIP3    H136619   1.264   1.928  16.700 -0.1094 -0.9779 -0.4169
 5068TIP3    H236620   1.392   2.006  16.713  0.0225 -1.1560 -0.6434
 5069TIP3   OH236621   1.042   2.103   4.736  0.3997  0.4559  0.2330
 5069TIP3    H136622   1.132   2.121   4.764 -0.0618  0.4835  1.7362
 5069TIP3    H236623   0.988   2.159   4.792 -0.6014 -0.0041 -0.2597
 5070TIP3   OH236624   1.134   1.864   2.320  0.0688 -0.2334 -0.2864
 5070TIP3    H136625   1.122   1.933   2.386  2.7789 -0.7224  0.7861
 5070TIP3    H236626   1.062   1.877   2.258 -1.0724  1.8120  1.4134
 5071TIP3   OH236627   1.062   1.643   5.134  0.1204 -0.2845  0.2340
 5071TIP3    H136628   1.111   1.594   5.200  0.7160 -1.6049 -1.1407
 5071TIP3    H236629   1.041   1.577   5.067 -2.5472  0.5017  0.2553
 5072TIP3   OH236630   4.015   2.870  12.604 -0.1628 -0.4824  0.0012
 5072TIP3    H136631   3.938   2.813  12.604 -0.3628 -0.2056  0.3000
 5072TIP3    H236632   4.035   2.882  12.511 -2.6010  2.3569 -0.2148
 5073TIP3   OH236633   1.678   5.107  12.854 -0.2254 -0.2887  0.0795
 5073TIP3    H136634   1.585   5.131  12.857  0.1203  1.0282  0.4491
 5073TIP3    H236635   1.701   5.088  12.945 -0.0692 -0.4010  0.0180
 5074TIP3   OH236636   1.067   5.700   2.820  0.1306 -0.3825  0.5328
 5074TIP3    H136637   1.091   5.739   2.737 -0.4934 -1.9626 -0.4137
 5074TIP3    H236638   1.132   5.733   2.882  1.5180 -0.4057 -0.8867
 5075TIP3   OH236639   1.787   0.973   0.608 -0.4460  0.5051 -0.1478
 5075TIP3    H136640   1.749   1.021   0.681 -0.7500 -2.1077  1.5097
 5075TIP3    H236641   1.873   1.012   0.595 -1.0808  2.1349  0.4507
 5076TIP3   OH236642   6.727   1.246  13.723 -0.5143 -0.2584  0.2348
 5076TIP3    H136643   6.808   1.255  13.774  0.5412 -0.0814 -1.4300
 5076TIP3    H236644   6.688   1.333  13.724 -1.1324 -0.5496  1.7722
 5077TIP3   OH236645   4.763   1.752  14.777 -0.0860  0.1485 -0.3775
 5077TIP3    H136646   4.667   1.747  14.773 -0.0436  0.2425 -1.7412
 5077TIP3    H236647   4.792   1.722  14.691  1.1802 -1.1845  0.4936
 5078TIP3   OH236648   2.885   0.327   3.234  0.1996 -0.6776  0.2304
 5078TIP3    H136649   2.851   0.385   3.301  1.5026 -0.8880  1.1009
 5078TIP3    H236650   2.847   0.359   3.152 -0.7114  0.1177  0.9606
 5079TIP3   OH236651   3.007   2.705   0.789 -0.1806 -0.3558  0.2996
 5079TIP3    H136652   3.027   2.711   0.696 -0.3003 -1.7171  0.1663
 5079TIP3    H236653   2.926   2.755   0.800  0.5650  0.9575 -0.0658
 5080TIP3   OH236654   6.681   4.110  11.280  0.0888 -0.4638  0.2698
 5080TIP3    H136655   6.651   4.110  11.189  2.8786 -0.8412 -0.7255
 5080TIP3    H236656   6.696   4.203  11.300 -3.0086 -0.1445  1.2614
 5081TIP3   OH236657   5.898   5.352  16.673  0.1349 -0.2847 -0.0150
 5081TIP3    H136658   5.919   5.261  16.651  0.8765 -0.1232 -0.0005
 5081TIP3    H236659   5.857   5.387  16.594  0.6430 -0.3856 -0.3263
 5082TIP3   OH236660   1.080   2.973  14.472 -0.4384 -0.2847 -0.1288
 5082TIP3    H136661   1.044   2.966  14.384 -1.3716  1.0501  0.1363
 5082TIP3    H236662   1.021   2.922  14.527 -1.0364  0.5958  0.0511
 5083TIP3   OH236663   4.449   1.554  12.123  0.4390  0.2735  0.4323
 5083TIP3    H136664   4.429   1.630  12.178 -0.9443  0.6832 -0.5884
 5083TIP3    H236665   4.432   1.585  12.034 -2.0244 -1.8002  0.1203
 5084TIP3   OH236666   0.415   1.080   0.900  0.3860 -0.1806  0.4570
 5084TIP3    H136667   0.496   1.029   0.903  1.1989  1.0702 -0.0891
 5084TIP3    H236668   0.382   1.068   0.811  0.7571  0.5313  0.2251
 5085TIP3   OH236669   4.505   2.279  16.657  0.2398 -0.0055  0.2677
 5085TIP3    H136670   4.585   2.291  16.708  0.4964  0.1868 -0.1774
 5085TIP3    H236671   4.454   2.359  16.672  0.1010 -0.1577  0.6043
 5086TIP3   OH236672   0.398   4.084  14.748  0.2283 -0.2720 -0.2283
 5086TIP3    H136673   0.310   4.110  14.720 -0.2470 -0.8686  0.6655
 5086TIP3    H236674   0.453   4.160  14.731  0.0279 -0.6707 -3.0025
 5087TIP3   OH236675   0.912   0.104   3.534 -0.2520  0.0603  0.9064
 5087TIP3    H136676   0.942   0.174   3.592 -0.4148  0.9903 -0.1036
 5087TIP3    H236677   0.819   0.096   3.554 -0.5013  0.9866  0.1802
 5088TIP3   OH236678   3.797   2.889   1.760  0.5508  0.6946 -0.4648
 5088TIP3    H136679   3.885   2.920   1.739  0.4339  0.2952 -1.5828
 5088TIP3    H236680   3.747   2.904   1.680 -0.3655  0.7995  0.1273
 5089TIP3   OH236681   1.566   6.075   5.939 -0.1180 -0.4464  0.4431
 5089TIP3    H136682   1.646   6.127   5.952 -0.5946 -0.0780  1.9998
 5089TIP3    H236683   1.591   6.009   5.875  0.8051  1.0337 -0.7557
 5090TIP3   OH236684   3.711   3.355  14.247 -0.4458  0.3925  0.3333
 5090TIP3    H136685   3.717   3.449  14.263 -0.4074  0.3392  0.6457
 5090TIP3    H236686   3.747   3.343  14.159 -0.2305  0.6395  0.3872
 5091TIP3   OH236687   4.232   3.654   5.104  0.3656 -0.0766  0.4685
 5091TIP3    H136688   4.159   3.623   5.158 -0.0221  1.1866  0.6835
 5091TIP3    H236689   4.193   3.722   5.049  1.0893 -0.3385 -0.3788
 5092TIP3   OH236690   5.992   3.495  15.365 -0.5121  0.4002 -0.0290
 5092TIP3    H136691   6.070   3.532  15.406 -0.0910 -0.8120  0.2884
 5092TIP3    H236692   5.959   3.433  15.430 -0.4078 -0.8031 -1.1218
 5093TIP3   OH236693   4.298   1.301   1.280 -0.0222 -0.3945 -0.3508
 5093TIP3    H136694   4.371   1.249   1.315  1.4527  0.9390 -1.3635
 5093TIP3    H236695   4.280   1.261   1.195  0.1238 -0.1612 -0.4901
 5094TIP3   OH236696   0.747   5.522   2.205  0.4055  0.3174  0.1184
 5094TIP3    H136697   0.667   5.528   2.256  1.2077  0.7024  1.3398
 5094TIP3    H236698   0.784   5.436   2.228  0.2636  0.0682 -0.5681
 5095TIP3   OH236699   5.989   2.136  13.955 -0.0546 -0.1501 -0.3823
 5095TIP3    H136700   6.062   2.077  13.940 -0.3981 -0.7273  0.1719
 5095TIP3    H236701   5.947   2.103  14.035 -0.3238  0.7658 -0.1313
 5096TIP3   OH236702   6.786   2.589   6.166  0.5850  0.3981  0.1821
 5096TIP3    H136703   6.781   2.683   6.181 -1.4612 -0.0577  2.8016
 5096TIP3    H236704   6.700   2.565   6.131  0.5251 -0.7129  1.0479
 5097TIP3   OH236705   6.783   0.160  12.689  0.6381 -0.2319  0.0862
 5097TIP3    H136706   6.824   0.138  12.773 -1.1561  0.5902  1.2046
 5097TIP3    H236707   6.765   0.076  12.648  2.0936 -0.6315  0.2269
 5098TIP3   OH236708   2.150   3.259  16.558 -0.4882 -0.3465 -0.3449
 5098TIP3    H136709   2.084   3.213  16.506  0.6205 -3.2873  0.7921
 5098TIP3    H236710   2.195   3.191  16.607  0.5697  2.0585  2.1662
 5099TIP3   OH236711   5.550   1.972  15.019  0.4754 -0.4006  0.5453
 5099TIP3    H136712   5.504   1.889  15.007  0.1194 -0.3522  1.5549
 5099TIP3    H236713   5.589   1.990  14.933  0.3384 -1.4743  0.2505
 5100TIP3   OH236714   1.954   5.914   5.970  0.5996  0.0978  0.5120
 5100TIP3    H136715   2.021   5.923   6.038  1.2564 -1.7735  0.1195
 5100TIP3    H236716   1.999   5.936   5.889  0.8146 -1.3912  0.2170
 5101TIP3   OH236717   6.160   3.108   3.296  0.4730 -0.0890  0.0751
 5101TIP3    H136718   6.110   3.177   3.338 -2.5954 -1.8345 -0.5175
 5101TIP3    H236719   6.106   3.080   3.222  0.9737 -3.9300  1.0104
 5102TIP3   OH236720   0.376   4.043  15.225  0.8492 -0.7315 -0.2211
 5102TIP3    H136721   0.371   4.138  15.237  1.5536 -0.9524  1.9776
 5102TIP3    H236722   0.451   4.016  15.277 -2.6287 -3.2364  3.8193
 5103TIP3   OH236723   0.767   6.129   6.036  0.4649 -0.0757  0.1315
 5103TIP3    H136724   0.721   6.209   6.063 -0.3093 -0.7549  0.8402
 5103TIP3    H236725   0.721   6.059   6.080 -0.0596 -1.1155 -2.0223
 5104TIP3   OH236726   2.885   5.884   1.604 -0.0625  0.4552  0.5987
 5104TIP3    H136727   2.850   5.971   1.582  0.2469  0.3512 -0.3426
 5104TIP3    H236728   2.935   5.898   1.684  0.0798  1.1690  0.3894
 5105TIP3   OH236729   1.459   6.530  12.519 -0.0732 -0.3599 -0.0193
 5105TIP3    H136730   1.507   6.482  12.452  0.3846  0.3219 -0.1970
 5105TIP3    H236731   1.376   6.485  12.528 -0.4371 -0.0005 -1.5905
 5106TIP3   OH236732   0.111   0.146  10.804  0.2391 -0.1611 -0.7742
 5106TIP3    H136733   0.180   0.166  10.741  1.0809  2.0787  0.8306
 5106TIP3    H236734   0.076   0.231  10.830 -1.8136 -1.1808 -0.0889
 5107TIP3   OH236735   4.466   5.936  11.391  0.0664 -1.0503  0.7976
 5107TIP3    H136736   4.441   5.921  11.482 -1.1858 -0.6275  0.5301
 5107TIP3    H236737   4.438   6.026  11.373  3.6116  0.2228  1.1008
 5108TIP3   OH236738   6.056   6.360  16.905  0.0816  0.1673  0.5564
 5108TIP3    H136739   6.091   6.271  16.902  1.0915  0.5720 -0.0228
 5108TIP3    H236740   5.970   6.351  16.946  0.7133 -0.8992  1.6888
 5109TIP3   OH236741   2.850   3.500   1.970  0.6591  0.1103 -0.7471
 5109TIP3    H136742   2.759   3.474   1.956  0.8803 -0.4017 -1.2271
 5109TIP3    H236743   2.894   3.482   1.887  1.4275 -0.5952 -0.1965
 5110TIP3   OH236744   5.102   3.998   3.987  0.5990 -0.4209 -0.6743
 5110TIP3    H136745   5.100   3.973   4.079  0.2569  1.2841 -0.2098
 5110TIP3    H236746   5.032   3.946   3.947  0.0764 -0.4253  0.2277
 5111TIP3   OH236747   1.832   4.192   3.099  0.3618 -0.0576  0.3144
 5111TIP3    H136748   1.805   4.104   3.072  1.0848 -0.3084  0.4111
 5111TIP3    H236749   1.815   4.246   3.022  3.0399 -0.8958 -0.9334
 5112TIP3   OH236750   5.378   4.542  11.513  0.1641  0.0764  0.2942
 5112TIP3    H136751   5.286   4.569  11.515  0.3790  1.2468 -2.8223
 5112TIP3    H236752   5.426   4.622  11.534  0.5292  0.1826 -0.8947
 5113TIP3   OH236753   0.212   4.687  14.438 -0.2923  0.5809  0.0736
 5113TIP3    H136754   0.204   4.668  14.531  0.1695  2.3078  0.4947
 5113TIP3    H236755   0.300   4.724  14.429 -0.0097 -0.3785 -1.1962
 5114TIP3   OH236756   5.069   5.298   4.508 -0.0807  0.4788  0.3683
 5114TIP3    H136757   5.060   5.368   4.573  0.2330  0.7957  0.0747
 5114TIP3    H236758   4.984   5.254   4.509 -0.9303  2.0520 -0.8056
 5115TIP3   OH236759   5.006   1.076  14.950 -0.1748  0.1104 -0.6844
 5115TIP3    H136760   4.912   1.064  14.938 -0.1341 -0.0632 -0.8260
 5115TIP3    H236761   5.036   1.117  14.869 -0.4768  2.0891  0.1845
 5116TIP3   OH236762   4.024   5.108  13.752 -0.5695  0.1375 -0.1616
 5116TIP3    H136763   3.991   5.176  13.810  1.7326  1.0690  0.1400
 5116TIP3    H236764   3.971   5.031  13.772 -1.4017  1.1004  1.4660
 5117TIP3   OH236765   3.410   3.007   1.385  0.1991 -0.0639  0.1494
 5117TIP3    H136766   3.372   2.921   1.405 -1.5862  0.8974  0.9459
 5117TIP3    H236767   3.419   3.007   1.289 -1.6306 -0.3928 -0.0463
 5118TIP3   OH236768   1.251   5.142  16.163  0.3558 -0.2948 -0.0493
 5118TIP3    H136769   1.327   5.127  16.220  0.0958 -1.9290 -0.1219
 5118TIP3    H236770   1.225   5.055  16.133 -1.3352  0.2777 -0.3106
 5119TIP3   OH236771   2.634   5.298   5.381  0.4361 -0.2416 -0.1148
 5119TIP3    H136772   2.622   5.245   5.459  0.3438  1.4203  1.0173
 5119TIP3    H236773   2.713   5.349   5.398  0.0934  0.5627 -0.8509
 5120TIP3   OH236774   3.772   5.106   0.401  0.7245 -0.2215  0.1766
 5120TIP3    H136775   3.780   5.133   0.492  1.2124 -0.4007  0.1878
 5120TIP3    H236776   3.849   5.142   0.358  0.1299  0.4703 -0.3183
 5121TIP3   OH236777   5.310   3.751   1.172 -0.6939  0.7915  0.2179
 5121TIP3    H136778   5.278   3.684   1.111  1.9229 -0.6534  0.3249
 5121TIP3    H236779   5.329   3.703   1.253  0.0593  1.8760  0.7020
 5122TIP3   OH236780   5.675   0.161  10.747 -0.3349  0.1341 -0.1523
 5122TIP3    H136781   5.677   0.099  10.820 -1.0607  0.9944  0.6065
 5122TIP3    H236782   5.704   0.244  10.786  0.0863  0.3961 -1.0317
 5123TIP3   OH236783   1.406   5.564  10.835 -0.4936  0.1949 -0.4757
 5123TIP3    H136784   1.380   5.585  10.924 -0.4053 -1.7810  0.0422
 5123TIP3    H236785   1.500   5.544  10.842 -0.6279 -0.5831 -0.8965
 5124TIP3   OH236786   0.448   0.048  15.286  0.1439 -0.1364  0.2625
 5124TIP3    H136787   0.521   0.091  15.330  1.3270  0.5516 -2.3139
 5124TIP3    H236788   0.402   0.118  15.240 -0.2576 -1.0538 -0.7454
 5125TIP3   OH236789   4.197   3.997  16.145  0.2256 -0.1761  0.6901
 5125TIP3    H136790   4.143   4.064  16.102  0.0096 -0.1329  1.0368
 5125TIP3    H236791   4.140   3.921  16.153  0.3258 -0.2459  0.7424
 5126TIP3   OH236792   5.924   2.254  13.473  0.0270  0.2345  0.0302
 5126TIP3    H136793   5.891   2.341  13.497 -4.0662 -1.2326  0.1557
 5126TIP3    H236794   5.926   2.205  13.555 -0.6227 -0.6820 -0.4892
 5127TIP3   OH236795   4.040   5.189   0.508  0.9406  0.1408  0.0002
 5127TIP3    H136796   4.131   5.168   0.528  1.4941  1.1918 -1.3320
 5127TIP3    H236797   4.033   5.284   0.522 -0.3193 -0.1408  1.4488
 5128TIP3   OH236798   5.542   3.933   1.748 -0.3004  0.2403 -0.0385
 5128TIP3    H136799   5.498   3.849   1.756  0.9993 -0.4070  0.4951
 5128TIP3    H236800   5.492   3.981   1.682  0.0093 -1.6245 -1.6541
 5129TIP3   OH236801   0.861   5.047  14.074 -0.5242  0.4159 -0.5185
 5129TIP3    H136802   0.836   5.103  14.148 -1.8635  1.4585 -1.7283
 5129TIP3    H236803   0.778   5.025  14.032  0.1653 -0.8500 -1.2220
 5130TIP3   OH236804   5.241   3.189  17.119  0.7436  0.0736  0.1567
 5130TIP3    H136805   5.236   3.135  17.198 -0.6842 -0.4580 -0.2710
 5130TIP3    H236806   5.194   3.138  17.053 -1.7597  2.3793  0.0745
 5131TIP3   OH236807   3.178   2.148  13.355  0.0486 -0.5162  0.2353
 5131TIP3    H136808   3.187   2.230  13.403  0.4866 -0.8547  0.7358
 5131TIP3    H236809   3.113   2.098  13.405 -1.1023 -0.0065 -0.7245
 5132TIP3   OH236810   1.555   0.290  11.969  0.2256  0.5287  0.1984
 5132TIP3    H136811   1.565   0.200  11.998  1.9310  0.6588  0.0743
 5132TIP3    H236812   1.615   0.341  12.024 -1.0656  1.6521  0.5837
 5133TIP3   OH236813   5.892   1.548   3.040 -0.0404  0.5051  0.0572
 5133TIP3    H136814   5.798   1.528   3.036  0.0790 -0.0517  0.0097
 5133TIP3    H236815   5.920   1.547   2.948  0.4699 -1.5512  0.2120
 5134TIP3   OH236816   4.327   2.235   5.028 -0.2013  0.0772 -0.0501
 5134TIP3    H136817   4.273   2.261   5.102 -0.0608  0.7573 -0.1816
 5134TIP3    H236818   4.357   2.147   5.050  1.0497  0.8454  1.3834
 5135TIP3   OH236819   3.263   3.430  15.132 -0.0616  0.6938  0.0176
 5135TIP3    H136820   3.279   3.360  15.194 -1.7655  1.0109  0.8278
 5135TIP3    H236821   3.316   3.407  15.056  3.4107  1.1980  2.1900
 5136TIP3   OH236822   4.818   5.640   2.845 -0.5888 -0.1452 -0.0499
 5136TIP3    H136823   4.778   5.672   2.765  0.0944 -1.4685 -0.9383
 5136TIP3    H236824   4.895   5.591   2.816  0.7297  0.9504  1.5335
 5137TIP3   OH236825   2.935   3.307  10.665  0.3631  0.4563  0.2687
 5137TIP3    H136826   2.878   3.235  10.639  0.3851  0.9864 -1.3091
 5137TIP3    H236827   2.942   3.361  10.586  3.3527  0.1935  0.3169
 5138TIP3   OH236828   4.466   6.220   2.518  0.0946  0.6745 -0.2957
 5138TIP3    H136829   4.466   6.279   2.594 -1.1813  0.2390  0.0513
 5138TIP3    H236830   4.426   6.139   2.550 -0.7402  0.5943 -1.5167
 5139TIP3   OH236831   0.075   2.279   3.626  0.2041 -0.2105 -0.0852
 5139TIP3    H136832   0.116   2.234   3.552  0.5668  2.2242 -1.4158
 5139TIP3    H236833  -0.015   2.295   3.598 -0.2850 -1.2049  0.8836
 5140TIP3   OH236834   2.044   4.645   4.296 -0.6089 -0.3577  0.0066
 5140TIP3    H136835   2.044   4.737   4.322 -0.5765 -0.5427  0.6686
 5140TIP3    H236836   2.043   4.597   4.379  3.6399 -0.9701 -0.1508
 5141TIP3   OH236837   0.221   6.473   2.938 -0.2008  0.1383 -0.5141
 5141TIP3    H136838   0.310   6.446   2.962 -0.1719  1.4568  0.9719
 5141TIP3    H236839   0.182   6.395   2.898  1.0351 -1.0085  0.4638
 5142TIP3   OH236840   6.715   3.659  14.309  0.4220  0.5865  0.3107
 5142TIP3    H136841   6.669   3.717  14.248  1.0633  1.3203  0.5102
 5142TIP3    H236842   6.688   3.691  14.396  1.1606  0.9079  0.4261
 5143TIP3   OH236843   0.970   0.128   1.257 -1.0340 -0.0154 -0.0477
 5143TIP3    H136844   0.992   0.044   1.297 -1.1713 -0.2877 -0.5476
 5143TIP3    H236845   1.030   0.190   1.298 -0.7176 -0.4098  0.0917
 5144TIP3   OH236846   6.463   5.651  14.213 -0.5239  0.1742  0.0946
 5144TIP3    H136847   6.534   5.588  14.197  0.3520  1.5339 -1.5434
 5144TIP3    H236848   6.385   5.596  14.226  0.4693 -1.2807  0.0214
 5145TIP3   OH236849   1.562   1.837   5.956 -0.9773 -0.2717 -0.2344
 5145TIP3    H136850   1.520   1.880   6.031  0.3247 -0.3365  0.5389
 5145TIP3    H236851   1.611   1.907   5.913  1.8753 -1.1163  1.5405
 5146TIP3   OH236852   5.764   4.799   2.078 -0.4125  0.0053 -0.1824
 5146TIP3    H136853   5.753   4.732   2.010  1.7026 -2.0772  1.4433
 5146TIP3    H236854   5.699   4.777   2.144  1.1054 -1.2571  0.9324
 5147TIP3   OH236855   6.766   0.663  17.083  0.0145  0.2189 -0.8193
 5147TIP3    H136856   6.764   0.677  16.989  0.1392 -0.3094 -0.9016
 5147TIP3    H236857   6.808   0.742  17.118  0.4349  0.1915 -1.2499
 5148TIP3   OH236858   4.706   3.653  11.515  0.4313 -0.2613  0.4668
 5148TIP3    H136859   4.645   3.615  11.452  1.4115  0.2585 -0.8343
 5148TIP3    H236860   4.665   3.640  11.600 -2.8462  2.6115 -0.5455
 5149TIP3   OH236861   5.498   2.005   1.230  0.0694  0.9742 -0.1539
 5149TIP3    H136862   5.471   2.072   1.168 -3.2287  1.2289  1.4411
 5149TIP3    H236863   5.432   2.009   1.300  0.5436 -2.9584  0.6545
 5150TIP3   OH236864   3.592   6.636   1.746  0.3517 -0.4471  0.1493
 5150TIP3    H136865   3.607   6.664   1.656 -0.2302 -1.0426 -0.1366
 5150TIP3    H236866   3.557   6.547   1.738 -0.0736 -0.3572  0.9423
 5151TIP3   OH236867   1.714   0.345   0.059 -0.6060  0.0373  0.3648
 5151TIP3    H136868   1.759   0.323   0.141  0.5123 -0.5560 -0.3898
 5151TIP3    H236869   1.763   0.420   0.025 -1.9062  1.1567  0.8990
 5152TIP3   OH236870   5.449   5.764  15.563  0.1276 -0.3849 -0.4282
 5152TIP3    H136871   5.508   5.692  15.586 -0.7460 -1.6435 -2.0357
 5152TIP3    H236872   5.491   5.807  15.488  0.3246  0.4016  0.1196
 5153TIP3   OH236873   1.190   4.530  16.138 -0.2947  0.4486  0.1289
 5153TIP3    H136874   1.172   4.438  16.155 -0.1548 -0.0281 -2.2137
 5153TIP3    H236875   1.104   4.568  16.119 -0.2008  0.5711 -0.0436
 5154TIP3   OH236876   3.670   4.813  15.485  0.0634 -0.1514 -0.1208
 5154TIP3    H136877   3.710   4.729  15.462  1.2220  0.0177  1.2441
 5154TIP3    H236878   3.576   4.793  15.489  0.2971 -1.3322 -0.0829
 5155TIP3   OH236879   0.062   0.523  16.133  0.3644  0.4781 -1.1327
 5155TIP3    H136880   0.007   0.577  16.076 -1.2193  0.5964  0.4606
 5155TIP3    H236881   0.108   0.586  16.189 -1.4716  0.2363  0.7126
 5156TIP3   OH236882   5.281   1.832  11.419  0.1598 -0.1677  0.4977
 5156TIP3    H136883   5.350   1.778  11.380 -0.7297  0.8713 -2.6491
 5156TIP3    H236884   5.326   1.882  11.487  2.0742 -1.0484 -0.0819
 5157TIP3   OH236885   6.294   3.103  15.361 -0.3329 -0.1248 -0.0587
 5157TIP3    H136886   6.385   3.103  15.329 -0.1986 -0.4249  0.3167
 5157TIP3    H236887   6.299   3.150  15.444 -0.6057  0.2822 -0.2748
 5158TIP3   OH236888   2.872   1.953  15.812 -0.1066  0.5459 -0.1126
 5158TIP3    H136889   2.878   2.031  15.757 -1.2246  0.4760 -0.3531
 5158TIP3    H236890   2.788   1.913  15.787 -0.1469 -0.0264  0.9283
 5159TIP3   OH236891   0.330   2.450   0.915 -0.0240 -0.3156  0.3279
 5159TIP3    H136892   0.242   2.419   0.937  0.3015 -0.1729  1.8956
 5159TIP3    H236893   0.388   2.405   0.978  0.9283  0.2287 -0.1459
 5160TIP3   OH236894   1.294   0.510  15.684  0.8122  0.2597 -0.1219
 5160TIP3    H136895   1.236   0.557  15.624  0.1004 -2.4869 -1.6658
 5160TIP3    H236896   1.380   0.513  15.642  0.8040  0.3547 -0.1305
 5161TIP3   OH236897   0.726   3.076   1.117  0.2055 -0.2926  0.3266
 5161TIP3    H136898   0.816   3.109   1.115  0.5159 -0.9620  2.0548
 5161TIP3    H236899   0.722   3.022   1.196 -1.8419  0.0681  0.5027
 5162TIP3   OH236900   5.452   5.338  11.613 -0.7019 -0.3406 -0.3404
 5162TIP3    H136901   5.539   5.373  11.630 -0.3059 -0.8025 -1.3961
 5162TIP3    H236902   5.466   5.267  11.551 -2.0840  1.1532 -2.4489
 5163TIP3   OH236903   1.548   6.495   3.053 -0.2174  0.7412 -0.0225
 5163TIP3    H136904   1.539   6.508   2.959  1.4422  1.5296 -0.0851
 5163TIP3    H236905   1.472   6.538   3.091 -0.2931  1.4088 -0.9343
 5164TIP3   OH236906   3.167   2.339   5.779 -0.3019  0.2966 -0.6570
 5164TIP3    H136907   3.117   2.259   5.795 -1.3326  1.2770  1.1885
 5164TIP3    H236908   3.238   2.336   5.843  0.0723  0.5095 -1.0625
 5165TIP3   OH236909   3.442   5.637   3.955 -0.1865 -0.6041 -0.2434
 5165TIP3    H136910   3.487   5.712   3.917  1.1880 -0.9346  0.7020
 5165TIP3    H236911   3.512   5.581   3.989 -1.1991 -2.2247 -0.7524
 5166TIP3   OH236912   4.433   4.242   1.444  0.3852 -0.1312 -0.0596
 5166TIP3    H136913   4.373   4.189   1.496  2.3445 -1.9695  0.4264
 5166TIP3    H236914   4.427   4.330   1.482 -1.6050 -0.3917  0.2694
 5167TIP3   OH236915   3.917   0.804  16.952  0.1284  0.3238  0.3813
 5167TIP3    H136916   3.969   0.732  16.917  1.8196  0.6704  2.1005
 5167TIP3    H236917   3.969   0.839  17.024 -1.4499  2.1717  0.6818
 5168TIP3   OH236918   3.098   4.783   3.569  0.2127 -0.6957  0.1853
 5168TIP3    H136919   3.172   4.834   3.603 -0.1238 -0.7861  1.0713
 5168TIP3    H236920   3.054   4.842   3.508 -0.1618  0.0703  1.1878
 5169TIP3   OH236921   6.061   4.012   0.932 -0.2222 -0.2315  0.2726
 5169TIP3    H136922   6.062   4.068   0.855  1.5961 -1.6864 -0.8024
 5169TIP3    H236923   6.073   3.924   0.898 -0.5818 -1.0321  2.1393
 5170TIP3   OH236924   1.207   4.219  11.478 -0.1632  0.1156 -0.0945
 5170TIP3    H136925   1.142   4.228  11.408  1.2293 -2.3739 -1.7483
 5170TIP3    H236926   1.284   4.264  11.445  0.4741 -0.9882 -0.1118
 5171TIP3   OH236927   2.534   5.501  13.729 -0.2237 -0.1690  0.3024
 5171TIP3    H136928   2.478   5.567  13.770 -1.7596 -0.5419 -1.1417
 5171TIP3    H236929   2.623   5.528  13.751 -0.8024  2.6744 -0.6853
 5172TIP3   OH236930   2.962   4.900  15.603 -0.4400  0.0153  0.1544
 5172TIP3    H136931   2.883   4.923  15.555 -0.5797 -0.0381  0.3555
 5172TIP3    H236932   3.001   4.984  15.628 -0.9210  0.0404  0.8423
 5173TIP3   OH236933   5.354   4.562   6.356  0.1768  0.2081  0.4018
 5173TIP3    H136934   5.317   4.511   6.428 -0.5811  0.2797  0.0756
 5173TIP3    H236935   5.439   4.523   6.340  0.3537  0.1897  1.3381
 5174TIP3   OH236936   4.792   1.949  15.165  0.9350 -0.2290  0.0658
 5174TIP3    H136937   4.818   1.985  15.081  0.9080  1.2432  0.6791
 5174TIP3    H236938   4.805   2.020  15.227 -1.9284 -0.3181  0.8422
 5175TIP3   OH236939   4.684   4.169   5.638 -0.4953 -0.4232  0.1302
 5175TIP3    H136940   4.672   4.169   5.733 -0.2029 -0.9397  0.1684
 5175TIP3    H236941   4.722   4.255   5.619  1.2360 -1.0302  0.7129
 5176TIP3   OH236942   4.638   5.329   3.478 -0.3452 -0.2721 -0.3449
 5176TIP3    H136943   4.630   5.267   3.405 -0.7234 -0.3655 -0.2247
 5176TIP3    H236944   4.549   5.341   3.509 -0.2048 -0.0970 -0.0072
 5177TIP3   OH236945   1.323   0.338  12.526 -0.3384  0.7601 -0.4344
 5177TIP3    H136946   1.279   0.266  12.572  0.5414 -0.0207 -0.7816
 5177TIP3    H236947   1.255   0.375  12.470 -0.5697 -0.4603 -0.9935
 5178TIP3   OH236948   3.050   0.679  12.634  0.1834 -0.0202 -0.4136
 5178TIP3    H136949   3.027   0.746  12.699  0.8980  0.4012 -0.5913
 5178TIP3    H236950   2.968   0.633  12.619  0.0457 -0.2604  0.9458
 5179TIP3   OH236951   0.819   2.405  14.445 -0.2309 -0.0552  0.1997
 5179TIP3    H136952   0.763   2.350  14.390 -2.1479  1.6223  0.4472
 5179TIP3    H236953   0.907   2.392  14.409 -0.6343 -3.2034  0.1998
 5180TIP3   OH236954   4.695   2.032  16.087  0.2169 -0.3001  0.1764
 5180TIP3    H136955   4.638   2.023  16.011 -0.1577 -1.8995  0.6316
 5180TIP3    H236956   4.755   1.958  16.082 -0.5678 -1.1178  2.0430
 5181TIP3   OH236957   6.004   5.582   5.200  0.2095 -0.7878  0.6315
 5181TIP3    H136958   6.039   5.526   5.270 -0.2828 -0.2833  1.2915
 5181TIP3    H236959   6.081   5.619   5.158  0.5039 -0.8469  1.1110
 5182TIP3   OH236960   1.926   4.400   0.245 -0.1705 -0.4158  0.6947
 5182TIP3    H136961   1.951   4.379   0.155  1.7628 -1.6223  1.4877
 5182TIP3    H236962   1.853   4.341   0.264  0.5758 -1.4184  0.5035
 5183TIP3   OH236963   3.168   0.845  16.562  0.1411 -0.1646 -0.6053
 5183TIP3    H136964   3.156   0.825  16.469 -2.0755 -0.1088 -0.3528
 5183TIP3    H236965   3.147   0.764  16.607  1.1767 -0.1793 -0.1228
 5184TIP3   OH236966   5.963   0.958  16.379  0.0379  0.2211  0.8867
 5184TIP3    H136967   5.875   0.992  16.394 -0.6257 -1.4406  0.8131
 5184TIP3    H236968   6.008   0.970  16.463 -0.4255  0.5461  1.0892
 5185TIP3   OH236969   2.587   1.788   1.731 -0.3105 -0.3076  0.7214
 5185TIP3    H136970   2.568   1.741   1.813  0.0599 -1.8318 -0.0564
 5185TIP3    H236971   2.518   1.760   1.671  0.5026 -0.6594 -0.0611
 5186TIP3   OH236972   1.420   2.246   1.210  0.4855  0.8602 -0.1628
 5186TIP3    H136973   1.338   2.291   1.229 -0.6060 -1.4251  0.6704
 5186TIP3    H236974   1.394   2.166   1.164  2.2836  0.4088 -0.4639
 5187TIP3   OH236975   5.443   2.971   1.229  0.0190  0.4283  0.3756
 5187TIP3    H136976   5.534   2.982   1.257 -1.1667 -0.5626  5.0167
 5187TIP3    H236977   5.434   2.878   1.212  0.5437  0.9268 -2.9747
 5188TIP3   OH236978   4.603   5.635  12.665  0.1986  0.6114 -0.1393
 5188TIP3    H136979   4.681   5.651  12.717 -0.8113  1.9616  0.9971
 5188TIP3    H236980   4.534   5.684  12.709 -1.3473 -0.7486 -0.9910
 5189TIP3   OH236981   2.100   2.996   6.143 -0.5724  0.1561  0.6381
 5189TIP3    H136982   2.171   3.059   6.161  0.9556 -1.1659 -0.6564
 5189TIP3    H236983   2.132   2.913   6.178 -1.9099 -0.2619  0.9087
 5190TIP3   OH236984   4.161   2.985  13.546  0.5019  0.2983 -0.3102
 5190TIP3    H136985   4.168   3.077  13.574  0.9796  0.5987 -1.3511
 5190TIP3    H236986   4.236   2.974  13.487  2.2441 -1.6518  2.1536
 5191TIP3   OH236987   0.969   3.176   1.151  0.0039  0.4701 -0.0318
 5191TIP3    H136988   0.994   3.260   1.113  0.5059  0.2013 -0.3051
 5191TIP3    H236989   1.053   3.131   1.166 -0.3380 -0.6940 -1.5458
 5192TIP3   OH236990   0.360   0.412   0.039  0.0474  0.0236 -0.0299
 5192TIP3    H136991   0.397   0.500   0.043 -0.1062  0.0758  0.2830
 5192TIP3    H236992   0.279   0.422  -0.011 -0.9062  0.4001  1.5271
 5193TIP3   OH236993   0.869   2.517   4.712  0.1861  0.1286  0.4532
 5193TIP3    H136994   0.946   2.561   4.676  0.6787 -0.9738  0.1373
 5193TIP3    H236995   0.803   2.586   4.718  0.3427  0.5274 -1.8213
 5194TIP3   OH236996   3.986   3.995  11.278  0.5036 -1.2503 -0.1511
 5194TIP3    H136997   3.954   4.043  11.201  1.1096  0.9403  0.9281
 5194TIP3    H236998   3.971   3.903  11.256 -1.2881 -0.5644 -2.0200
 5195TIP3   OH236999   6.093   1.403  11.667 -0.3326 -0.3927  0.4890
 5195TIP3    H137000   6.163   1.380  11.607  0.1928 -0.8999  1.2908
 5195TIP3    H237001   6.024   1.338  11.649 -0.3734 -0.2398  0.0930
 5196TIP3   OH237002   1.598   5.529   4.603 -1.1865 -0.7766  0.5709
 5196TIP3    H137003   1.590   5.436   4.625 -0.0366 -0.9252  0.4258
 5196TIP3    H237004   1.654   5.530   4.525  0.3245  0.1350  1.6354
 5197TIP3   OH237005   0.756   1.156  11.910  0.1029 -0.3389  0.2012
 5197TIP3    H137006   0.712   1.129  11.991 -0.3436  1.7439  0.6813
 5197TIP3    H237007   0.843   1.117  11.917 -0.5683 -1.7722  0.7837
 5198TIP3   OH237008   6.585   5.222   2.141  0.3590  0.2847  0.0390
 5198TIP3    H137009   6.534   5.182   2.212 -0.1552  0.3013 -0.3181
 5198TIP3    H237010   6.526   5.286   2.102  0.1323 -0.7190 -1.3230
 5199TIP3   OH237011   0.122   1.033   0.543 -0.2414  0.3461  0.1097
 5199TIP3    H137012   0.100   0.954   0.494 -0.1584  0.6651 -0.4518
 5199TIP3    H237013   0.169   1.088   0.480  1.4153  0.0226  1.0569
 5200TIP3   OH237014   6.724   6.100  15.855  0.0428 -0.3102 -0.0408
 5200TIP3    H137015   6.744   6.192  15.873 -0.7069  0.0540 -1.0452
 5200TIP3    H237016   6.726   6.058  15.941  1.2645  0.4650  0.3252
 5201TIP3   OH237017   2.012   4.397   5.363  0.3596  0.2009  0.3699
 5201TIP3    H137018   2.058   4.356   5.289 -0.5289 -2.0412  1.0385
 5201TIP3    H237019   2.077   4.399   5.433  1.0355  1.8479 -0.2549
 5202TIP3   OH237020   2.445   5.143   2.146 -0.1258  0.6258  0.4330
 5202TIP3    H137021   2.473   5.137   2.055  0.8795  0.4602  0.7465
 5202TIP3    H237022   2.363   5.094   2.149 -0.7762  1.6327 -0.6239
 5203TIP3   OH237023   0.554   4.449   1.392 -0.7891  0.1848  0.8397
 5203TIP3    H137024   0.504   4.388   1.445 -2.5537 -1.4794 -2.5329
 5203TIP3    H237025   0.495   4.524   1.380 -0.3350  0.6261  1.3308
 5204TIP3   OH237026   6.700   4.715   0.730  0.0521 -0.3854  0.8909
 5204TIP3    H137027   6.769   4.656   0.761  1.2639  0.0958 -0.7934
 5204TIP3    H237028   6.641   4.660   0.679  1.1948 -0.1714 -0.6987
 5205TIP3   OH237029   3.806   5.849   4.273 -0.1807  0.1501 -0.1724
 5205TIP3    H137030   3.833   5.918   4.333 -0.7764  0.2614 -0.0319
 5205TIP3    H237031   3.871   5.851   4.203  0.4557  0.0818  0.4203
 5206TIP3   OH237032   0.035   3.421   4.933 -0.2692  0.4919 -0.0927
 5206TIP3    H137033   0.110   3.480   4.939 -1.1942  1.6094  0.8058
 5206TIP3    H237034  -0.029   3.457   4.995 -0.0612 -2.6549  2.0412
 5207TIP3   OH237035   1.084   1.414  14.741  0.0170  0.1618  0.3288
 5207TIP3    H137036   1.137   1.493  14.727  1.0159 -0.8808 -2.0311
 5207TIP3    H237037   0.996   1.446  14.760  0.8539  1.8691  1.4384
 5208TIP3   OH237038   0.363   4.554  13.414  0.3909 -0.2702 -0.5256
 5208TIP3    H137039   0.410   4.512  13.486  0.5839 -0.0426 -0.5153
 5208TIP3    H237040   0.326   4.633  13.454 -0.4491 -0.7200 -0.4049
 5209TIP3   OH237041   6.461   6.487   3.643  0.1140 -0.3724 -0.7336
 5209TIP3    H137042   6.512   6.515   3.719  0.8831 -0.3031 -1.2691
 5209TIP3    H237043   6.391   6.553   3.636  1.4077  0.9653 -1.4728
 5210TIP3   OH237044   2.176   0.512   2.952  0.5013  0.1399  0.4491
 5210TIP3    H137045   2.191   0.474   3.039  0.3815 -1.7006 -0.2986
 5210TIP3    H237046   2.097   0.469   2.920  1.8711 -1.0257 -1.5310
 5211TIP3   OH237047   6.409   2.778   6.272 -0.7423 -0.7125  0.1668
 5211TIP3    H137048   6.400   2.845   6.339 -0.7938  1.4131 -1.8917
 5211TIP3    H237049   6.366   2.701   6.308  0.6336 -0.1054  3.2005
 5212TIP3   OH237050   2.631   6.031   2.368  0.0955 -0.1825  0.2223
 5212TIP3    H137051   2.604   6.007   2.279 -0.6676  0.8026  0.1838
 5212TIP3    H237052   2.630   5.948   2.416  1.8826 -0.9659 -1.0181
 5213TIP3   OH237053   2.563   1.751   0.457  0.4089 -0.4685 -0.3498
 5213TIP3    H137054   2.482   1.798   0.476  0.2753 -0.5232 -0.7943
 5213TIP3    H237055   2.581   1.769   0.365  0.2528 -1.4509 -0.5737
 5214TIP3   OH237056   1.474   0.782   1.599 -0.2856  0.0724 -0.0829
 5214TIP3    H137057   1.391   0.816   1.632  0.6448  1.2385  1.1038
 5214TIP3    H237058   1.516   0.742   1.676  0.7145  0.4268 -0.4361
 5215TIP3   OH237059   0.090   4.459  13.524 -0.1384  0.0952 -0.1861
 5215TIP3    H137060   0.088   4.486  13.615 -0.1536  0.5850 -0.3310
 5215TIP3    H237061   0.162   4.510  13.486 -0.1008 -0.1435 -0.4381
 5216TIP3   OH237062   0.149   0.958  16.697 -0.3367  0.1971 -0.0547
 5216TIP3    H137063   0.150   0.959  16.601 -0.7331 -1.6520 -0.0985
 5216TIP3    H237064   0.144   1.050  16.722  1.0006  0.7687 -1.8011
 5217TIP3   OH237065   5.714   5.193   1.161  0.0788  0.1259  0.6375
 5217TIP3    H137066   5.720   5.172   1.068  1.4240  1.9098  0.2966
 5217TIP3    H237067   5.673   5.116   1.200  1.4206 -1.5358 -1.1125
 5218TIP3   OH237068   1.580   5.787  10.817 -0.1474 -0.0510 -0.1220
 5218TIP3    H137069   1.571   5.882  10.822 -1.6859 -0.2165  0.8663
 5218TIP3    H237070   1.503   5.758  10.768 -0.4270 -0.8852  0.7921
 5219TIP3   OH237071   1.180   6.620  11.935 -0.1305 -0.2936 -0.2912
 5219TIP3    H137072   1.173   6.588  11.845  2.1607  0.5343 -0.8033
 5219TIP3    H237073   1.201   6.713  11.926 -1.4126  0.1474  1.1304
 5220TIP3   OH237074   3.495   5.626  13.120 -0.2567  0.0165 -0.0300
 5220TIP3    H137075   3.509   5.709  13.075  0.0131  0.3656  0.6818
 5220TIP3    H237076   3.401   5.610  13.112 -0.1143 -0.2171 -1.2093
 5221TIP3   OH237077   6.726   1.184   1.090  0.0347 -0.8850  0.2417
 5221TIP3    H137078   6.792   1.214   1.028 -1.6212  0.1908 -1.0532
 5221TIP3    H237079   6.652   1.156   1.035 -0.7862 -1.5721  1.6591
 5222TIP3   OH237080   2.844   4.213  15.753  0.0455  0.4283 -0.4132
 5222TIP3    H137081   2.809   4.159  15.825  0.9732 -1.3061 -1.2276
 5222TIP3    H237082   2.931   4.238  15.783 -0.2358  1.1691 -0.2040
 5223TIP3   OH237083   0.985   6.593   5.510  0.0253 -0.3783  0.1969
 5223TIP3    H137084   1.065   6.582   5.459  0.5091 -0.8719  1.0420
 5223TIP3    H237085   0.985   6.519   5.571 -1.7055 -1.0538 -0.6050
 5224TIP3   OH237086   3.297   5.090   2.699 -0.1692  0.2472 -0.1649
 5224TIP3    H137087   3.261   5.026   2.759  0.8478  0.2206  0.4308
 5224TIP3    H237088   3.224   5.151   2.682 -1.1344 -1.0641 -0.7573
 5225TIP3   OH237089   3.834   4.227  14.609 -0.1271 -0.6069  0.5744
 5225TIP3    H137090   3.761   4.177  14.573  0.2963 -0.9138  0.1446
 5225TIP3    H237091   3.903   4.219  14.544 -0.2010  0.9095  0.2975
 5226TIP3   OH237092   2.760   6.764  11.425  0.2209  0.4354  0.0605
 5226TIP3    H137093   2.705   6.830  11.384  1.6341  2.0746  0.7850
 5226TIP3    H237094   2.698   6.699  11.459 -1.1276  0.9132 -1.3939
 5227TIP3   OH237095   3.215   0.232  16.205  0.3443 -0.4627  0.6540
 5227TIP3    H137096   3.283   0.212  16.270 -1.3547 -3.3654  1.6102
 5227TIP3    H237097   3.228   0.168  16.136 -1.4810 -1.1191  0.8952
 5228TIP3   OH237098   4.068   1.523  15.373  0.3074  0.5477 -0.0194
 5228TIP3    H137099   4.038   1.542  15.284  0.0767 -0.5867 -0.1935
 5228TIP3    H237100   4.008   1.571  15.429 -1.5039 -1.2285 -0.3843
 5229TIP3   OH237101   5.263   5.285  14.538 -0.3446 -0.8847  0.2251
 5229TIP3    H137102   5.189   5.334  14.504  1.2279  1.1115 -0.4387
 5229TIP3    H237103   5.314   5.260  14.461  1.5735  0.9500  0.8324
 5230TIP3   OH237104   3.244   6.724  11.061 -0.0037  0.9949  0.0525
 5230TIP3    H137105   3.165   6.700  11.109  0.0162 -1.7722 -1.2056
 5230TIP3    H237106   3.214   6.741  10.972  0.8479 -0.6460 -0.5739
 5231TIP3   OH237107   2.180   5.286   2.292 -0.0515  0.4168 -0.1373
 5231TIP3    H137108   2.218   5.261   2.376 -0.2164  1.2264  0.1782
 5231TIP3    H237109   2.218   5.372   2.273  1.2941 -0.4924 -1.7014
 5232TIP3   OH237110   1.673   3.557   1.111 -0.1478  0.0440  0.2815
 5232TIP3    H137111   1.687   3.643   1.151  0.0606 -0.3506  1.0809
 5232TIP3    H237112   1.583   3.534   1.134  0.2205 -0.5275  1.2269
 5233TIP3   OH237113   0.715   0.645   4.964  0.5696 -0.1056  0.1127
 5233TIP3    H137114   0.655   0.675   5.032  2.9853  3.2262  0.9278
 5233TIP3    H237115   0.658   0.628   4.888 -1.4101  4.1149  0.4514
 5234TIP3   OH237116   5.964   0.833   4.251  0.3023  0.1286  0.1576
 5234TIP3    H137117   6.034   0.803   4.193 -0.7480 -1.4760 -0.2809
 5234TIP3    H237118   5.927   0.909   4.207 -1.3701 -1.8440 -1.9825
 5235TIP3   OH237119   0.891   4.562  13.351 -0.1853 -0.1737  0.3642
 5235TIP3    H137120   0.818   4.617  13.321  0.1516 -0.2303 -0.5661
 5235TIP3    H237121   0.965   4.623  13.357 -0.0851 -0.3023  0.4203
 5236TIP3   OH237122   2.234   3.323  12.959 -0.0574  0.4220  0.2606
 5236TIP3    H137123   2.304   3.259  12.964  0.2338  0.6827 -0.4670
 5236TIP3    H237124   2.188   3.302  12.878 -0.4741  0.6044  0.4459
 5237TIP3   OH237125   4.024   1.351   3.320  0.3108 -0.6374  0.2538
 5237TIP3    H137126   3.993   1.403   3.394 -0.3515 -1.1276  0.3190
 5237TIP3    H237127   4.044   1.416   3.252  1.9998 -0.1026  1.2335
 5238TIP3   OH237128   6.702   6.370  13.206 -0.1619  0.1358 -0.2825
 5238TIP3    H137129   6.699   6.395  13.114 -0.6452  1.9651  0.1997
 5238TIP3    H237130   6.621   6.407  13.243 -0.4580 -1.4152  0.6797
 5239TIP3   OH237131   1.979   1.948   5.255  0.4475  0.2600  0.0115
 5239TIP3    H137132   1.952   2.004   5.182  0.5199  1.0517  0.5842
 5239TIP3    H237133   1.946   1.993   5.333  0.3901 -0.5721  0.4695
 5240TIP3   OH237134   0.536   6.561   4.752  0.2692 -0.2437 -0.0223
 5240TIP3    H137135   0.464   6.504   4.781  0.6334 -0.9766 -0.5438
 5240TIP3    H237136   0.582   6.509   4.686  0.7501  0.5687 -0.3279
 5241TIP3   OH237137   1.411   3.460   1.152  0.5885  0.3593  0.0780
 5241TIP3    H137138   1.356   3.534   1.180 -0.9904 -0.2168 -1.4542
 5241TIP3    H237139   1.365   3.383   1.185 -0.3301 -0.2188 -2.4632
 5242TIP3   OH237140   4.477   3.740  15.511 -0.8465  0.1023  0.1694
 5242TIP3    H137141   4.455   3.699  15.595 -0.3072 -1.2014 -0.3115
 5242TIP3    H237142   4.451   3.676  15.445 -3.0802  1.9493 -0.7739
 5243TIP3   OH237143   6.059   3.952  14.053 -0.0844  0.5755  0.4859
 5243TIP3    H137144   6.091   3.980  14.139 -0.0851 -1.1586  1.0809
 5243TIP3    H237145   6.138   3.929  14.004 -0.2027 -0.8873  0.9372
 5244TIP3   OH237146   3.130   1.483  11.117  0.2460  0.4811 -0.2353
 5244TIP3    H137147   3.205   1.539  11.098  0.9686 -0.3517  0.1507
 5244TIP3    H237148   3.079   1.484  11.036 -0.4854  2.8048  0.2105
 5245TIP3   OH237149   1.681   5.204  16.404 -0.1773 -0.1037  0.0280
 5245TIP3    H137150   1.710   5.185  16.493  0.4678  1.2800  0.1274
 5245TIP3    H237151   1.596   5.247  16.415 -0.0983  0.0657 -0.0076
 5246TIP3   OH237152   5.211   5.665   2.951  0.2097  0.5536  0.6322
 5246TIP3    H137153   5.301   5.655   2.981 -0.4012  0.4093  2.4502
 5246TIP3    H237154   5.158   5.656   3.030 -1.3631  1.3805 -0.3052
 5247TIP3   OH237155   2.106   1.741   0.593  0.2764  0.1336 -0.4512
 5247TIP3    H137156   2.108   1.837   0.596 -0.7072  0.1644 -0.6249
 5247TIP3    H237157   2.160   1.718   0.517 -0.3924  0.5993 -1.0758
 5248TIP3   OH237158   5.908   2.570  14.869 -0.0717  0.8014 -0.2012
 5248TIP3    H137159   5.898   2.635  14.938 -0.7584 -0.1358  0.5906
 5248TIP3    H237160   5.988   2.523  14.892 -0.8980 -0.2377  0.5655
 5249TIP3   OH237161   6.446   2.052   0.240  0.2117 -0.3091  0.0211
 5249TIP3    H137162   6.542   2.046   0.234  0.2840  1.0251 -0.3508
 5249TIP3    H237163   6.421   2.102   0.162 -0.8235 -0.9732 -0.0701
 5250TIP3   OH237164   0.077   3.398  10.226 -0.1112 -0.5136 -0.4156
 5250TIP3    H137165   0.101   3.313  10.262 -0.5369 -0.7823 -0.7616
 5250TIP3    H237166   0.120   3.461  10.283 -0.2458 -0.9508  0.1730
 5251TIP3   OH237167   2.852   0.271   1.114 -0.1356 -0.1348  0.1571
 5251TIP3    H137168   2.831   0.241   1.202 -0.1809 -1.3601 -0.2496
 5251TIP3    H237169   2.880   0.191   1.068 -1.8577  0.1431 -1.4526
 5252TIP3   OH237170   5.579   0.995   3.073 -0.1125  0.6728  0.9684
 5252TIP3    H137171   5.625   1.057   3.129  1.1623  0.2301  0.4484
 5252TIP3    H237172   5.523   0.945   3.133 -0.7274  1.9439  1.4592
 5253TIP3   OH237173   0.468   4.285   4.322  0.0268  0.0801 -0.5034
 5253TIP3    H137174   0.510   4.204   4.351  1.3169  0.1934 -2.0284
 5253TIP3    H237175   0.502   4.352   4.382 -0.9412 -0.4524  0.6756
 5254TIP3   OH237176   0.875   3.788  13.162  0.0416  0.3116  0.6126
 5254TIP3    H137177   0.824   3.728  13.217  0.6800 -0.4678  0.3721
 5254TIP3    H237178   0.870   3.872  13.208 -2.4855  0.5708 -0.0600
 5255TIP3   OH237179   3.019   1.759  13.930  0.2018  0.0509 -0.0019
 5255TIP3    H137180   2.935   1.796  13.958  0.5072  1.5959 -1.0000
 5255TIP3    H237181   3.049   1.707  14.004  0.3843  2.9605  2.0610
 5256TIP3   OH237182   2.108   2.794  12.159  0.2519  0.2421  0.4323
 5256TIP3    H137183   2.139   2.742  12.084 -1.7384  0.2562 -0.4362
 5256TIP3    H237184   2.142   2.882  12.143  1.8375 -0.2799  0.8006
 5257TIP3   OH237185   0.905   6.456  10.912 -0.2712 -0.6328  0.2512
 5257TIP3    H137186   0.849   6.382  10.888 -0.8288 -0.0280 -0.3296
 5257TIP3    H237187   0.856   6.533  10.886  1.4765 -0.1346 -1.7347
 5258TIP3   OH237188   3.569   0.772  13.262 -0.4385  0.4255  0.6476
 5258TIP3    H137189   3.479   0.794  13.282 -0.8067 -0.1913 -0.3016
 5258TIP3    H237190   3.620   0.811  13.333 -1.5141  0.0591  1.6228
 5259TIP3   OH237191   1.498   5.786  13.571 -0.1799 -0.3790 -0.2637
 5259TIP3    H137192   1.526   5.828  13.652  0.3355  0.3087 -0.7903
 5259TIP3    H237193   1.498   5.856  13.506 -0.6057 -0.9176 -0.8593
 5260TIP3   OH237194   4.610   2.126  13.651 -0.2047  0.2972  0.5325
 5260TIP3    H137195   4.649   2.128  13.564 -0.9349  0.9655  0.2178
 5260TIP3    H237196   4.669   2.178  13.705 -1.1707  2.1799 -0.1665
 5261TIP3   OH237197   5.935   5.981  14.431  0.0991 -0.4289  0.2873
 5261TIP3    H137198   5.899   5.892  14.433  0.8256 -0.7172  1.1148
 5261TIP3    H237199   5.898   6.022  14.510 -0.0257 -0.0821  0.0457
 5262TIP3   OH237200   1.201   4.120   1.210 -0.1921  0.1252 -0.3297
 5262TIP3    H137201   1.161   4.055   1.268 -0.2066  0.3482 -0.0881
 5262TIP3    H237202   1.140   4.194   1.212  0.1346  0.3905 -0.1176
 5263TIP3   OH237203   6.081   1.171   6.435  0.3331 -0.1291 -0.0539
 5263TIP3    H137204   6.118   1.087   6.459  0.1113 -0.4553 -0.8397
 5263TIP3    H237205   6.070   1.217   6.518  1.1821 -0.5693  0.3033
 5264TIP3   OH237206   4.247   0.086  14.487  0.5777 -0.1369  0.0750
 5264TIP3    H137207   4.197   0.023  14.538  1.6585 -0.9970  0.0848
 5264TIP3    H237208   4.192   0.164  14.485 -1.3600 -1.4882 -1.0330
 5265TIP3   OH237209   0.317   0.089   2.386  0.0840  0.3625 -0.3283
 5265TIP3    H137210   0.395   0.088   2.440  0.0720  0.0264 -0.3201
 5265TIP3    H237211   0.254   0.141   2.436  0.3830  0.8464 -0.4519
 5266TIP3   OH237212   6.057   2.999  10.991  0.0591  0.9053  0.3967
 5266TIP3    H137213   6.009   3.011  10.909  0.0784  0.5154  0.3275
 5266TIP3    H237214   6.149   3.012  10.967  0.2671 -1.3238 -0.0758
 5267TIP3   OH237215   5.827   6.741  11.719 -0.2125  0.1448  0.6048
 5267TIP3    H137216   5.852   6.648  11.725 -0.4741  0.2200  2.9976
 5267TIP3    H237217   5.746   6.748  11.770 -1.0279  1.4151 -0.8210
 5268TIP3   OH237218   1.883   3.948  12.600  0.3649  0.0326 -0.2927
 5268TIP3    H137219   1.882   4.017  12.534  0.4688  0.8662  0.5626
 5268TIP3    H237220   1.917   3.991  12.679  0.3993 -0.9880  0.2551
 5269TIP3   OH237221   2.486   6.087  16.491 -0.2904 -0.5399  0.2409
 5269TIP3    H137222   2.569   6.040  16.497  1.2292  1.9957 -0.1167
 5269TIP3    H237223   2.445   6.052  16.412  0.3683 -1.9303  0.5015
 5270TIP3   OH237224   4.155   0.369  13.074  0.5625 -0.2307 -0.1544
 5270TIP3    H137225   4.108   0.449  13.049  0.3414 -0.7646 -1.4714
 5270TIP3    H237226   4.174   0.325  12.992 -1.9124 -3.0078  0.6402
 5271TIP3   OH237227   0.358   4.899  13.191 -0.6707  0.7035  0.1529
 5271TIP3    H137228   0.297   4.826  13.194  0.4408 -0.2349  0.1931
 5271TIP3    H237229   0.341   4.947  13.273 -0.5259 -0.2305  0.7423
 5272TIP3   OH237230   6.126   5.249  14.196  1.0484 -0.0282 -0.3777
 5272TIP3    H137231   6.143   5.176  14.136  0.9889 -0.6083  0.3041
 5272TIP3    H237232   6.031   5.256  14.200  1.0310 -0.5970  0.3656
 5273TIP3   OH237233   1.223   3.385  12.406 -0.0747  0.0687  0.4811
 5273TIP3    H137234   1.268   3.467  12.425  1.9864 -0.8414 -0.2758
 5273TIP3    H237235   1.134   3.399  12.437  0.5454  2.1650  1.4504
 5274TIP3   OH237236   3.674   5.694   3.616 -0.0541  0.5880 -0.0916
 5274TIP3    H137237   3.655   5.780   3.578  1.0180  1.5435  1.4455
 5274TIP3    H237238   3.769   5.687   3.613  0.0587  0.6463  2.2175
 5275TIP3   OH237239   1.801   0.381   0.665 -0.1342  0.6381  0.5143
 5275TIP3    H137240   1.834   0.421   0.584  1.7392 -0.8776  0.4985
 5275TIP3    H237241   1.706   0.373   0.651 -0.0332  1.7623 -0.9149
 5276TIP3   OH237242   5.003   2.180   5.715 -0.8188 -0.1767 -0.0036
 5276TIP3    H137243   4.967   2.093   5.697 -2.5356  0.7209 -1.1054
 5276TIP3    H237244   4.941   2.219   5.777 -0.7287  0.6892 -0.4477
 5277TIP3   OH237245   3.921   0.683  12.564  0.7251  0.3994  0.1673
 5277TIP3    H137246   3.869   0.606  12.543  1.7161 -0.4048  0.6029
 5277TIP3    H237247   3.857   0.751  12.585 -0.1687 -0.1489 -0.7265
 5278TIP3   OH237248   0.919   5.037  15.333  0.0029  0.3996 -0.4799
 5278TIP3    H137249   1.011   5.059  15.348 -0.3254  1.4734  0.0593
 5278TIP3    H237250   0.878   5.045  15.419 -0.7780  0.8820 -0.8894
 5279TIP3   OH237251   5.927   0.127  11.897  0.2340 -1.0477 -0.2013
 5279TIP3    H137252   5.877   0.208  11.910 -0.2685 -0.9603 -2.4625
 5279TIP3    H237253   5.880   0.081  11.827  2.2335 -1.8546 -1.0406
 5280TIP3   OH237254   6.269   1.419   0.101  0.4211 -0.1622 -0.2993
 5280TIP3    H137255   6.347   1.408   0.046  0.5508  0.0177 -0.1511
 5280TIP3    H237256   6.249   1.330   0.131  1.9947  0.0906  1.6145
 5281TIP3   OH237257   5.648   2.284   4.771 -0.1848  0.6108 -0.4598
 5281TIP3    H137258   5.629   2.309   4.681 -2.0952 -0.1050 -0.2887
 5281TIP3    H237259   5.584   2.215   4.791  0.6148  0.3204  1.2331
 5282TIP3   OH237260   5.053   0.474  15.473 -0.3905  0.3667 -0.1217
 5282TIP3    H137261   5.081   0.533  15.403 -1.0290  0.0841 -0.6160
 5282TIP3    H237262   5.127   0.416  15.487 -0.8840 -0.7038 -1.7736
 5283TIP3   OH237263   2.453   1.153  13.465  0.3118  0.0283 -0.4207
 5283TIP3    H137264   2.457   1.073  13.412  0.2024 -0.9111  0.9759
 5283TIP3    H237265   2.377   1.201  13.431  0.0656 -0.7027 -0.9094
 5284TIP3   OH237266   0.090   5.962  11.350  0.0834 -0.7890  0.8983
 5284TIP3    H137267   0.001   5.961  11.386 -0.0892 -0.2898  0.5040
 5284TIP3    H237268   0.091   5.889  11.288 -0.8368  0.6513 -0.8946
 5285TIP3   OH237269   4.271   5.339  11.112 -0.5301 -0.4584 -0.0705
 5285TIP3    H137270   4.228   5.297  11.186  0.6811 -0.3706  0.6942
 5285TIP3    H237271   4.356   5.295  11.105 -0.1626  0.3353 -0.6784
 5286TIP3   OH237272   2.656   0.953   1.590  0.3098  0.4704  0.5967
 5286TIP3    H137273   2.694   0.867   1.604  0.9231  0.7187  0.4531
 5286TIP3    H237274   2.603   0.944   1.511  1.3101  0.5356 -0.0796
 5287TIP3   OH237275   6.503   1.141   3.702 -0.3164 -0.8621  0.6441
 5287TIP3    H137276   6.558   1.159   3.626 -0.2454 -0.6003  0.7570
 5287TIP3    H237277   6.550   1.074   3.751 -1.2872 -2.4300 -0.5423
 5288TIP3   OH237278   0.172   3.096   3.678  0.2404  0.3387 -0.2719
 5288TIP3    H137279   0.096   3.077   3.733  0.3598 -1.1798 -0.5910
 5288TIP3    H237280   0.242   3.117   3.740 -0.8041  3.2793 -0.0281
 5289TIP3   OH237281   2.283   1.864  13.891 -0.1905  0.4997 -0.6558
 5289TIP3    H137282   2.289   1.769  13.877  0.2178  0.6373 -1.4640
 5289TIP3    H237283   2.191   1.885  13.875 -0.2417  0.2683 -0.6755
 5290TIP3   OH237284   6.746   1.180  13.094  0.2990  0.5961 -0.4014
 5290TIP3    H137285   6.832   1.148  13.065  0.9516  0.8928  1.1797
 5290TIP3    H237286   6.734   1.262  13.046 -0.3868 -0.8641 -2.7857
 5291TIP3   OH237287   2.837   5.415  15.302  0.3778  0.2081  0.2614
 5291TIP3    H137288   2.886   5.435  15.381 -0.2017 -0.8201  0.8883
 5291TIP3    H237289   2.746   5.406  15.331 -0.0458  1.1050 -0.7220
 5292TIP3   OH237290   1.823   5.061  14.753 -0.5642  0.2837  0.4260
 5292TIP3    H137291   1.878   5.109  14.815  1.1541  1.2454 -1.7886
 5292TIP3    H237292   1.750   5.121  14.735  1.5931  2.1880 -2.3623
 5293TIP3   OH237293   5.854   0.791  14.845 -0.3741 -0.2211 -0.2920
 5293TIP3    H137294   5.764   0.770  14.872 -0.3598 -0.2448 -0.2615
 5293TIP3    H237295   5.864   0.750  14.759  0.1277 -1.5649  0.3930
 5294TIP3   OH237296   0.633   2.508   4.516 -0.8630  0.3707  0.1700
 5294TIP3    H137297   0.643   2.574   4.585  0.6184  0.0721  0.2597
 5294TIP3    H237298   0.555   2.458   4.541 -1.2709  1.2866  0.7635
 5295TIP3   OH237299   4.700   4.737  12.067 -0.1319  0.0819 -0.2497
 5295TIP3    H137300   4.726   4.726  11.975 -0.1145 -0.0299 -0.2306
 5295TIP3    H237301   4.665   4.652  12.093 -0.7995  0.3231 -0.3616
 5296TIP3   OH237302   3.520   4.288  13.506 -0.2552  0.4166 -0.1849
 5296TIP3    H137303   3.426   4.304  13.519  0.0008  1.5393  0.4165
 5296TIP3    H237304   3.560   4.375  13.515  0.8442 -0.0589 -0.4017
 5297TIP3   OH237305   6.739   3.755   1.391  0.5622 -0.0985  0.5597
 5297TIP3    H137306   6.673   3.772   1.324  1.6982  1.9021 -0.0837
 5297TIP3    H237307   6.820   3.741   1.342  1.6618  2.6104  1.5005
 5298TIP3   OH237308   4.633   2.628   5.383 -0.3393  0.6015 -0.0448
 5298TIP3    H137309   4.625   2.714   5.423 -1.5278  1.1839 -1.5106
 5298TIP3    H237310   4.551   2.616   5.335  0.2453 -0.9184 -0.6875
 5299TIP3   OH237311   3.015   2.587  15.939 -0.6849  0.0089  0.0714
 5299TIP3    H137312   3.085   2.607  16.002 -0.3230  1.2129 -0.6970
 5299TIP3    H237313   2.966   2.517  15.980 -0.1373  0.4237  1.4774
 5300TIP3   OH237314   0.943   4.116  12.351  0.0238  0.0828 -0.3598
 5300TIP3    H137315   0.900   4.138  12.269  0.6942  1.0686 -0.4522
 5300TIP3    H237316   0.940   4.021  12.355  1.5438 -0.0919 -2.3829
 5301TIP3   OH237317   0.146   6.094  15.408  0.5750 -0.5621  0.3627
 5301TIP3    H137318   0.103   6.166  15.361 -0.0742 -1.5855 -0.6183
 5301TIP3    H237319   0.239   6.116  15.403  0.7080 -1.5318 -2.9950
 5302TIP3   OH237320   2.414   3.092  11.093 -0.8236 -0.1722  0.1003
 5302TIP3    H137321   2.332   3.045  11.109  0.0228 -1.6340  0.2123
 5302TIP3    H237322   2.419   3.099  10.997 -1.4005  0.5055  0.1167
 5303TIP3   OH237323   3.493   2.787   1.820  0.0633 -0.7341  0.7901
 5303TIP3    H137324   3.527   2.825   1.740  0.2681 -0.9838  0.7592
 5303TIP3    H237325   3.518   2.695   1.816 -0.0188 -0.7709  1.0878
 5304TIP3   OH237326   4.386   0.717   0.863  0.1191  0.0436  0.3189
 5304TIP3    H137327   4.480   0.734   0.868  0.2266 -0.6935  0.9770
 5304TIP3    H237328   4.362   0.743   0.774  1.1046 -0.5226 -0.1335
 5305TIP3   OH237329   1.331   3.212  14.910 -0.0411  0.0568  0.0294
 5305TIP3    H137330   1.420   3.208  14.945 -0.7958  0.2870  2.0431
 5305TIP3    H237331   1.331   3.290  14.854  0.6327  0.8779  1.1554
 5306TIP3   OH237332   2.973   6.699  14.824 -0.4631 -0.2120  0.5047
 5306TIP3    H137333   2.964   6.714  14.918  0.6227 -0.5269  0.6617
 5306TIP3    H237334   2.938   6.611  14.810  0.1581 -0.5013  0.7504
 5307TIP3   OH237335   4.710   0.367   6.180  0.4766 -0.6113 -0.4430
 5307TIP3    H137336   4.761   0.292   6.211  0.0256 -0.0643  1.7385
 5307TIP3    H237337   4.669   0.402   6.259 -1.7084  0.1472 -1.8571
 5308TIP3   OH237338   0.488   2.324   0.454 -0.1858  0.3682  0.2750
 5308TIP3    H137339   0.433   2.316   0.532  1.1540 -1.2506  1.0680
 5308TIP3    H237340   0.474   2.243   0.406 -0.0092  0.8121 -0.5387
 5309TIP3   OH237341   4.934   1.337  11.740 -0.5193  0.1020  0.2661
 5309TIP3    H137342   4.848   1.301  11.763 -0.8560  0.0965 -0.9827
 5309TIP3    H237343   4.982   1.262  11.703 -0.7471  0.6125 -1.0735
 5310TIP3   OH237344   4.417   1.579   4.749 -0.0802  0.3096 -0.6687
 5310TIP3    H137345   4.461   1.581   4.834 -0.3699  0.9801 -0.5321
 5310TIP3    H237346   4.464   1.512   4.700 -0.3759 -0.5908  0.2684
 5311TIP3   OH237347   2.445   3.167  14.121 -0.1252 -0.3031 -0.1261
 5311TIP3    H137348   2.502   3.092  14.139  0.2143  0.3540  1.7001
 5311TIP3    H237349   2.449   3.179  14.026  1.4680 -1.3016 -0.1985
 5312TIP3   OH237350   2.721   1.422   4.949 -0.3624  0.4565 -0.0206
 5312TIP3    H137351   2.632   1.419   4.985 -0.3251  1.0432  0.1355
 5312TIP3    H237352   2.717   1.367   4.871 -0.8216  0.3414  0.0792
 5313TIP3   OH237353   5.396   5.964  11.668  0.0025 -0.4731  0.1561
 5313TIP3    H137354   5.396   5.982  11.575  1.4232  1.1569  0.4507
 5313TIP3    H237355   5.450   6.033  11.707 -0.9048 -0.8731  2.2316
 5314TIP3   OH237356   3.161   5.686   4.531  0.6604  0.5303 -0.3469
 5314TIP3    H137357   3.083   5.738   4.547  1.1372  0.7240  1.4010
 5314TIP3    H237358   3.234   5.741   4.560  1.2735 -0.5278  0.1661
 5315TIP3   OH237359   5.480   3.561   2.192 -0.5975 -0.1993 -0.3992
 5315TIP3    H137360   5.445   3.522   2.272  1.1314 -1.1666 -0.0820
 5315TIP3    H237361   5.437   3.512   2.121 -1.1155 -0.2584 -0.0445
 5316TIP3   OH237362   1.335   2.037   2.830  0.0599 -0.2825  0.6118
 5316TIP3    H137363   1.403   2.074   2.774 -0.1023 -0.3435  0.3748
 5316TIP3    H237364   1.327   1.947   2.801 -1.4338  0.2357 -0.6102
 5317TIP3   OH237365   6.179   5.483   2.916  0.2674  0.0997 -0.2329
 5317TIP3    H137366   6.158   5.505   2.825  1.5019  1.1420 -0.2765
 5317TIP3    H237367   6.210   5.565   2.954  0.5807 -0.5317  0.8972
 5318TIP3   OH237368   4.871   0.308   1.326  0.4644  0.1326 -0.0296
 5318TIP3    H137369   4.881   0.276   1.237 -2.5117 -0.2469 -0.2456
 5318TIP3    H237370   4.862   0.403   1.317  0.0938  0.0865 -0.1204
 5319TIP3   OH237371   4.056   5.143  11.176 -0.9022  0.0393  0.1132
 5319TIP3    H137372   4.079   5.168  11.087  0.5535 -1.9579 -0.1154
 5319TIP3    H237373   4.070   5.048  11.179 -0.9259  0.0659  2.4596
 5320TIP3   OH237374   6.375   0.028   0.774  0.1172  0.0316 -0.0526
 5320TIP3    H137375   6.289   0.023   0.814  1.0222  2.1481  2.2298
 5320TIP3    H237376   6.399   0.121   0.777  1.5621 -0.1916 -2.6628
 5321TIP3   OH237377   1.619   2.273  15.930 -0.1219 -0.0643 -0.0153
 5321TIP3    H137378   1.663   2.218  15.996 -0.8264 -0.0225  0.4954
 5321TIP3    H237379   1.606   2.214  15.855  1.3932  0.1040 -0.4227
 5322TIP3   OH237380   3.496   4.058   2.233 -0.2218 -1.0740  0.4621
 5322TIP3    H137381   3.480   4.023   2.145  1.0466 -1.6417  0.4503
 5322TIP3    H237382   3.439   4.007   2.290 -1.8906  0.0497 -0.1597
 5323TIP3   OH237383   5.529   3.832   3.615  0.3977  0.5723 -0.1311
 5323TIP3    H137384   5.605   3.798   3.567 -0.2576 -0.1922 -0.6520
 5323TIP3    H237385   5.528   3.781   3.696  0.1694  0.2373 -0.3395
 5324TIP3   OH237386   2.684   3.096  13.228 -0.6154 -0.0766  0.3151
 5324TIP3    H137387   2.753   3.152  13.193  0.7038 -1.6884  0.2668
 5324TIP3    H237388   2.717   3.068  13.313 -1.5506 -0.2455  0.6279
 5325TIP3   OH237389   4.544   4.130   5.227 -0.0200  0.4514 -0.3362
 5325TIP3    H137390   4.520   4.154   5.316  3.1255  3.1806 -0.1021
 5325TIP3    H237391   4.600   4.053   5.237 -0.9166 -0.1734 -0.1023
 5326TIP3   OH237392   5.786   1.696   6.494 -0.5418 -0.6226  0.0524
 5326TIP3    H137393   5.694   1.717   6.482 -0.4376 -0.2109 -0.0298
 5326TIP3    H237394   5.817   1.758   6.560 -0.3394 -0.8038  0.1306
 5327TIP3   OH237395   5.280   2.977  15.792 -0.5069 -0.6889 -0.4573
 5327TIP3    H137396   5.273   2.976  15.887  1.0097  0.9365 -0.2940
 5327TIP3    H237397   5.313   2.890  15.769  1.0149 -0.4389  0.7008
 5328TIP3   OH237398   2.292   2.773  16.130 -0.3004  0.1959 -0.6119
 5328TIP3    H137399   2.299   2.685  16.093 -1.2215  0.4364 -1.3646
 5328TIP3    H237400   2.357   2.775  16.200 -0.6998 -1.2782 -0.1966
 5329TIP3   OH237401   2.382   2.299  10.395 -0.1709  0.0290  0.1537
 5329TIP3    H137402   2.320   2.368  10.419 -0.0124  1.1191 -2.3874
 5329TIP3    H237403   2.327   2.224  10.374 -0.3410 -0.7355  3.0367
 5330TIP3   OH237404   5.522   6.174   2.104  0.3579 -0.3855 -0.3959
 5330TIP3    H137405   5.433   6.205   2.123  0.6150 -1.1387  2.3067
 5330TIP3    H237406   5.529   6.177   2.009 -1.6480  2.1982 -0.5097
 5331TIP3   OH237407   0.181   5.927   4.615  0.2698  0.1780  0.3968
 5331TIP3    H137408   0.265   5.972   4.619  0.8781 -0.4146 -3.5178
 5331TIP3    H237409   0.132   5.975   4.548 -0.8796 -2.0636 -0.3965
 5332TIP3   OH237410   6.704   0.906   1.071 -0.3175  0.1499  0.0630
 5332TIP3    H137411   6.758   0.861   1.006 -0.7617 -0.0967 -0.1333
 5332TIP3    H237412   6.761   0.975   1.106  0.2947 -0.4296  0.2195
 5333TIP3   OH237413   6.061   6.060   5.574 -0.0141 -0.3770 -0.3895
 5333TIP3    H137414   6.073   6.004   5.498  0.1349  0.5495 -1.0599
 5333TIP3    H237415   5.976   6.034   5.610  0.2825 -1.3644 -0.3995
 5334TIP3   OH237416   3.904   3.483  15.479 -0.6644  0.2831  0.4037
 5334TIP3    H137417   3.951   3.445  15.405 -1.9356  1.7251 -1.1847
 5334TIP3    H237418   3.931   3.574  15.481 -0.9830  0.3589  1.4389
 5335TIP3   OH237419   3.853   0.304  12.146 -0.8584  0.3385 -0.3752
 5335TIP3    H137420   3.941   0.272  12.127 -0.8668 -0.2604  0.5842
 5335TIP3    H237421   3.821   0.248  12.217 -1.8344  0.8508 -0.3961
 5336TIP3   OH237422   0.898   3.999   5.320  0.5447 -0.0954  0.5135
 5336TIP3    H137423   0.844   3.983   5.398 -0.3657  2.6639  0.4881
 5336TIP3    H237424   0.881   3.924   5.263 -1.8040 -0.1860  1.3007
 5337TIP3   OH237425   5.283   1.140   3.957  0.9028  0.1196 -0.3351
 5337TIP3    H137426   5.220   1.069   3.970  2.1655 -0.9334  0.1830
 5337TIP3    H237427   5.329   1.146   4.041  2.4163 -0.0631 -1.1356
 5338TIP3   OH237428   6.547   6.026   0.875 -0.7340  0.2851 -0.2378
 5338TIP3    H137429   6.620   6.011   0.935 -0.7853 -0.2851 -0.3152
 5338TIP3    H237430   6.584   6.010   0.788 -0.3084  2.3992 -0.4703
 5339TIP3   OH237431   0.772   0.487   2.823  0.0090  0.1149  0.2129
 5339TIP3    H137432   0.858   0.517   2.853  0.4024  1.1521 -1.8693
 5339TIP3    H237433   0.779   0.392   2.821  1.6000  0.2488 -1.3105
 5340TIP3   OH237434   5.972   0.202  15.995 -0.1790 -0.5144 -0.2574
 5340TIP3    H137435   5.938   0.291  16.006  0.4488 -0.5160  1.9888
 5340TIP3    H237436   6.067   0.212  15.996 -0.0832 -0.9252 -2.7914
 5341TIP3   OH237437   2.855   4.002  15.310 -0.1008  0.4056 -0.7798
 5341TIP3    H137438   2.775   4.030  15.354  1.1795  2.5649  0.2759
 5341TIP3    H237439   2.918   4.072  15.328  1.5661 -0.4846 -2.9114
 5342TIP3   OH237440   3.918   4.694  13.579 -0.0705  0.0726  0.2946
 5342TIP3    H137441   3.976   4.770  13.580 -0.7746  0.6310 -0.7062
 5342TIP3    H237442   3.937   4.650  13.496 -0.5262 -0.1646  0.3145
 5343TIP3   OH237443   6.369   5.487   0.147 -0.2984  0.2510 -0.0833
 5343TIP3    H137444   6.306   5.517   0.213  1.6372 -1.0318  2.4363
 5343TIP3    H237445   6.391   5.398   0.174  0.9728 -0.0843 -2.1561
 5344TIP3   OH237446   0.010   5.290   3.515  0.6698 -0.2335  0.1884
 5344TIP3    H137447   0.017   5.385   3.520 -0.7225 -0.0014 -1.7573
 5344TIP3    H237448  -0.073   5.269   3.556  0.5028 -0.5031 -0.2764
 5345TIP3   OH237449   4.746   2.486  14.289  0.2567 -0.1601  0.8589
 5345TIP3    H137450   4.813   2.495  14.357 -0.0938  3.1272  0.8457
 5345TIP3    H237451   4.663   2.500  14.335 -0.2164 -1.3705  0.3698
 5346TIP3   OH237452   1.679   5.201  15.539  0.5126 -0.3758  0.1350
 5346TIP3    H137453   1.682   5.297  15.546  0.3962 -0.3952  0.4772
 5346TIP3    H237454   1.761   5.172  15.580 -0.4207 -0.5174  1.9566
 5347TIP3   OH237455   5.601   0.806  13.408  0.3987  0.0900 -0.2251
 5347TIP3    H137456   5.533   0.756  13.363  2.5757 -0.9316 -2.5088
 5347TIP3    H237457   5.554   0.878  13.450 -2.1096 -0.7239 -1.5353
 5348TIP3   OH237458   4.255   1.835  16.973 -0.4493 -0.1874 -0.2202
 5348TIP3    H137459   4.217   1.748  16.985 -0.1025 -0.6649 -2.3535
 5348TIP3    H237460   4.283   1.837  16.882  1.0818  1.5681  0.2397
 5349TIP3   OH237461   1.552   0.636  12.212  0.7102  0.0283 -0.4578
 5349TIP3    H137462   1.568   0.730  12.205 -1.3590  0.4256 -0.1638
 5349TIP3    H237463   1.514   0.611  12.128  1.3733 -0.5712 -0.5832
 5350TIP3   OH237464   0.351   5.630   3.987 -0.2810  0.4145 -0.0027
 5350TIP3    H137465   0.373   5.697   3.923  1.9377  1.1644  1.4984
 5350TIP3    H237466   0.286   5.671   4.044 -1.8321 -0.0656 -1.3649
 5351TIP3   OH237467   0.075   6.734  15.113 -0.2619 -0.2801 -0.7026
 5351TIP3    H137468   0.036   6.740  15.200 -0.0623  1.5213 -0.7131
 5351TIP3    H237469   0.076   6.824  15.081  1.2426 -0.6869 -1.8702
 5352TIP3   OH237470   4.248   5.979   3.055 -0.2911  0.1430  0.3758
 5352TIP3    H137471   4.327   6.007   3.101 -0.6538  1.1207  0.4181
 5352TIP3    H237472   4.202   5.924   3.119  0.9200 -1.4499 -0.0669
 5353TIP3   OH237473   4.269   1.564   0.874 -0.4867 -0.1073 -0.3012
 5353TIP3    H137474   4.308   1.588   0.790  1.9723  0.4681  0.9785
 5353TIP3    H237475   4.198   1.627   0.887  0.7110  1.3418 -0.7945
 5354TIP3   OH237476   5.262   4.522  14.686 -0.3985  0.2420 -0.0076
 5354TIP3    H137477   5.267   4.427  14.675 -0.2396  0.3646 -1.0874
 5354TIP3    H237478   5.246   4.555  14.597  0.7565  1.3086  0.1706
 5355TIP3   OH237479   1.055   5.970  11.947 -0.0777  0.2461  0.2758
 5355TIP3    H137480   1.123   5.903  11.953 -1.0067 -0.7071  0.3993
 5355TIP3    H237481   0.977   5.922  11.919 -0.4215  1.5147 -0.9751
 5356TIP3   OH237482   2.904   4.557  12.587 -0.1881  0.1875  0.0808
 5356TIP3    H137483   2.865   4.579  12.502 -0.2218 -0.9540 -0.2047
 5356TIP3    H237484   2.961   4.483  12.569  1.3618  1.2091  0.6937
 5357TIP3   OH237485   1.905   2.803  13.444 -0.0754 -0.0669  0.6920
 5357TIP3    H137486   1.861   2.739  13.500  2.2657 -0.1930  2.4801
 5357TIP3    H237487   1.894   2.886  13.490  1.5867 -0.1169  1.1958
 5358TIP3   OH237488   1.361   5.454  11.743 -0.1561  0.0251 -0.3857
 5358TIP3    H137489   1.423   5.412  11.803  0.5400  1.0850 -0.3446
 5358TIP3    H237490   1.275   5.419  11.768  0.1290  0.4395  1.2335
 5359TIP3   OH237491   2.649   0.408  13.796  0.9291 -0.1183 -0.3878
 5359TIP3    H137492   2.673   0.363  13.877  1.4059  1.3872  0.3373
 5359TIP3    H237493   2.553   0.412  13.799  0.9676  0.5388  0.4728
 5360TIP3   OH237494   5.729   1.701   4.386  0.0910  0.4365  0.0209
 5360TIP3    H137495   5.700   1.774   4.332  2.5549  1.6354  0.2683
 5360TIP3    H237496   5.824   1.708   4.387  0.3194 -2.1700  0.9178
 5361TIP3   OH237497   4.193   1.326   2.659 -0.3059  0.7359  0.0617
 5361TIP3    H137498   4.124   1.283   2.608  0.3801 -0.0473 -0.2260
 5361TIP3    H237499   4.146   1.380   2.722 -1.1857  0.2230 -0.1358
 5362TIP3   OH237500   3.473   0.600  14.914  0.4149 -0.1050  0.2325
 5362TIP3    H137501   3.509   0.529  14.861  1.4793  0.3901  0.2932
 5362TIP3    H237502   3.388   0.567  14.943  1.3935 -1.8246  1.2125
 5363TIP3   OH237503   1.112   5.915  16.862  0.3566 -0.4705  0.2439
 5363TIP3    H137504   1.035   5.862  16.884 -0.9159  0.8846 -0.8770
 5363TIP3    H237505   1.124   5.902  16.768 -0.5658  1.9692 -0.2457
 5364TIP3   OH237506   5.918   1.536   1.298  0.2902 -0.1951 -0.5565
 5364TIP3    H137507   5.972   1.608   1.264 -0.5556  0.7304  0.0138
 5364TIP3    H237508   5.866   1.508   1.223  1.0843 -0.6342 -0.9396
 5365TIP3   OH237509   1.093   3.690  16.123  0.0389  0.0857 -0.1234
 5365TIP3    H137510   1.050   3.665  16.205  0.4132  0.7090  0.2736
 5365TIP3    H237511   1.044   3.767  16.093 -1.0821 -1.0594 -1.3109
 5366TIP3   OH237512   3.367   2.509  15.963  0.0820 -0.3425 -0.6696
 5366TIP3    H137513   3.362   2.602  15.940  1.0040 -0.2707 -0.6036
 5366TIP3    H237514   3.371   2.464  15.879  0.8006 -0.2479 -0.6866
 5367TIP3   OH237515   1.676   3.982  15.302  0.2699  0.5296  0.2825
 5367TIP3    H137516   1.613   4.042  15.261  0.7689  0.6410 -0.3377
 5367TIP3    H237517   1.738   4.039  15.347  1.6898  0.5982 -1.6596
 5368TIP3   OH237518   3.811   1.023   4.421  0.1774  0.0141  0.4856
 5368TIP3    H137519   3.793   1.007   4.328 -0.2908 -1.8321  0.8855
 5368TIP3    H237520   3.827   0.936   4.458  1.6672  0.8543  1.8755
 5369TIP3   OH237521   1.100   4.676   4.278  0.0793  0.5199  0.4962
 5369TIP3    H137522   1.109   4.638   4.366  0.7801 -0.3487  0.0651
 5369TIP3    H237523   1.009   4.660   4.254  0.2267 -0.4114  0.5406
 5370TIP3   OH237524   1.603   1.840  10.419  0.3420 -0.0654 -0.7749
 5370TIP3    H137525   1.619   1.931  10.395  0.9629  0.0366  0.0121
 5370TIP3    H237526   1.520   1.842  10.467  0.8441  0.2350  0.0950
 5371TIP3   OH237527   0.143   3.084   2.827 -0.0621 -0.2777 -0.0138
 5371TIP3    H137528   0.222   3.110   2.780  0.2028 -0.2094  0.4637
 5371TIP3    H237529   0.126   3.155   2.888 -0.2735 -0.4706  0.1543
 5372TIP3   OH237530   2.061   2.174   6.116 -0.1897  0.0874  0.1819
 5372TIP3    H137531   2.105   2.253   6.149 -0.2705 -0.0081  0.5205
 5372TIP3    H237532   2.097   2.103   6.169 -0.0567 -0.1147 -0.1801
 5373TIP3   OH237533   6.668   6.664   0.385  0.6562 -0.5701 -0.7943
 5373TIP3    H137534   6.657   6.569   0.385  0.0890 -0.5190  0.6292
 5373TIP3    H237535   6.584   6.698   0.417  1.0929  0.3702 -0.6118
 5374TIP3   OH237536   5.465   4.933   3.515 -0.5256 -0.0889 -0.0561
 5374TIP3    H137537   5.542   4.903   3.467 -0.5988  0.8163 -0.7327
 5374TIP3    H237538   5.392   4.921   3.454 -0.7872 -0.0015  0.2354
 5375TIP3   OH237539   4.998   6.209  15.534 -0.5111 -0.4057  0.5731
 5375TIP3    H137540   5.025   6.251  15.616 -1.4010 -2.3568  1.9012
 5375TIP3    H237541   5.073   6.156  15.508 -0.3602 -0.0630  0.3007
 5376TIP3   OH237542   0.060   1.788   2.746  0.2214  0.0413 -0.7063
 5376TIP3    H137543   0.002   1.712   2.757  0.0531  0.4938  1.7706
 5376TIP3    H237544   0.001   1.863   2.744  0.4351  0.1950 -2.5838
 5377TIP3   OH237545   5.557   3.696   3.853  0.9779 -0.2672  0.5538
 5377TIP3    H137546   5.488   3.744   3.898 -0.0902  1.1012 -2.3717
 5377TIP3    H237547   5.589   3.633   3.917 -1.8303  0.2201  2.5185
 5378TIP3   OH237548   1.905   4.178  12.418 -0.2452  0.0770 -0.1779
 5378TIP3    H137549   1.941   4.229  12.345 -0.9678  0.6197 -0.1736
 5378TIP3    H237550   1.855   4.242  12.469 -1.5560 -0.7231 -0.4239
 5379TIP3   OH237551   6.436   2.993   4.195 -0.2627 -0.3379  0.6187
 5379TIP3    H137552   6.523   2.967   4.227 -1.2260  0.0140  3.6530
 5379TIP3    H237553   6.390   2.910   4.182  0.3846 -0.5118 -0.6060
 5380TIP3   OH237554   2.536   5.081   3.098 -0.4494 -0.3336  0.4697
 5380TIP3    H137555   2.566   5.152   3.041 -0.8199 -0.1657  0.4789
 5380TIP3    H237556   2.510   5.011   3.037 -0.5562 -0.2701  0.4413
 5381TIP3   OH237557   4.290   0.530  13.273 -0.0159 -0.0613 -0.1429
 5381TIP3    H137558   4.301   0.489  13.187 -0.3200  0.1226 -0.2698
 5381TIP3    H237559   4.379   0.533  13.309  0.1000 -0.2281 -0.4088
 5382TIP3   OH237560   3.233   2.621  10.809 -0.6590  0.0791  0.1502
 5382TIP3    H137561   3.270   2.636  10.896 -1.2565 -1.3819  0.6705
 5382TIP3    H237562   3.267   2.693  10.756 -0.5985  1.1983  1.6721
 5383TIP3   OH237563   4.848   3.026  16.034 -0.6802 -0.1611 -0.5520
 5383TIP3    H137564   4.848   3.100  15.973  0.1345 -0.3773 -0.8177
 5383TIP3    H237565   4.863   2.950  15.978  0.0246 -0.3650 -0.0842
 5384TIP3   OH237566   3.656   3.067  15.160 -0.5477  0.4273  0.0893
 5384TIP3    H137567   3.579   3.020  15.191 -0.0442 -1.6210 -1.6627
 5384TIP3    H237568   3.634   3.096  15.072  0.9989 -1.0460 -0.8210
 5385TIP3   OH237569   6.495   4.660  12.395  0.6323 -0.0583 -0.3819
 5385TIP3    H137570   6.584   4.634  12.369  0.7700 -0.2463  0.2658
 5385TIP3    H237571   6.454   4.579  12.422  0.3463  0.0737 -0.4214
 5386TIP3   OH237572   0.821   0.885   2.716  0.0841  0.5293 -0.1477
 5386TIP3    H137573   0.786   0.942   2.648 -0.7402  0.7046  0.4226
 5386TIP3    H237574   0.916   0.888   2.703  0.1001  2.4518  0.1857
 5387TIP3   OH237575   6.492   6.778   5.948 -0.2533  0.9700  0.6172
 5387TIP3    H137576   6.413   6.791   5.999 -0.1273  0.4920  0.9323
 5387TIP3    H237577   6.551   6.729   6.005  0.7517  2.4232  0.8451
 5388TIP3   OH237578   3.971   6.094  12.819 -0.3337 -0.1414  0.0377
 5388TIP3    H137579   4.026   6.122  12.746 -0.1929 -0.5559 -0.0162
 5388TIP3    H237580   3.899   6.047  12.777 -0.3874 -0.1576  0.1480
 5389TIP3   OH237581   0.109   1.852   0.275  0.0754  0.1021  0.4773
 5389TIP3    H137582   0.166   1.873   0.349 -0.2695  0.7923  0.5452
 5389TIP3    H237583   0.096   1.757   0.282  2.2794 -0.2951 -0.3089
 5390TIP3   OH237584   2.230   2.804   1.653  0.7517  0.4673 -0.1947
 5390TIP3    H137585   2.182   2.767   1.727  3.6440  0.5862  1.7876
 5390TIP3    H237586   2.208   2.897   1.655 -1.2105  0.0610 -1.1127
 5391TIP3   OH237587   5.100   1.024   5.551 -0.3264  0.0394  0.1369
 5391TIP3    H137588   5.020   1.043   5.600  0.8440  1.6248  1.4896
 5391TIP3    H237589   5.155   0.977   5.613 -0.2742 -1.2374 -0.8604
 5392TIP3   OH237590   0.391   6.200  15.397 -0.3916 -0.0672  0.6551
 5392TIP3    H137591   0.472   6.213  15.446 -1.2347  1.5852  1.6465
 5392TIP3    H237592   0.417   6.199  15.305  0.6368  1.4211  0.9190
 5393TIP3   OH237593   3.689   2.181   2.193 -0.0812  0.8036 -0.1432
 5393TIP3    H137594   3.689   2.274   2.173 -0.8345  0.3256 -2.5059
 5393TIP3    H237595   3.754   2.143   2.134 -1.0530 -0.3962 -0.4689
 5394TIP3   OH237596   1.707   2.693  17.060 -0.0499 -0.6099 -0.4835
 5394TIP3    H137597   1.791   2.709  17.103  0.1765 -1.8112 -0.4457
 5394TIP3    H237598   1.648   2.759  17.096  0.4377 -0.8717  0.8008
 5395TIP3   OH237599   1.246   1.198  15.778  0.1433  0.6681 -0.3678
 5395TIP3    H137600   1.175   1.263  15.773  0.0899  0.6296 -0.1283
 5395TIP3    H237601   1.209   1.120  15.737 -0.0190  0.5926 -0.0860
 5396TIP3   OH237602   5.837   4.263  12.331 -0.3220 -0.7289 -0.2248
 5396TIP3    H137603   5.822   4.253  12.237 -1.9928 -1.9694  0.1516
 5396TIP3    H237604   5.932   4.267  12.340 -0.1861  1.3097 -2.1402
 5397TIP3   OH237605   5.931   1.917   5.712  0.2281 -0.7911  0.0799
 5397TIP3    H137606   5.850   1.866   5.707  0.7649 -1.5473 -1.0825
 5397TIP3    H237607   5.985   1.870   5.776  0.9042 -1.9770 -1.3282
 5398TIP3   OH237608   5.875   6.598  12.246  0.4647  0.4135 -0.3222
 5398TIP3    H137609   5.943   6.623  12.309  1.4362 -0.8544 -0.8503
 5398TIP3    H237610   5.811   6.549  12.298 -0.1449  1.7663  0.2105
 5399TIP3   OH237611   6.228   4.430   1.844  0.2149 -0.1849  0.0194
 5399TIP3    H137612   6.222   4.473   1.930  0.2465 -0.2950  0.0765
 5399TIP3    H237613   6.298   4.478   1.799  0.8251 -0.7140  0.3954
 5400TIP3   OH237614   2.402   0.638   5.352  0.4875  0.5565 -0.3394
 5400TIP3    H137615   2.374   0.715   5.303  0.9335  0.1779 -1.1839
 5400TIP3    H237616   2.489   0.618   5.319  0.2913 -0.4423 -0.2681
 5401TIP3   OH237617   1.150   1.740   3.816  0.2464  0.5689 -0.3088
 5401TIP3    H137618   1.211   1.801   3.857  1.2736 -0.6862  0.0920
 5401TIP3    H237619   1.180   1.736   3.725 -0.0712  0.9649 -0.4311
 5402TIP3   OH237620   5.810   6.023  13.914  0.1724 -0.3375  0.2087
 5402TIP3    H137621   5.825   6.085  13.985  3.0271 -0.7831  0.0701
 5402TIP3    H237622   5.881   5.959  13.923 -0.0632 -1.0189 -2.3709
 5403TIP3   OH237623   1.700   5.545  12.724  1.1958  0.7288  0.0647
 5403TIP3    H137624   1.664   5.502  12.802  1.4891 -0.5572 -0.4910
 5403TIP3    H237625   1.770   5.486  12.695  0.0014  0.3337 -2.1336
 5404TIP3   OH237626   5.064   1.873   3.093  0.6056  0.4769  0.7788
 5404TIP3    H137627   5.057   1.799   3.033  0.9539  0.9201  0.1892
 5404TIP3    H237628   4.981   1.919   3.084  0.1603 -0.1655  1.5750
 5405TIP3   OH237629   2.652   4.617   2.865  0.1153 -0.3826  0.2154
 5405TIP3    H137630   2.613   4.620   2.952 -0.1170 -1.9476  0.1721
 5405TIP3    H237631   2.726   4.557   2.873 -0.0298 -0.6997 -0.7209
 5406TIP3   OH237632   6.096   4.912  13.303 -0.1320 -0.4692  0.8394
 5406TIP3    H137633   6.133   4.981  13.248  1.1563 -0.3674  1.8119
 5406TIP3    H237634   6.111   4.831  13.254  0.1702 -0.2700  0.6024
 5407TIP3   OH237635   6.516   3.268  16.211 -0.3960  0.1871 -0.5131
 5407TIP3    H137636   6.515   3.183  16.169 -1.7837 -0.9570  1.6942
 5407TIP3    H237637   6.608   3.291  16.218  0.1374 -2.2448  0.9565
 5408TIP3   OH237638   3.590   0.385  13.309 -0.1950  0.6434  0.2050
 5408TIP3    H137639   3.508   0.432  13.294  0.5203  1.9428  0.3136
 5408TIP3    H237640   3.657   0.442  13.274  0.5062 -1.4366 -1.9653
 5409TIP3   OH237641   4.849   6.540  12.933  0.0393 -0.1212  0.0481
 5409TIP3    H137642   4.877   6.501  12.850 -0.8549  1.3617 -0.9870
 5409TIP3    H237643   4.869   6.474  12.999  2.2051 -0.7050 -1.1499
 5410TIP3   OH237644   5.563   2.591   4.185 -0.2492 -0.1687  0.6077
 5410TIP3    H137645   5.565   2.686   4.197 -1.9927  0.0378 -0.6086
 5410TIP3    H237646   5.656   2.566   4.184  0.3041  1.7944 -1.1103
 5411TIP3   OH237647   0.466   0.912   5.397 -0.0801  0.2728 -0.9963
 5411TIP3    H137648   0.443   0.997   5.359 -2.6206  1.0155  1.9511
 5411TIP3    H237649   0.390   0.856   5.379  1.1159 -1.0749 -1.9563
 5412TIP3   OH237650   5.179   3.795  15.775 -0.0563  0.0114  0.3052
 5412TIP3    H137651   5.183   3.891  15.781  1.7111 -0.0456  0.3535
 5412TIP3    H237652   5.086   3.776  15.761 -0.6050  1.6592  1.4979
 5413TIP3   OH237653   3.242   5.015   4.742  0.2216  0.1920  0.1326
 5413TIP3    H137654   3.247   4.939   4.800  0.6510 -0.3520 -0.6013
 5413TIP3    H237655   3.296   4.991   4.667 -0.2635  0.9215 -0.4566
 5414TIP3   OH237656   5.985   4.190  14.796 -0.2415 -0.2415 -0.0035
 5414TIP3    H137657   6.004   4.119  14.734  0.3999 -0.6373  0.6427
 5414TIP3    H237658   6.071   4.215  14.831 -0.2295  2.1450 -1.6200
 5415TIP3   OH237659   6.323   2.822   6.607  0.0134  0.0956  0.8452
 5415TIP3    H137660   6.414   2.818   6.578  0.6609  0.4005  2.7355
 5415TIP3    H237661   6.286   2.897   6.560  0.1103 -1.3503 -1.5789
 5416TIP3   OH237662   6.723   1.470  15.667 -0.2445  0.0664  0.1931
 5416TIP3    H137663   6.785   1.458  15.595  0.4097  3.0485  0.2013
 5416TIP3    H237664   6.655   1.405  15.651  1.7355 -1.7495 -1.0724
 5417TIP3   OH237665   2.498   5.393   5.895  0.0470 -0.0771 -0.1959
 5417TIP3    H137666   2.547   5.445   5.959  1.1511 -0.2799 -0.8526
 5417TIP3    H237667   2.475   5.313   5.941  0.0729  0.1485  0.2121
 5418TIP3   OH237668   1.213   4.053  15.695  0.4773 -0.2030 -0.2828
 5418TIP3    H137669   1.202   4.104  15.775  1.7089 -1.6920  0.8522
 5418TIP3    H237670   1.134   3.999  15.690  0.5211 -0.2979  0.0568
 5419TIP3   OH237671   2.349   3.610   6.588 -0.0872 -0.6365  0.1136
 5419TIP3    H137672   2.358   3.705   6.600  1.0579 -0.9090  1.5784
 5419TIP3    H237673   2.354   3.574   6.677  2.1348 -2.2550 -0.6373
 5420TIP3   OH237674   3.766   1.429  16.140 -0.0885  0.2897 -0.0889
 5420TIP3    H137675   3.812   1.439  16.057 -3.8915 -0.4314 -2.4269
 5420TIP3    H237676   3.714   1.509  16.149 -1.4700 -0.6250  0.3578
 5421TIP3   OH237677   0.632   2.773   3.908 -0.6205 -0.4873  0.2653
 5421TIP3    H137678   0.624   2.842   3.974 -0.0386 -0.3317  0.1777
 5421TIP3    H237679   0.633   2.692   3.959  3.4682 -0.2125  0.7834
 5422TIP3   OH237680   1.354   4.215  14.788  0.1687  0.0899 -0.0354
 5422TIP3    H137681   1.343   4.286  14.851  1.0329 -0.5016  0.8094
 5422TIP3    H237682   1.274   4.216  14.735 -0.4595  0.7507  0.9165
 5423TIP3   OH237683   5.894   0.360   1.551  0.2395 -0.1719  0.3351
 5423TIP3    H137684   5.817   0.412   1.529  0.5846 -0.2523 -1.1207
 5423TIP3    H237685   5.920   0.392   1.638 -0.8572  0.5192  0.4236
 5424TIP3   OH237686   3.487   5.927  11.574 -0.3658 -0.0605  0.4650
 5424TIP3    H137687   3.561   5.988  11.580 -1.5918  1.4963 -0.0502
 5424TIP3    H237688   3.512   5.866  11.505 -0.3215  1.5366 -0.9626
 5425TIP3   OH237689   6.647   0.388   1.914 -0.6284 -0.2860  0.5853
 5425TIP3    H137690   6.596   0.316   1.878  1.2771 -0.6107 -1.5617
 5425TIP3    H237691   6.592   0.465   1.902 -2.2352 -1.1873  1.9366
 5426TIP3   OH237692   6.338   6.397   0.373 -0.3002  0.3531  0.1673
 5426TIP3    H137693   6.333   6.315   0.422 -0.5837  0.7265  0.7710
 5426TIP3    H237694   6.428   6.427   0.384  0.2062 -0.5858 -1.2305
 5427TIP3   OH237695   5.570   2.974   5.661  0.2834  0.3460 -0.4348
 5427TIP3    H137696   5.600   3.003   5.575  0.0399 -1.0663 -1.0063
 5427TIP3    H237697   5.645   2.927   5.698 -0.5705 -1.5940 -1.1064
 5428TIP3   OH237698   4.372   3.697   0.016 -0.2771  1.0338  0.1756
 5428TIP3    H137699   4.408   3.645  -0.056  1.4724  2.2439  0.1474
 5428TIP3    H237700   4.289   3.655   0.037 -1.3093  1.2305 -3.2308
 5429TIP3   OH237701   4.124   5.660  15.011 -0.1838  0.5839 -0.0265
 5429TIP3    H137702   4.206   5.617  15.034 -0.2972 -0.6538 -1.8694
 5429TIP3    H237703   4.150   5.739  14.963 -0.0732 -0.1254 -1.1418
 5430TIP3   OH237704   4.516   3.523   1.665  0.3594  0.2461 -0.7383
 5430TIP3    H137705   4.524   3.511   1.570  0.3515 -0.1992 -0.6872
 5430TIP3    H237706   4.424   3.548   1.677  0.5441  0.9977 -0.9135
 5431TIP3   OH237707   4.957   6.299  15.228 -0.1066  0.0591  0.0905
 5431TIP3    H137708   5.014   6.251  15.166 -0.7742  0.0797 -0.5456
 5431TIP3    H237709   4.920   6.230  15.283 -0.1751 -0.0525 -0.0900
 5432TIP3   OH237710   4.357   3.134  16.609 -0.2240 -0.2316 -0.4654
 5432TIP3    H137711   4.262   3.121  16.620 -0.3430  1.1825  0.2624
 5432TIP3    H237712   4.389   3.155  16.696  1.0193 -2.1162 -0.4366
 5433TIP3   OH237713   2.428   5.361   0.764 -0.1519 -0.1983  0.2197
 5433TIP3    H137714   2.515   5.343   0.730 -0.1911 -1.1155  0.6063
 5433TIP3    H237715   2.368   5.333   0.695 -0.1862 -0.7753  0.4872
 5434TIP3   OH237716   3.269   1.970  14.018 -0.1635 -0.0816 -0.0227
 5434TIP3    H137717   3.183   2.003  14.043  0.2898  1.4879 -0.4179
 5434TIP3    H237718   3.308   1.938  14.100 -0.8376 -0.1123  0.2837
 5435TIP3   OH237719   2.086   5.548   6.235 -0.1956  0.1351  0.1604
 5435TIP3    H137720   2.007   5.590   6.268 -0.6784  0.1234 -0.9777
 5435TIP3    H237721   2.148   5.554   6.308 -1.5107 -0.6352  1.3566
 5436TIP3   OH237722   2.281   1.714   0.371 -0.0579 -0.1249 -0.1137
 5436TIP3    H137723   2.285   1.777   0.299  0.2830 -0.6864 -0.5864
 5436TIP3    H237724   2.322   1.635   0.336 -0.5572 -0.6367  0.4541
 5437TIP3   OH237725   6.013   4.439  14.614  0.0629 -0.0766 -0.3872
 5437TIP3    H137726   5.970   4.404  14.693 -0.8818  1.0328 -0.3775
 5437TIP3    H237727   6.047   4.524  14.642  2.1043 -0.8580 -0.4642
 5438TIP3   OH237728   5.834   4.903  13.049  0.0735 -0.1913  0.8197
 5438TIP3    H137729   5.895   4.856  13.105 -0.2088 -1.3850  0.1338
 5438TIP3    H237730   5.757   4.916  13.103  0.2397 -0.3238  1.0862
 5439TIP3   OH237731   1.850   1.307   2.352 -0.4046  0.2220 -0.2587
 5439TIP3    H137732   1.915   1.350   2.408 -0.1110 -2.3476  1.4212
 5439TIP3    H237733   1.766   1.342   2.381 -0.3031 -1.4835  2.2291
 5440TIP3   OH237734   0.416   2.159  14.896  0.2281  0.5025  0.0211
 5440TIP3    H137735   0.438   2.200  14.812 -0.6765  2.2903  0.6159
 5440TIP3    H237736   0.359   2.086  14.874 -0.8988  1.6416 -0.8533
 5441TIP3   OH237737   6.141   6.377   4.092  0.8705  0.1986 -0.4227
 5441TIP3    H137738   6.157   6.471   4.095  2.4976 -0.1008  1.7006
 5441TIP3    H237739   6.096   6.358   4.174 -0.2749 -0.7533 -1.2525
 5442TIP3   OH237740   1.247   1.888  12.035 -0.2755  0.0477 -0.2520
 5442TIP3    H137741   1.315   1.877  12.101 -2.2636 -0.2022  1.8017
 5442TIP3    H237742   1.209   1.801  12.024 -0.0408  0.1047 -1.6733
 5443TIP3   OH237743   2.734   6.665   2.161  0.4087  0.3552 -0.2200
 5443TIP3    H137744   2.735   6.575   2.194 -1.3317  0.3722 -0.1167
 5443TIP3    H237745   2.653   6.672   2.111  1.3990  1.3335 -1.7461
 5444TIP3   OH237746   5.551   0.018  16.202 -0.4805  0.4289  0.0864
 5444TIP3    H137747   5.571   0.065  16.283 -0.1166  1.3618 -0.5317
 5444TIP3    H237748   5.565  -0.074  16.223 -0.6309  0.6480  1.1525
 5445TIP3   OH237749   2.759   6.319  14.027 -0.3751 -0.0147 -0.6327
 5445TIP3    H137750   2.693   6.325  14.097 -0.1648 -1.5283 -0.2881
 5445TIP3    H237751   2.740   6.394  13.971 -1.1749  0.6685  0.5059
 5446TIP3   OH237752   3.872   0.893   0.114  0.1620 -0.1630  0.0898
 5446TIP3    H137753   3.782   0.861   0.101  0.0316 -1.2951  3.2898
 5446TIP3    H237754   3.872   0.981   0.076 -1.2850 -1.4842 -3.1072
 5447TIP3   OH237755   0.767   5.016   4.765 -0.1668  0.0426 -0.8400
 5447TIP3    H137756   0.725   4.970   4.838 -1.5992 -0.3123 -1.8440
 5447TIP3    H237757   0.815   5.087   4.805  0.5554 -1.2337  0.5995
 5448TIP3   OH237758   4.675   0.438  15.859  0.1697 -0.1082 -0.0962
 5448TIP3    H137759   4.752   0.420  15.806 -0.6876  0.8638 -1.7179
 5448TIP3    H237760   4.709   0.481  15.938  1.2150  1.0875 -1.1782
 5449TIP3   OH237761   2.801   6.701  13.184  0.1151 -0.0540 -0.2136
 5449TIP3    H137762   2.723   6.653  13.214 -0.6272  1.0798 -0.2822
 5449TIP3    H237763   2.863   6.693  13.256  1.0733 -3.4833 -1.3538
 5450TIP3   OH237764   5.505   3.563   1.576 -0.5136  0.4551  0.5772
 5450TIP3    H137765   5.467   3.503   1.513  1.9172 -0.6962  0.1445
 5450TIP3    H237766   5.489   3.522   1.661  0.0279 -0.1889  0.3725
 5451TIP3   OH237767   5.806   2.797  11.043 -0.2303 -0.1338 -0.5194
 5451TIP3    H137768   5.817   2.835  11.130  0.5399  0.3039 -0.8012
 5451TIP3    H237769   5.759   2.715  11.058  1.6871 -1.0666  0.5117
 5452TIP3   OH237770   2.230   0.652   2.326  0.1610 -0.0082  0.0398
 5452TIP3    H137771   2.207   0.600   2.403  1.0731 -1.2850 -0.5304
 5452TIP3    H237772   2.308   0.609   2.290  0.3208  1.1389 -1.0543
 5453TIP3   OH237773   0.309   0.219  11.596 -0.1253  0.4344 -0.3294
 5453TIP3    H137774   0.265   0.257  11.672  1.4755  0.2116  0.7236
 5453TIP3    H237775   0.247   0.155  11.562 -0.9260  0.6614  0.6782
 5454TIP3   OH237776   2.625   4.315   1.309  0.4466 -0.0780 -0.2772
 5454TIP3    H137777   2.705   4.353   1.272  0.4093 -0.6235 -0.9308
 5454TIP3    H237778   2.573   4.391   1.336  1.3899  0.2639  0.5873
 5455TIP3   OH237779   0.602   2.799   6.059 -0.2884 -0.0935  0.6798
 5455TIP3    H137780   0.570   2.756   6.138 -3.7096 -0.9036 -1.0588
 5455TIP3    H237781   0.577   2.891   6.069  1.4326  0.3015  1.5724
 5456TIP3   OH237782   0.648   3.567  12.510  0.2761 -0.7491 -0.2614
 5456TIP3    H137783   0.611   3.519  12.585  2.6200 -0.8201  0.8895
 5456TIP3    H237784   0.573   3.585  12.454 -1.8794  1.0478  3.0665
 5457TIP3   OH237785   0.337   0.458   4.261 -0.9152 -0.0123 -0.2792
 5457TIP3    H137786   0.405   0.483   4.199 -0.8005  2.3538  0.7702
 5457TIP3    H237787   0.256   0.461   4.210 -0.6244  0.2521 -0.7272
 5458TIP3   OH237788   2.001   6.126   3.013  0.5434  0.1479  0.0672
 5458TIP3    H137789   1.968   6.159   2.930  3.6522  0.9349 -0.9252
 5458TIP3    H237790   2.073   6.185   3.036  0.8776 -1.0898  2.4447
 5459TIP3   OH237791   1.604   3.676  15.975  0.1188 -0.5349 -0.1032
 5459TIP3    H137792   1.680   3.724  16.007  0.9959 -0.3155 -2.4324
 5459TIP3    H237793   1.641   3.597  15.935 -1.0538 -1.4556  0.6022
 5460TIP3   OH237794   0.398   5.449  16.162 -0.1245 -0.6598 -0.1696
 5460TIP3    H137795   0.389   5.533  16.116 -0.1017 -0.0694  0.8734
 5460TIP3    H237796   0.488   5.451  16.195 -0.4168 -0.6899  0.6298
 5461TIP3   OH237797   2.240   4.157   1.632 -0.3315 -0.9983  0.3843
 5461TIP3    H137798   2.316   4.146   1.576  0.1978 -2.4195  1.3487
 5461TIP3    H237799   2.272   4.202   1.710 -0.9316  0.3913 -0.1646
 5462TIP3   OH237800   0.728   0.046  15.773  0.0049  0.3275  0.4831
 5462TIP3    H137801   0.644   0.071  15.735  0.2011  0.1532 -0.0637
 5462TIP3    H237802   0.754   0.123  15.824 -0.0006  0.7719 -0.1755
 5463TIP3   OH237803   1.762   2.671  15.370  0.5197 -0.8566  0.3221
 5463TIP3    H137804   1.833   2.694  15.309  0.2469 -2.7511 -0.7575
 5463TIP3    H237805   1.682   2.698  15.325  0.3865 -1.2479  0.3211
 5464TIP3   OH237806   3.922   0.605  16.454  0.7718 -0.3065 -0.0390
 5464TIP3    H137807   3.838   0.646  16.475  1.1452  0.6199 -0.3342
 5464TIP3    H237808   3.921   0.596  16.358  0.4024 -1.6393  0.0752
 5465TIP3   OH237809   6.465   2.699   4.395 -0.4364  0.3684 -0.5582
 5465TIP3    H137810   6.389   2.718   4.339  1.0301  1.8156 -2.1215
 5465TIP3    H237811   6.489   2.784   4.432  0.7638  0.0103 -0.5025
 5466TIP3   OH237812   3.095   2.273   4.887 -0.3963 -0.0069 -0.0130
 5466TIP3    H137813   3.024   2.327   4.852 -1.0980 -0.3045  0.9407
 5466TIP3    H237814   3.173   2.327   4.880 -0.8435  0.5903 -0.3979
 5467TIP3   OH237815   5.897   5.103  11.703 -0.0978 -0.2018 -0.3729
 5467TIP3    H137816   5.945   5.045  11.643 -0.7035 -0.7907 -0.3036
 5467TIP3    H237817   5.913   5.191  11.669  0.5125 -0.4359 -0.7173
 5468TIP3   OH237818   1.428   1.783   2.701 -0.2201 -0.8499 -0.1264
 5468TIP3    H137819   1.496   1.797   2.636  1.0082  0.0550  1.3134
 5468TIP3    H237820   1.391   1.697   2.679  0.2680 -0.6283 -1.8925
 5469TIP3   OH237821   5.840   1.988  11.333 -0.1040 -0.0355 -0.1559
 5469TIP3    H137822   5.797   2.042  11.401  0.0770 -0.7677  0.5494
 5469TIP3    H237823   5.884   2.052  11.277 -1.1946  0.6592 -0.2442
 5470TIP3   OH237824   3.488   2.361   5.136 -0.0486  0.8084 -0.3675
 5470TIP3    H137825   3.482   2.457   5.130  2.6226  1.0266  0.1444
 5470TIP3    H237826   3.581   2.342   5.126 -0.4582 -1.6842  0.3850
 5471TIP3   OH237827   3.114   3.043  15.263 -0.1010  0.0139  0.0004
 5471TIP3    H137828   3.130   2.954  15.232  1.8139 -0.1359  1.3520
 5471TIP3    H237829   3.038   3.072  15.213 -0.0772 -1.9787 -1.2550
 5472TIP3   OH237830   1.443   0.220  13.492  0.2066 -0.0728 -0.2346
 5472TIP3    H137831   1.353   0.199  13.516  0.3995 -0.7877 -0.0997
 5472TIP3    H237832   1.450   0.191  13.401  0.4015 -0.3784 -0.1256
 5473TIP3   OH237833   2.872   2.377  15.065 -0.3420  0.1655 -0.2244
 5473TIP3    H137834   2.807   2.425  15.014  0.3570  0.9497 -0.3751
 5473TIP3    H237835   2.823   2.302  15.101 -1.1026  0.2297 -1.0998
 5474TIP3   OH237836   0.832   4.715   4.274 -0.0101  0.0047 -0.1988
 5474TIP3    H137837   0.774   4.639   4.266 -1.4343  1.0563  0.0534
 5474TIP3    H237838   0.778   4.783   4.315  1.8938  0.4703  1.6315
 5475TIP3   OH237839   5.147   4.015   3.111  0.3191 -0.4327  0.3243
 5475TIP3    H137840   5.240   3.994   3.104  0.2370 -1.3250  1.6720
 5475TIP3    H237841   5.116   3.963   3.186 -1.6542 -1.4722 -1.1602
 5476TIP3   OH237842   6.111   6.624   1.154  0.1218  0.1601 -0.5015
 5476TIP3    H137843   6.045   6.584   1.098  1.6087 -0.7418 -1.6452
 5476TIP3    H237844   6.183   6.647   1.095  1.2351  0.2772  0.8498
 5477TIP3   OH237845   4.677   4.998  15.362 -0.7529 -0.1295 -0.1493
 5477TIP3    H137846   4.688   4.931  15.295 -0.6913 -0.0180 -0.2504
 5477TIP3    H237847   4.753   4.989  15.419 -0.9590 -0.4232  0.0806
 5478TIP3   OH237848   3.666   4.264   2.298 -0.3774 -0.3157  0.4823
 5478TIP3    H137849   3.624   4.347   2.321  0.1084 -0.1117  0.6394
 5478TIP3    H237850   3.594   4.210   2.265 -0.7651  0.0329  0.7340
 5479TIP3   OH237851   1.083   2.950  15.547 -0.6883 -0.3492 -0.5507
 5479TIP3    H137852   1.078   2.934  15.453  2.2896  0.0303 -0.8444
 5479TIP3    H237853   1.077   2.864  15.587  0.3714 -0.7617 -1.2543
 5480TIP3   OH237854   5.364   2.884   1.590 -0.2323 -0.1631 -0.1352
 5480TIP3    H137855   5.335   2.807   1.541 -0.2597  0.0232 -0.4147
 5480TIP3    H237856   5.313   2.957   1.553  0.6293  0.1780 -0.6726
 5481TIP3   OH237857   6.726   6.553  11.598 -0.2319  0.3729 -0.2608
 5481TIP3    H137858   6.821   6.538  11.604 -0.2168  0.6981  0.3122
 5481TIP3    H237859   6.693   6.475  11.552  0.3661  0.4512 -0.8453
 5482TIP3   OH237860   6.270   0.869   4.942 -0.4071  0.1827 -0.2840
 5482TIP3    H137861   6.180   0.845   4.963  0.0560 -0.3647  1.1194
 5482TIP3    H237862   6.308   0.789   4.904 -0.0724 -0.0673  0.5594
 5483TIP3   OH237863   1.876   0.606   2.646  0.2356  0.1313 -0.0909
 5483TIP3    H137864   1.823   0.686   2.647 -0.9190 -0.6263  0.8218
 5483TIP3    H237865   1.953   0.630   2.595  0.5085  2.2139  1.2252
 5484TIP3   OH237866   6.144   3.086  11.670  0.0011 -0.5136 -0.4872
 5484TIP3    H137867   6.201   3.137  11.729  0.6521 -1.2535 -0.4742
 5484TIP3    H237868   6.194   3.079  11.589 -1.0807  0.8847 -1.2999
 5485TIP3   OH237869   5.042   5.732   4.796  0.5027  0.1103 -0.3105
 5485TIP3    H137870   5.058   5.654   4.849 -1.4925 -0.1555 -0.0542
 5485TIP3    H237871   5.110   5.793   4.822 -0.5050  0.0358  2.7227
 5486TIP3   OH237872   2.985   5.233  13.108  0.7257  0.2647 -0.1967
 5486TIP3    H137873   3.019   5.291  13.176 -0.7716 -1.0352  1.7280
 5486TIP3    H237874   2.903   5.275  13.080  0.5549 -0.0061 -0.1004
 5487TIP3   OH237875   0.588   4.031   0.826  0.3904 -0.0848  0.4342
 5487TIP3    H137876   0.611   3.995   0.740 -1.2988  2.3514 -1.0940
 5487TIP3    H237877   0.651   4.101   0.840  0.2908 -0.0917  0.9070
 5488TIP3   OH237878   5.891   0.551  13.117 -0.4610 -0.1055  0.3995
 5488TIP3    H137879   5.831   0.536  13.190 -0.4039  1.0784  0.7117
 5488TIP3    H237880   5.843   0.611  13.059 -0.1929 -0.3987 -0.1325
 5489TIP3   OH237881   1.591   0.000  15.824 -0.2892 -0.7101  0.1663
 5489TIP3    H137882   1.602  -0.052  15.745  0.0633 -0.4604  0.0494
 5489TIP3    H237883   1.618   0.089  15.798 -0.6724 -0.5169  0.4200
 5490TIP3   OH237884   3.377   4.111  14.266 -0.1729  0.0452 -0.3903
 5490TIP3    H137885   3.329   4.104  14.183 -0.6309 -1.1577 -0.0474
 5490TIP3    H237886   3.423   4.194  14.260 -0.8549  0.3657 -1.5087
 5491TIP3   OH237887   0.589   2.200   4.425  0.5114 -0.2640  0.0908
 5491TIP3    H137888   0.505   2.245   4.411  0.8168  0.3699  0.2873
 5491TIP3    H237889   0.603   2.151   4.344  0.6885  0.8263 -0.5423
 5492TIP3   OH237890   0.856   1.023   5.195  0.1686 -0.5760 -0.0939
 5492TIP3    H137891   0.882   1.034   5.103  0.7782 -0.8601  0.0402
 5492TIP3    H237892   0.905   1.090   5.242  1.7185 -2.0029  0.3440
 5493TIP3   OH237893   1.902   5.311  11.834  0.1441  0.1647 -0.1465
 5493TIP3    H137894   1.890   5.371  11.907  1.5723  0.1011  0.1551
 5493TIP3    H237895   1.925   5.367  11.760 -0.1393  0.1245 -0.2656
 5494TIP3   OH237896   2.342   4.749   5.928 -0.2151 -0.4290 -0.1775
 5494TIP3    H137897   2.316   4.806   5.855 -1.4465 -2.0259 -0.9979
 5494TIP3    H237898   2.331   4.804   6.006 -1.5437  0.4074 -0.9382
 5495TIP3   OH237899   3.422   1.326   3.302 -0.3619  0.3093  0.5918
 5495TIP3    H137900   3.387   1.274   3.230  0.2013  1.8041 -0.7763
 5495TIP3    H237901   3.498   1.276   3.333 -0.5661 -0.2955  0.1221
 5496TIP3   OH237902   1.626   1.823  15.845  0.5666  0.6285  0.6555
 5496TIP3    H137903   1.720   1.819  15.859  0.4396  2.7415  2.4232
 5496TIP3    H237904   1.589   1.763  15.909  0.7410 -0.8701 -0.6310
 5497TIP3   OH237905   0.206   6.600   3.788 -0.6015  0.2150 -0.2138
 5497TIP3    H137906   0.118   6.618   3.754 -0.9367 -0.5946  0.1961
 5497TIP3    H237907   0.248   6.547   3.721 -1.4462 -1.8254  0.8175
 5498TIP3   OH237908   0.595   4.562  12.709 -0.2043 -0.2943  0.1889
 5498TIP3    H137909   0.554   4.528  12.629 -0.2830 -1.4847  0.7336
 5498TIP3    H237910   0.537   4.634  12.736 -1.4370 -1.3680  0.4431
 5499TIP3   OH237911   3.210   1.849   5.877  0.0773  0.1291 -0.2394
 5499TIP3    H137912   3.290   1.866   5.927 -0.0304 -0.2006  0.0448
 5499TIP3    H237913   3.144   1.828   5.943 -0.9450  3.0066 -0.2610
 5500TIP3   OH237914   4.896   1.689  13.555  0.0721 -0.4765  0.4178
 5500TIP3    H137915   4.908   1.740  13.475  0.9297 -1.0424  0.1812
 5500TIP3    H237916   4.828   1.626  13.532 -2.0316  1.4597  1.1531
 5501TIP3   OH237917   0.566   1.134   4.492  0.4177 -0.0629  0.3391
 5501TIP3    H137918   0.579   1.039   4.494 -1.6562 -0.3875 -0.6787
 5501TIP3    H237919   0.517   1.150   4.412  2.2561  2.1020 -0.4038
 5502TIP3   OH237920   0.436   1.575   6.034 -0.7040  0.6023  0.1931
 5502TIP3    H137921   0.473   1.656   6.068  0.8688 -0.5479  1.2473
 5502TIP3    H237922   0.432   1.589   5.939 -0.0308  1.7323  0.3188
 5503TIP3   OH237923   4.045   4.566  12.020  0.0964  0.1504 -0.2979
 5503TIP3    H137924   3.959   4.546  11.982 -0.4367  1.0306  0.4317
 5503TIP3    H237925   4.049   4.662  12.021  1.0998  0.1128 -0.3448
 5504TIP3   OH237926   1.029   3.409  17.028  0.0727 -0.0224 -0.0956
 5504TIP3    H137927   1.031   3.426  16.934  2.3898 -0.2588 -0.1008
 5504TIP3    H237928   1.119   3.421  17.057 -1.2127  4.0311  2.8077
 5505TIP3   OH237929   0.649   4.728   3.653 -0.2945  0.2992  0.0735
 5505TIP3    H137930   0.731   4.715   3.604 -0.2093  0.6811  0.1079
 5505TIP3    H237931   0.587   4.760   3.587 -0.0877  1.1376  0.2682
 5506TIP3   OH237932   1.045   2.529   0.447 -0.0298 -0.0625  0.0074
 5506TIP3    H137933   1.060   2.592   0.518 -1.5378  0.7793 -0.4093
 5506TIP3    H237934   1.046   2.581   0.367  3.2962 -1.2382 -0.8087
 5507TIP3   OH237935   2.236   6.624  16.984 -0.6309  0.0989 -0.1030
 5507TIP3    H137936   2.243   6.571  16.905 -1.0214 -2.5922  1.5779
 5507TIP3    H237937   2.154   6.672  16.974  0.4359  1.5237 -2.3019
 5508TIP3   OH237938   6.224   2.614  16.190  1.4710 -0.6478 -0.1871
 5508TIP3    H137939   6.138   2.649  16.214  1.7488  0.4921 -0.8332
 5508TIP3    H237940   6.287   2.667  16.238  1.7967 -1.9847  0.8908
 5509TIP3   OH237941   1.941   6.480  15.509  0.1353  0.1954 -0.3784
 5509TIP3    H137942   1.881   6.477  15.583 -0.7420 -1.1203 -1.1215
 5509TIP3    H237943   1.971   6.571  15.506 -1.1745  0.6716  0.5113
 5510TIP3   OH237944   2.370   6.572  14.108 -0.2648  0.3210 -0.2663
 5510TIP3    H137945   2.424   6.619  14.172  0.3383 -0.0835 -0.4714
 5510TIP3    H237946   2.412   6.588  14.024 -0.6322  0.2417 -0.4665
 5511TIP3   OH237947   5.589   6.373   5.742  0.2145  0.0959 -0.0689
 5511TIP3    H137948   5.550   6.456   5.769 -0.1522  0.0992 -0.6043
 5511TIP3    H237949   5.673   6.398   5.703 -0.8627  0.4322 -2.2393
 5512TIP3   OH237950   4.435   0.424  16.188  0.1805 -0.4123  0.0421
 5512TIP3    H137951   4.528   0.444  16.200  0.2839 -1.1329  0.5471
 5512TIP3    H237952   4.433   0.364  16.113  0.0882 -0.1053 -0.1998
 5513TIP3   OH237953   4.556   3.606  16.375  0.4449 -0.0630  0.0722
 5513TIP3    H137954   4.626   3.572  16.431  0.8179 -1.1177 -1.0194
 5513TIP3    H237955   4.554   3.547  16.300 -2.4267 -0.7256  0.6458
 5514TIP3   OH237956   3.223   2.651  13.208 -0.3742  0.3454 -0.4240
 5514TIP3    H137957   3.286   2.708  13.252  0.2815  1.0234 -2.1885
 5514TIP3    H237958   3.265   2.628  13.125 -2.0906  0.1119 -1.2586
 5515TIP3   OH237959   0.563   4.864   5.179 -0.2292  0.3820  0.1351
 5515TIP3    H137960   0.500   4.799   5.209 -1.8503  2.1981  0.8209
 5515TIP3    H237961   0.542   4.943   5.230 -0.4272  2.3819 -2.9036
 5516TIP3   OH237962   4.298   2.814  16.271 -0.3301  0.5080 -0.3393
 5516TIP3    H137963   4.348   2.892  16.297 -2.2450  1.1526  1.6660
 5516TIP3    H237964   4.217   2.849  16.235 -1.5406 -0.5361  1.2987
 5517TIP3   OH237965   5.087   6.237  10.862  0.2929  0.3547  0.1338
 5517TIP3    H137966   5.014   6.200  10.912 -0.7673  0.0687 -1.5862
 5517TIP3    H237967   5.158   6.174  10.874 -0.7105 -0.9666 -0.6745
 5518TIP3   OH237968   0.130   6.491   5.654  0.5033 -0.0393  0.3344
 5518TIP3    H137969   0.216   6.492   5.696  0.8808  1.7147 -0.4402
 5518TIP3    H237970   0.077   6.550   5.708 -0.4458 -1.6860  1.2398
 5519TIP3   OH237971   6.053   4.319  15.873 -0.5372 -0.0006  0.0861
 5519TIP3    H137972   6.043   4.408  15.906 -0.4484 -0.0579  0.2711
 5519TIP3    H237973   6.099   4.272  15.943  0.9675  0.2410 -0.7117
 5520TIP3   OH237974   3.356   1.720  12.662 -0.2659  0.0489 -0.2265
 5520TIP3    H137975   3.352   1.812  12.635 -1.7703 -0.6123 -2.3360
 5520TIP3    H237976   3.279   1.708  12.717  0.5762  0.3232  1.0499
 5521TIP3   OH237977   3.868   4.122   1.150  0.4796  0.4744  0.4842
 5521TIP3    H137978   3.880   4.216   1.164 -0.5808  0.6551  0.2397
 5521TIP3    H237979   3.949   4.082   1.182  1.9854  1.6608 -1.7623
 5522TIP3   OH237980   5.325   5.169   4.564  0.2126  0.0125  0.4504
 5522TIP3    H137981   5.234   5.183   4.589 -0.0404  0.3016 -0.6253
 5522TIP3    H237982   5.366   5.255   4.573  0.1181  0.1213 -0.1029
 5523TIP3   OH237983   3.471   1.027  15.550 -0.0822 -0.3016 -1.0320
 5523TIP3    H137984   3.430   0.970  15.485 -0.2473 -0.0950 -1.1119
 5523TIP3    H237985   3.542   1.070  15.502  0.0359 -0.4328 -0.9740
 5524TIP3   OH237986   3.347   6.086  10.796 -0.1368  0.0463  0.0641
 5524TIP3    H137987   3.424   6.082  10.740  0.2429 -0.1088  0.5901
 5524TIP3    H237988   3.348   6.003  10.844 -0.5746  0.0871  0.1388
 5525TIP3   OH237989   1.276   4.419  14.992 -0.2586  0.3321 -0.3310
 5525TIP3    H137990   1.292   4.408  15.086  2.9971 -0.3659 -0.9314
 5525TIP3    H237991   1.316   4.502  14.970  0.1985 -0.1498 -1.3673
 5526TIP3   OH237992   2.933   6.691  10.813  0.2652  0.4118  0.0643
 5526TIP3    H137993   3.028   6.696  10.813  0.2285  1.3183 -1.7841
 5526TIP3    H237994   2.910   6.653  10.728 -1.0373  0.2962  0.4462
 5527TIP3   OH237995   3.023   0.897   2.093 -0.5001  0.1775 -0.3896
 5527TIP3    H137996   2.986   0.924   2.009 -2.5404  0.9298  0.7223
 5527TIP3    H237997   3.016   0.802   2.093 -2.4764  0.3043 -0.1953
 5528TIP3   OH237998   0.754   0.112  14.311 -0.3724  0.6269 -0.1859
 5528TIP3    H137999   0.662   0.135  14.298 -1.1596 -2.3066 -0.1557
 5528TIP3    H238000   0.780   0.072  14.227 -0.1186 -1.5769  0.9115
 5529TIP3   OH238001   0.491   0.549  12.752  0.5469 -0.0848 -0.2709
 5529TIP3    H138002   0.434   0.484  12.712 -2.1592  1.0949  1.4837
 5529TIP3    H238003   0.538   0.589  12.679 -1.7275 -0.3345 -1.9080
 5530TIP3   OH238004   0.126   5.214   4.172  0.4986  0.1210 -0.2843
 5530TIP3    H138005   0.052   5.154   4.182  0.4543  0.1010 -0.7099
 5530TIP3    H238006   0.098   5.276   4.105  0.7866  0.2359 -0.2993
 5531TIP3   OH238007   1.399   3.856  10.801 -0.2325 -0.1059 -0.0749
 5531TIP3    H138008   1.378   3.768  10.831 -1.2358 -0.3856 -1.5332
 5531TIP3    H238009   1.358   3.862  10.714 -1.2910  2.2255  0.5395
 5532TIP3   OH238010   5.006   0.403  12.929 -0.6823 -0.0145 -0.2144
 5532TIP3    H138011   5.033   0.455  13.005 -0.0383  1.1216 -1.2106
 5532TIP3    H238012   5.087   0.387  12.880 -1.4338  1.4507 -2.0013
 5533TIP3   OH238013   2.904   0.477  14.819 -0.2422 -0.7336 -0.1621
 5533TIP3    H138014   2.834   0.528  14.862 -0.3716 -1.4110  0.4473
 5533TIP3    H238015   2.858   0.403  14.779 -0.0583 -0.3610 -1.0664
 5534TIP3   OH238016   5.064   1.286  11.176  0.1012  0.2436  0.0083
 5534TIP3    H138017   5.131   1.238  11.128 -0.0826 -1.5302  1.4526
 5534TIP3    H238018   5.111   1.357  11.219  0.8862 -0.3760  0.1842
 5535TIP3   OH238019   3.652   1.635   0.715 -0.2316 -0.6651  0.6099
 5535TIP3    H138020   3.630   1.562   0.773 -0.3527 -1.9106 -0.9651
 5535TIP3    H238021   3.609   1.711   0.754 -0.3191 -1.4784  2.1291
 5536TIP3   OH238022   1.857   3.562   3.873  0.3467 -0.2895 -0.2874
 5536TIP3    H138023   1.766   3.561   3.843  0.5927 -1.0230 -1.0508
 5536TIP3    H238024   1.906   3.590   3.796  0.7108  0.6816  0.2972
 5537TIP3   OH238025   4.252   0.426  14.169 -0.0076  0.5415  0.0866
 5537TIP3    H138026   4.216   0.355  14.223  0.9478 -0.1364 -0.1459
 5537TIP3    H238027   4.177   0.459  14.120 -0.3345 -0.8399 -0.3818
 5538TIP3   OH238028   1.954   3.780  12.259  0.1851 -0.0881 -0.1872
 5538TIP3    H138029   2.002   3.699  12.240  1.0095  0.3649 -0.0461
 5538TIP3    H238030   1.905   3.760  12.339  1.1834 -0.1181  0.4266
 5539TIP3   OH238031   4.087   0.838  16.708 -0.0913  0.1100 -0.2709
 5539TIP3    H138032   4.000   0.797  16.701 -0.4544  0.8250 -0.0430
 5539TIP3    H238033   4.091   0.898  16.633  0.5996 -0.6452 -0.8363
 5540TIP3   OH238034   3.136   4.203   3.484  0.1264  0.1505 -0.2037
 5540TIP3    H138035   3.147   4.172   3.395 -0.7847 -0.1872 -0.2038
 5540TIP3    H238036   3.054   4.252   3.482  0.7505  1.2328  0.1530
 5541TIP3   OH238037   5.851   2.540   6.554 -0.2256  0.3539  0.3079
 5541TIP3    H138038   5.777   2.568   6.609 -0.8214 -1.5560  0.5152
 5541TIP3    H238039   5.928   2.551   6.609 -0.6415  0.0189  0.9599
 5542TIP3   OH238040   6.172   6.765   4.276  0.2118  0.3302 -0.0670
 5542TIP3    H138041   6.099   6.785   4.335 -0.6670 -2.5357 -0.1264
 5542TIP3    H238042   6.238   6.831   4.297 -1.1713  1.0528  2.2021
 5543TIP3   OH238043   1.879   5.828   0.175  0.7483  0.1418 -0.1481
 5543TIP3    H138044   1.952   5.862   0.125  0.6487  0.1223 -0.3050
 5543TIP3    H238045   1.808   5.817   0.112  0.3365  0.9733  0.1581
 5544TIP3   OH238046   6.448   3.440  12.986  0.0969 -0.4964  0.2878
 5544TIP3    H138047   6.383   3.427  12.917 -0.0863  1.1469  0.1364
 5544TIP3    H238048   6.482   3.528  12.972  0.4051 -0.3152  2.0053
 5545TIP3   OH238049   4.039   3.015   1.663 -0.1677  0.5228  0.6182
 5545TIP3    H138050   4.099   2.954   1.618 -1.0875 -0.5975  0.8755
 5545TIP3    H238051   4.083   3.035   1.746 -1.5318 -2.7930  2.2300
 5546TIP3   OH238052   5.106   1.513   5.057 -0.2275 -0.1053  0.3572
 5546TIP3    H138053   5.193   1.542   5.030 -1.5266  2.3902 -1.2617
 5546TIP3    H238054   5.119   1.421   5.082  2.4717 -0.3512 -1.6954
 5547TIP3   OH238055   5.760   4.084  15.942 -0.4021 -0.5950 -0.3761
 5547TIP3    H138056   5.777   4.175  15.967  0.9936 -1.3534  1.4960
 5547TIP3    H238057   5.816   4.069  15.866 -0.1550 -0.0914 -0.2992
 5548TIP3   OH238058   4.884   3.249   4.105 -0.2543 -0.3831  0.1952
 5548TIP3    H138059   4.810   3.210   4.060 -0.7133 -0.6272  1.1491
 5548TIP3    H238060   4.852   3.335   4.135 -0.4942 -0.9091  1.4944
 5549TIP3   OH238061   2.903   2.976  11.614 -0.3917 -0.0938  0.3384
 5549TIP3    H138062   2.835   3.039  11.638 -0.4224  0.6389 -1.5725
 5549TIP3    H238063   2.907   2.981  11.518 -0.6723 -3.3085  0.1242
 5550TIP3   OH238064   2.777   5.998  16.504 -0.0771 -0.5341 -0.4016
 5550TIP3    H138065   2.777   6.066  16.572 -0.8911 -0.7354 -0.1987
 5550TIP3    H238066   2.848   5.939  16.530  1.1407  0.6411 -0.9973
 5551TIP3   OH238067   5.343   6.382   0.165 -0.0764  0.0033  0.0877
 5551TIP3    H138068   5.253   6.360   0.193  0.5201 -1.6637  0.7903
 5551TIP3    H238069   5.398   6.325   0.219  1.3296 -0.0457 -1.3957
 5552TIP3   OH238070   2.792   4.682  14.619  0.2283 -0.1384  0.7348
 5552TIP3    H138071   2.726   4.692  14.551  0.1911 -0.9222  0.6570
 5552TIP3    H238072   2.804   4.771  14.653 -1.3807 -0.0856  1.2371
 5553TIP3   OH238073   4.688   3.307  13.333  0.0380  0.0923  0.0797
 5553TIP3    H138074   4.691   3.380  13.271  0.1224 -0.1921 -0.2545
 5553TIP3    H238075   4.778   3.297  13.364 -0.3847  1.5997  1.8565
 5554TIP3   OH238076   1.320   0.440   1.566  0.5797 -0.3710 -0.6543
 5554TIP3    H138077   1.263   0.401   1.499  0.2336  0.4820 -0.8680
 5554TIP3    H238078   1.407   0.409   1.544  0.3864 -0.5735 -1.1560
 5555TIP3   OH238079   3.229   2.053   5.366 -0.5449 -0.1173  0.1409
 5555TIP3    H138080   3.154   2.008   5.404 -0.6405  0.3441  0.4991
 5555TIP3    H238081   3.197   2.090   5.284  0.0140 -2.2820 -1.0962
 5556TIP3   OH238082   4.129   0.716   1.653 -0.2734 -0.0621 -0.3543
 5556TIP3    H138083   4.073   0.707   1.576  0.4751  0.0567 -0.9172
 5556TIP3    H238084   4.098   0.796   1.696 -0.9818 -0.3714 -0.2883
 5557TIP3   OH238085   0.652   5.309  15.996  0.0804  0.3122  0.1532
 5557TIP3    H138086   0.736   5.335  15.957 -0.9151  0.8687 -1.6808
 5557TIP3    H238087   0.668   5.223  16.033  1.1179 -0.1894 -1.3968
 5558TIP3   OH238088   5.171   4.062  15.740  0.0676 -0.5296  0.3345
 5558TIP3    H138089   5.189   4.090  15.651  0.2373  1.6113  0.9983
 5558TIP3    H238090   5.077   4.043  15.741  0.0166 -0.3050 -0.2437
 5559TIP3   OH238091   5.649   0.888  15.235 -0.5226  0.2608 -0.1467
 5559TIP3    H138092   5.730   0.910  15.280 -0.1768 -0.8113 -0.2287
 5559TIP3    H238093   5.641   0.954  15.166  0.9833 -0.4104 -0.9891
 5560TIP3   OH238094   5.763   1.769   2.301 -0.2242  0.1510  0.1529
 5560TIP3    H138095   5.696   1.775   2.233 -2.8034 -1.9278  2.3745
 5560TIP3    H238096   5.740   1.836   2.365  1.7060  1.5561 -0.5997
 5561TIP3   OH238097   5.985   1.833  11.527 -0.3980 -0.2222 -0.2825
 5561TIP3    H138098   5.946   1.913  11.562 -2.9967 -1.5189 -0.1456
 5561TIP3    H238099   6.019   1.858  11.441 -0.7961  1.1208 -0.0577
 5562TIP3   OH238100   1.713   3.756  12.018  0.6322  1.1247  0.6575
 5562TIP3    H138101   1.691   3.847  11.999  0.3613  1.1315  0.9865
 5562TIP3    H238102   1.642   3.726  12.076 -0.8594 -0.1622 -1.7584
 5563TIP3   OH238103   6.725   1.049  13.944  0.6663 -0.6535  0.1412
 5563TIP3    H138104   6.744   1.132  13.901  1.6372 -0.7353  0.4124
 5563TIP3    H238105   6.805   0.998  13.935  1.0176 -0.5230  2.3843
 5564TIP3   OH238106   1.723   3.312   4.964  0.1402  0.0527  0.0206
 5564TIP3    H138107   1.665   3.321   4.889  0.3888  0.3931 -0.1325
 5564TIP3    H238108   1.706   3.389   5.018 -0.1865 -0.2965  0.4177
 5565TIP3   OH238109   6.069   4.756   3.311 -0.0915  0.1030  0.0478
 5565TIP3    H138110   6.087   4.663   3.327  0.9561 -0.0131 -1.6096
 5565TIP3    H238111   6.137   4.783   3.249 -0.1108  2.1006  0.8581
 5566TIP3   OH238112   3.392   2.441   2.064 -0.1224 -0.7385  0.3094
 5566TIP3    H138113   3.373   2.525   2.106  0.2924  0.0426 -1.0474
 5566TIP3    H238114   3.475   2.455   2.019 -0.7005 -1.4595 -1.0238
 5567TIP3   OH238115   1.436   6.007   0.034  0.4401  0.8717  0.2821
 5567TIP3    H138116   1.354   5.977  -0.006  0.7692 -0.2667  0.4403
 5567TIP3    H238117   1.430   6.103   0.033 -0.8401  0.7992  0.1782
 5568TIP3   OH238118   0.469   5.431  15.813 -0.3054 -0.2065 -0.1228
 5568TIP3    H138119   0.539   5.409  15.875  0.4030 -1.0963 -1.2190
 5568TIP3    H238120   0.398   5.370  15.835 -1.1313  1.3195  1.6080
 5569TIP3   OH238121   6.322   1.666   0.851 -0.0412 -0.7756 -0.1858
 5569TIP3    H138122   6.300   1.705   0.766  0.6123  1.0686  0.4495
 5569TIP3    H238123   6.262   1.592   0.861  0.1399 -1.2465 -2.4167
 5570TIP3   OH238124   5.161   4.474  15.800  0.1448  0.6465  0.0673
 5570TIP3    H138125   5.087   4.482  15.739  0.3735 -2.0709 -0.6356
 5570TIP3    H238126   5.140   4.396  15.851  4.2420 -2.4593 -2.6672
 5571TIP3   OH238127   3.021   2.401  11.812  0.3967  0.0552 -0.8097
 5571TIP3    H138128   2.940   2.394  11.862  0.5388 -1.5449 -0.7669
 5571TIP3    H238129   3.013   2.484  11.764  0.1033  1.4286  1.5387
 5572TIP3   OH238130   4.277   5.063   0.594 -0.6012 -0.0040  0.5297
 5572TIP3    H138131   4.368   5.081   0.572 -1.0576  0.9575 -0.6659
 5572TIP3    H238132   4.274   4.969   0.612  0.8124  0.1398  1.5965
 5573TIP3   OH238133   6.552   2.075   3.778 -0.2121  0.5313  0.1200
 5573TIP3    H138134   6.577   2.128   3.853  1.0206  1.9429 -1.2436
 5573TIP3    H238135   6.457   2.085   3.772 -0.5980 -1.3009  2.7131
 5574TIP3   OH238136   0.378   4.850   3.726 -0.0295 -0.3585  0.3939
 5574TIP3    H138137   0.435   4.923   3.704  1.1432 -1.4535 -0.3080
 5574TIP3    H238138   0.425   4.804   3.796  0.0200 -1.3243 -0.2613
 5575TIP3   OH238139   0.168   5.710   4.795  0.1582 -0.2103 -0.0034
 5575TIP3    H138140   0.190   5.790   4.748  0.0790  0.5259  1.1905
 5575TIP3    H238141   0.082   5.685   4.762  1.6025 -1.6508 -2.7942
 5576TIP3   OH238142   3.108   2.925  11.835 -0.2269  0.2741  0.4219
 5576TIP3    H138143   3.032   2.955  11.785  0.3414  0.9443 -0.0487
 5576TIP3    H238144   3.107   2.979  11.914  0.0351  0.6318  0.1861
 5577TIP3   OH238145   3.979   0.014  12.193  0.1457 -0.0057  0.0966
 5577TIP3    H138146   4.014  -0.073  12.174 -1.8605 -0.4704 -1.6739
 5577TIP3    H238147   4.003   0.031  12.284  0.5679 -2.4041  0.4439
 5578TIP3   OH238148   2.974   2.413   1.155  0.2126  0.2789  0.0250
 5578TIP3    H138149   2.931   2.370   1.229  2.2249 -0.9440  0.5224
 5578TIP3    H238150   2.999   2.500   1.188 -0.4454  0.3969  0.2175
 5579TIP3   OH238151   1.355   1.494  15.063  0.6018 -0.3053 -0.1102
 5579TIP3    H138152   1.399   1.462  15.142 -2.4537 -1.3332  1.2559
 5579TIP3    H238153   1.370   1.426  14.997 -0.2017 -1.3907  0.8072
 5580TIP3   OH238154   3.424   6.772   4.722 -0.0695  0.3244  0.0503
 5580TIP3    H138155   3.365   6.711   4.765 -0.3095  0.8143  0.4240
 5580TIP3    H238156   3.390   6.859   4.744 -0.5630  0.5864 -1.6248
 5581TIP3   OH238157   0.517   3.479  11.915 -0.4460 -0.4166  0.2318
 5581TIP3    H138158   0.435   3.429  11.910 -1.8543  1.7706  0.6928
 5581TIP3    H238159   0.521   3.507  12.007  0.9918 -0.7608  0.2815
 5582TIP3   OH238160   6.444   4.724   2.194  0.0320  0.2424  0.6515
 5582TIP3    H138161   6.538   4.718   2.176  0.2984  0.5943  1.8373
 5582TIP3    H238162   6.440   4.763   2.282 -1.1693 -1.2824  1.2953
 5583TIP3   OH238163   1.845   0.851   1.776 -0.0110 -0.4764 -0.2582
 5583TIP3    H138164   1.780   0.921   1.769 -0.9777 -1.3925 -0.6216
 5583TIP3    H238165   1.886   0.865   1.861  0.3131  0.9577 -0.6366
 5584TIP3   OH238166   5.848   6.217   0.527  0.5762  0.0455 -0.2026
 5584TIP3    H138167   5.839   6.305   0.564  1.3443  0.3425 -0.6964
 5584TIP3    H238168   5.939   6.214   0.497  0.5883 -0.9684 -0.0670
 5585TIP3   OH238169   6.251   5.301  10.712 -0.3967  0.4514  0.5849
 5585TIP3    H138170   6.212   5.385  10.685 -0.5623  0.4608  0.8450
 5585TIP3    H238171   6.327   5.326  10.764  1.2581  0.4240 -1.7677
 5586TIP3   OH238172   5.045   2.995  16.288 -0.3047  0.3183  0.5715
 5586TIP3    H138173   5.093   2.914  16.303 -0.2287  0.4538  1.0700
 5586TIP3    H238174   5.053   3.043  16.370 -2.2043 -0.1189  1.0565
 5587TIP3   OH238175   1.286   2.776  12.298 -0.1901  0.1856  0.0564
 5587TIP3    H138176   1.348   2.722  12.250  0.2879  2.0762 -1.5382
 5587TIP3    H238177   1.200   2.741  12.275 -0.0096  1.4857 -2.8262
 5588TIP3   OH238178   2.355   4.028  16.221  0.0295  0.1931 -0.8387
 5588TIP3    H138179   2.379   3.957  16.162  0.5844 -0.0557 -0.3242
 5588TIP3    H238180   2.439   4.066  16.248 -0.3012  1.7037 -1.9115
 5589TIP3   OH238181   5.466   5.448  15.255 -0.0047 -0.3350  0.0332
 5589TIP3    H138182   5.406   5.429  15.327 -0.1222  0.6866  0.2180
 5589TIP3    H238183   5.415   5.429  15.176 -0.2926 -0.2744  0.2040
 5590TIP3   OH238184   4.790   2.733   5.959 -0.0541  0.0748 -0.6926
 5590TIP3    H138185   4.882   2.732   5.930  0.5468 -1.1185  1.1756
 5590TIP3    H238186   4.769   2.826   5.966  1.2490  0.3690 -0.4194
 5591TIP3   OH238187   1.575   1.566  13.502 -0.7669 -0.2115  0.9223
 5591TIP3    H138188   1.577   1.662  13.506  0.7322 -0.1259 -1.1932
 5591TIP3    H238189   1.667   1.540  13.508 -0.6818 -1.2233 -3.4105
 5592TIP3   OH238190   6.147   5.093   3.704 -0.5511  0.0515  0.4446
 5592TIP3    H138191   6.096   5.108   3.783  0.1857 -1.5120  1.2632
 5592TIP3    H238192   6.090   5.040   3.648 -1.8761  2.9465 -1.0051
 5593TIP3   OH238193   0.124   1.057   4.567  0.3514  0.0802 -0.5091
 5593TIP3    H138194   0.040   1.024   4.536  0.5888  1.0623 -2.2761
 5593TIP3    H238195   0.139   1.137   4.516  1.2235  1.2461  1.5062
 5594TIP3   OH238196   6.208   6.624   1.433  0.3277 -0.4341 -1.0899
 5594TIP3    H138197   6.129   6.623   1.488 -0.0791 -0.0760 -1.6627
 5594TIP3    H238198   6.176   6.645   1.346  1.2130  1.1474 -1.0651
 5595TIP3   OH238199   3.918   3.474  12.397  0.0440 -0.2769 -0.0241
 5595TIP3    H138200   3.926   3.441  12.307  2.4290 -0.3698  0.2007
 5595TIP3    H238201   3.915   3.396  12.452  0.5746 -0.2098  0.1089
 5596TIP3   OH238202   5.348   3.490   4.308  0.2966 -0.0587 -0.3389
 5596TIP3    H138203   5.309   3.556   4.251  0.1711 -0.0498 -0.2418
 5596TIP3    H238204   5.339   3.408   4.259 -0.6206 -0.1938  0.0584
 5597TIP3   OH238205   0.402   2.664  13.526 -0.4850 -0.0726 -0.0243
 5597TIP3    H138206   0.358   2.626  13.449  1.6027  1.0393 -1.8219
 5597TIP3    H238207   0.480   2.611  13.537  0.1844  0.9478  0.1682
 5598TIP3   OH238208   1.391   5.553  13.609 -0.4862  0.5104  0.2333
 5598TIP3    H138209   1.342   5.542  13.527  0.9647 -0.4077 -0.5354
 5598TIP3    H238210   1.423   5.643  13.607  1.9759 -0.3538 -1.6175
 5599TIP3   OH238211   2.707   0.795   2.339  0.2254  0.2711 -0.4255
 5599TIP3    H138212   2.664   0.800   2.253  0.4345  0.4382 -0.5218
 5599TIP3    H238213   2.683   0.709   2.372  0.5625  0.0014 -0.8773
 5600TIP3   OH238214   2.318   4.783  13.211  0.3790  0.6675  0.5377
 5600TIP3    H138215   2.227   4.753  13.220  0.7126 -0.2283  1.0188
 5600TIP3    H238216   2.354   4.731  13.140  0.7012  0.5636  0.7739
 5601TIP3   OH238217   0.417   4.619  14.872  0.6600 -0.4701 -0.8354
 5601TIP3    H138218   0.461   4.567  14.939  1.5149 -0.6096 -1.4957
 5601TIP3    H238219   0.324   4.606  14.889  0.8298  1.6134  1.9686
 5602TIP3   OH238220   4.861   1.227  12.683 -0.5998 -0.0910 -0.5286
 5602TIP3    H138221   4.857   1.265  12.595 -0.7773  1.2728  0.0480
 5602TIP3    H238222   4.805   1.149  12.678 -0.8369  0.1345 -1.5447
 5603TIP3   OH238223   2.724   2.199  12.852  0.0990  0.2165  0.3131
 5603TIP3    H138224   2.775   2.140  12.797 -0.2195  0.0642  0.1779
 5603TIP3    H238225   2.643   2.150  12.870  0.3181  0.1560  1.1425
 5604TIP3   OH238226   4.138   4.879  11.808 -0.2327 -0.5502  0.6034
 5604TIP3    H138227   4.150   4.785  11.793  0.5138 -0.7191  2.2028
 5604TIP3    H238228   4.227   4.915  11.810 -0.5151  0.2161 -0.0555
 5605TIP3   OH238229   2.403   3.035   4.898 -0.4918  0.0905  0.0097
 5605TIP3    H138230   2.477   3.017   4.956 -0.5105  0.0763  0.0295
 5605TIP3    H238231   2.328   3.043   4.958 -0.4344  0.5206  0.0259
 5606TIP3   OH238232   3.502   1.220   2.367 -0.1446  0.1951 -0.6680
 5606TIP3    H138233   3.411   1.236   2.343  0.0750  2.2876 -0.1625
 5606TIP3    H238234   3.539   1.307   2.381  1.3853 -0.7126  1.1330
 5607TIP3   OH238235   4.975   5.304  11.617 -0.0774  0.6833 -0.1398
 5607TIP3    H138236   5.028   5.384  11.620 -0.0042  0.9343 -4.5073
 5607TIP3    H238237   5.038   5.235  11.594 -0.7542  0.0127  0.0118
 5608TIP3   OH238238   2.025   0.954   3.370  0.0465  0.1202  0.3551
 5608TIP3    H138239   1.968   0.949   3.293 -2.6070  0.1377  2.2395
 5608TIP3    H238240   2.082   0.879   3.362  1.7352  1.6491 -3.0491
 5609TIP3   OH238241   2.390   6.627   1.424 -0.1971  0.3494  0.0574
 5609TIP3    H138242   2.438   6.648   1.504 -1.3059 -0.5180  0.9826
 5609TIP3    H238243   2.309   6.677   1.431 -0.3692  0.1481 -0.4516
 5610TIP3   OH238244   4.266   1.518   6.448 -0.2848 -0.4638  0.3097
 5610TIP3    H138245   4.220   1.434   6.459 -2.0799  0.4721  0.2218
 5610TIP3    H238246   4.212   1.566   6.385  0.6502  0.8226  0.4778
 5611TIP3   OH238247   0.527   5.479  10.626 -0.1756  0.2754  0.1499
 5611TIP3    H138248   0.607   5.461  10.576 -0.9256  1.1516 -1.4075
 5611TIP3    H238249   0.457   5.479  10.560 -1.3520  0.2797  1.3779
 5612TIP3   OH238250   2.159   1.717  13.338  0.1228  0.1865  0.1177
 5612TIP3    H138251   2.210   1.674  13.270  0.6958 -1.2056  1.4002
 5612TIP3    H238252   2.072   1.729  13.299  1.0383  1.3988 -1.6180
 5613TIP3   OH238253   3.887   2.985  16.967  0.1692  0.0453 -0.2611
 5613TIP3    H138254   3.841   3.064  16.993  0.2327  0.3822 -1.1553
 5613TIP3    H238255   3.829   2.913  16.994  0.3380  0.3778  0.9753
 5614TIP3   OH238256   0.441   4.573   4.904 -0.1408 -0.3791 -0.7560
 5614TIP3    H138257   0.373   4.550   4.967  0.8672 -0.3252  0.3755
 5614TIP3    H238258   0.406   4.649   4.858 -0.1710  0.6877  0.9668
 5615TIP3   OH238259   6.785   5.627  16.837  0.2754 -0.5710  0.0586
 5615TIP3    H138260   6.764   5.704  16.891 -0.7363 -0.7933 -0.0131
 5615TIP3    H238261   6.764   5.552  16.893  2.7530 -0.8053  0.7039
 5616TIP3   OH238262   6.077   5.594   0.692 -0.7544 -0.2345  0.1125
 5616TIP3    H138263   5.995   5.635   0.717 -0.5598  0.2622 -0.0604
 5616TIP3    H238264   6.140   5.624   0.758 -0.6625 -0.4404  0.1198
 5617TIP3   OH238265   3.590   5.054   1.471 -0.5079  0.0667  0.1384
 5617TIP3    H138266   3.557   5.139   1.445 -0.0865 -0.5615 -2.5321
 5617TIP3    H238267   3.679   5.071   1.502 -0.3930  0.5948 -0.4761
 5618TIP3   OH238268   5.310   3.359  11.413  0.2570 -0.2243 -0.0830
 5618TIP3    H138269   5.347   3.399  11.492  0.8420  0.2473 -0.5981
 5618TIP3    H238270   5.255   3.288  11.447  0.5467 -0.0639  0.7492
 5619TIP3   OH238271   1.302   1.862  15.672 -0.7569  0.4006  0.0923
 5619TIP3    H138272   1.316   1.864  15.767 -2.0571  1.1826  0.2855
 5619TIP3    H238273   1.207   1.851  15.663 -0.5323 -0.6105 -1.1236
 5620TIP3   OH238274   4.011   4.254  17.147  0.3586 -0.0558  0.6168
 5620TIP3    H138275   4.088   4.302  17.116  0.2879 -0.4149 -0.1395
 5620TIP3    H238276   3.954   4.249  17.071 -0.8510  1.0586  1.4506
 5621TIP3   OH238277   2.123   0.439   5.080  0.0518 -0.2700  0.0138
 5621TIP3    H138278   2.042   0.460   5.034  1.0519  2.8502 -0.4544
 5621TIP3    H238279   2.101   0.447   5.173 -1.0710 -3.0900  0.0317
 5622TIP3   OH238280   0.046   5.169  17.135  0.5535  0.2633 -0.5650
 5622TIP3    H138281  -0.019   5.148  17.201 -0.5542  1.6599 -1.1727
 5622TIP3    H238282   0.057   5.088  17.085 -2.5395  0.5976 -1.9647
 5623TIP3   OH238283   4.900   2.351  12.182 -0.0135  0.0597  0.1157
 5623TIP3    H138284   4.958   2.345  12.106  0.9635 -0.6165  0.9055
 5623TIP3    H238285   4.955   2.383  12.252 -0.4643 -1.0865  1.0123
 5624TIP3   OH238286   5.954   3.727   2.841  0.0294  0.4264  0.0171
 5624TIP3    H138287   5.917   3.651   2.795 -0.3322  1.1039 -0.8331
 5624TIP3    H238288   6.048   3.713   2.838 -0.0609 -0.3122  0.4391
 5625TIP3   OH238289   1.027   1.350  11.955 -0.5111 -0.4896 -0.0707
 5625TIP3    H138290   1.062   1.264  11.978 -0.5043 -0.5651 -0.3622
 5625TIP3    H238291   1.098   1.394  11.909 -1.6355 -1.5999 -2.9442
 5626TIP3   OH238292   5.848   2.021   0.263  0.1664  0.2166  0.2719
 5626TIP3    H138293   5.807   1.948   0.218 -0.5627  0.2553  0.8742
 5626TIP3    H238294   5.942   2.004   0.256  0.0203 -0.3727 -0.2522
 5627TIP3   OH238295   3.676   4.041   6.028 -0.2707  0.0150  0.6552
 5627TIP3    H138296   3.648   4.077   6.112 -0.9522 -2.3592  1.5036
 5627TIP3    H238297   3.601   3.987   6.000  0.5070 -0.3418 -0.7618
 5628TIP3   OH238298   0.960   2.098   2.868  0.5085  0.0600  0.5644
 5628TIP3    H138299   0.865   2.090   2.861  0.5014 -0.4780  1.2991
 5628TIP3    H238300   0.973   2.182   2.912  0.4180  0.7831 -0.7435
 5629TIP3   OH238301   6.517   1.705  15.777 -0.6235  0.1037 -0.3091
 5629TIP3    H138302   6.452   1.664  15.721 -1.6533 -0.6591  1.4275
 5629TIP3    H238303   6.600   1.695  15.729 -1.7454  1.0561 -2.5134
 5630TIP3   OH238304   2.386   3.056  16.070  0.3316  0.1744 -0.3832
 5630TIP3    H138305   2.449   3.071  15.999  1.3857  1.2295  0.7597
 5630TIP3    H238306   2.367   2.962  16.064  0.2171  0.2949 -2.2152
 5631TIP3   OH238307   4.691   5.331   1.586  0.3438  0.0388 -0.1507
 5631TIP3    H138308   4.693   5.377   1.502  0.2979 -0.4310 -0.4104
 5631TIP3    H238309   4.670   5.240   1.563 -0.2924  0.0348  0.4237
 5632TIP3   OH238310   4.504   5.633  13.326 -0.1336 -0.3339  0.1313
 5632TIP3    H138311   4.429   5.575  13.337 -0.5261  0.3316  0.9502
 5632TIP3    H238312   4.482   5.686  13.249 -1.7790  1.8078  2.0326
 5633TIP3   OH238313   6.410   0.765  14.332 -0.2897 -0.2546  0.1157
 5633TIP3    H138314   6.407   0.821  14.411 -0.2945 -1.8372  1.2551
 5633TIP3    H238315   6.503   0.742  14.324 -0.3353 -0.3299 -0.1774
 5634TIP3   OH238316   4.050   5.168  13.253 -0.0532 -0.0442  0.1810
 5634TIP3    H138317   4.079   5.228  13.184  0.4951 -1.1744 -0.5947
 5634TIP3    H238318   4.065   5.080  13.216  0.9133 -0.6634  2.0033
 5635TIP3   OH238319   4.671   0.104  16.279  0.2540 -0.1481 -0.1857
 5635TIP3    H138320   4.726   0.182  16.276 -1.1845  0.8317 -1.5199
 5635TIP3    H238321   4.598   0.127  16.336 -0.8770 -0.0395 -1.6592
 5636TIP3   OH238322   5.985   0.254  15.589 -0.2905 -0.3681 -0.3966
 5636TIP3    H138323   5.953   0.191  15.524 -0.4598  0.3672 -1.0252
 5636TIP3    H238324   5.939   0.229  15.670  0.0954 -1.4289 -0.4873
 5637TIP3   OH238325   3.311   6.581   4.897 -0.0000 -0.1356  0.3123
 5637TIP3    H138326   3.381   6.567   4.960 -0.0993 -1.8090  0.0879
 5637TIP3    H238327   3.310   6.501   4.845 -0.9297  0.5956 -0.8119
 5638TIP3   OH238328   6.229   3.381   4.935 -0.3071 -0.1852 -0.3180
 5638TIP3    H138329   6.272   3.457   4.899  0.6305  0.1679  1.4737
 5638TIP3    H238330   6.138   3.388   4.906 -0.0145  1.1227 -0.9165
 5639TIP3   OH238331   5.847   2.265   3.106 -0.2087 -0.1407 -0.3042
 5639TIP3    H138332   5.926   2.260   3.159 -0.0874  0.8031 -0.3776
 5639TIP3    H238333   5.862   2.204   3.034  0.6131  0.3043 -0.5208
 5640TIP3   OH238334   1.820   4.619   5.118 -0.9804  0.3624 -0.1065
 5640TIP3    H138335   1.816   4.572   5.202  1.7095  1.6567  0.8224
 5640TIP3    H238336   1.808   4.551   5.052 -1.7271 -0.9038  1.2949
 5641TIP3   OH238337   5.773   3.606  13.756 -0.3283  0.4254 -0.3517
 5641TIP3    H138338   5.842   3.669  13.734  0.8692 -0.4007  0.9810
 5641TIP3    H238339   5.780   3.539  13.688 -0.0455  0.5031 -0.3998
 5642TIP3   OH238340   2.165   0.712   3.303 -0.3870  0.1395 -0.0934
 5642TIP3    H138341   2.193   0.626   3.334 -0.5112  0.5950  1.3251
 5642TIP3    H238342   2.204   0.721   3.216  1.0838 -0.6050  0.4829
 5643TIP3   OH238343   0.757   5.254   3.199  0.0179  0.1062 -0.4953
 5643TIP3    H138344   0.733   5.264   3.291 -1.0509 -0.6771 -0.6786
 5643TIP3    H238345   0.695   5.309   3.152 -0.8376 -1.1992 -0.9058
 5644TIP3   OH238346   0.236   6.402  12.019 -0.4812  0.1065 -0.5850
 5644TIP3    H138347   0.323   6.409  12.059 -1.5269 -0.0366  1.7859
 5644TIP3    H238348   0.191   6.336  12.071 -3.0777  2.4414  0.2203
 5645TIP3   OH238349   2.080   2.335   5.178  0.0924 -0.3175  0.4872
 5645TIP3    H138350   1.988   2.344   5.150 -0.4554 -0.3762  2.2202
 5645TIP3    H238351   2.075   2.315   5.271  1.8766 -0.6176  0.5332
 5646TIP3   OH238352   2.109   6.760   2.705 -0.7804 -0.3852 -0.0559
 5646TIP3    H138353   2.079   6.671   2.726 -0.8172 -0.6515 -1.2204
 5646TIP3    H238354   2.202   6.749   2.684 -0.2305  0.1992  1.9983
 5647TIP3   OH238355   6.552   3.449  15.272  0.9010  0.7564 -0.0949
 5647TIP3    H138356   6.475   3.441  15.329  1.5602  2.3048  1.0482
 5647TIP3    H238357   6.521   3.423  15.186  0.3136 -3.5199  1.2428
 5648TIP3   OH238358   3.877   2.827  13.291  0.1674  0.2429  0.1278
 5648TIP3    H138359   3.961   2.780  13.291  0.7007  1.1744 -0.9949
 5648TIP3    H238360   3.873   2.868  13.377  0.3113 -0.7587  0.6315
 5649TIP3   OH238361   6.667   3.313  15.565  0.4954 -0.4850  0.2433
 5649TIP3    H138362   6.624   3.390  15.602 -2.0312 -2.2727  1.1697
 5649TIP3    H238363   6.760   3.330  15.577  0.0135  2.5498  0.1379
 5650TIP3   OH238364   2.297   2.664  17.167  0.2449 -0.5393  0.2248
 5650TIP3    H138365   2.300   2.759  17.162 -1.9453 -0.4622 -0.0245
 5650TIP3    H238366   2.386   2.636  17.144  0.7133  1.3909 -0.4226
 5651TIP3   OH238367   5.840   5.593   2.914 -0.0122 -0.5171 -0.3905
 5651TIP3    H138368   5.761   5.638   2.884 -0.4697 -0.1733  1.2520
 5651TIP3    H238369   5.911   5.655   2.898  0.0007 -0.9558 -2.1838
 5652TIP3   OH238370   0.918   5.278   1.788  0.4511  0.2165  0.4241
 5652TIP3    H138371   0.980   5.217   1.827 -0.1629 -0.7363 -0.0685
 5652TIP3    H238372   0.840   5.226   1.772  0.3472  0.8392 -1.1554
 5653TIP3   OH238373   0.893   6.527   3.630  0.3705 -0.0502  0.0410
 5653TIP3    H138374   0.916   6.436   3.649 -2.6419 -0.6852  0.9610
 5653TIP3    H238375   0.880   6.530   3.535  0.3754 -0.5941  0.0258
 5654TIP3   OH238376   1.699   5.310   2.785 -0.0031  0.5589 -0.1565
 5654TIP3    H138377   1.737   5.390   2.749 -0.3983  0.8000 -0.0374
 5654TIP3    H238378   1.741   5.239   2.736  1.3998  0.7738  0.7185
 5655TIP3   OH238379   6.295   5.636   0.868  0.0895 -0.1958  0.0783
 5655TIP3    H138380   6.350   5.705   0.830 -2.1398  1.3860 -0.3727
 5655TIP3    H238381   6.295   5.655   0.962 -0.4134  0.3260 -0.0289
 5656TIP3   OH238382   3.034   3.292   4.470 -0.0743  0.7291 -0.1816
 5656TIP3    H138383   3.118   3.252   4.494 -1.1029 -0.6102  1.2805
 5656TIP3    H238384   2.993   3.229   4.411 -1.1505  0.1668  1.1370
 5657TIP3   OH238385   4.330   1.845   4.527 -0.2604  0.1088 -0.6201
 5657TIP3    H138386   4.256   1.789   4.547 -0.7739  0.7797 -0.6298
 5657TIP3    H238387   4.312   1.927   4.574  0.9333 -0.0573  0.1567
 5658TIP3   OH238388   3.450   1.863   0.783 -0.1615  0.0055 -0.2275
 5658TIP3    H138389   3.429   1.919   0.708 -0.6136  0.3847  0.1806
 5658TIP3    H238390   3.386   1.887   0.849  0.8952  0.4156  0.6537
 5659TIP3   OH238391   0.270   0.652  12.190  0.2528 -0.3343  0.3009
 5659TIP3    H138392   0.234   0.596  12.259  0.0746 -1.3222 -0.5881
 5659TIP3    H238393   0.350   0.606  12.162 -0.0783 -0.3186 -0.6710
 5660TIP3   OH238394   6.380   1.077  11.579  0.2215  0.2971 -0.3987
 5660TIP3    H138395   6.341   0.990  11.589 -2.0246  1.2979 -0.0503
 5660TIP3    H238396   6.432   1.071  11.499  1.0774 -1.7005  0.2944
 5661TIP3   OH238397   1.807   0.006   0.166 -0.6794  0.0858 -0.2709
 5661TIP3    H138398   1.814  -0.081   0.204  0.1107 -0.5885 -1.9345
 5661TIP3    H238399   1.746  -0.004   0.092  1.0036  0.4856 -1.7456
 5662TIP3   OH238400   1.033   3.586   4.224  0.2106 -0.6221 -0.8146
 5662TIP3    H138401   0.940   3.563   4.229 -0.3199  1.1828 -1.7598
 5662TIP3    H238402   1.047   3.609   4.132  1.3135  0.2219 -0.4491
 5663TIP3   OH238403   0.795   5.105  15.559  0.4718 -0.5134 -0.1721
 5663TIP3    H138404   0.760   5.058  15.635  1.4925 -1.0212 -0.0031
 5663TIP3    H238405   0.720   5.153  15.523 -0.9084 -3.3244 -1.1579
 5664TIP3   OH238406   0.841   4.119  13.169 -0.0295 -0.1713  0.0357
 5664TIP3    H138407   0.750   4.151  13.169  0.9743  2.8299  0.7663
 5664TIP3    H238408   0.861   4.108  13.076 -0.9327 -0.2151 -0.1672
 5665TIP3   OH238409   6.518   3.400   4.599  0.2032  0.6152 -0.4964
 5665TIP3    H138410   6.481   3.326   4.551  1.3055  0.3550 -0.9508
 5665TIP3    H238411   6.554   3.361   4.679  0.9950  0.6341 -0.8481
 5666TIP3   OH238412   1.176   5.652   5.067 -0.2947  0.3636 -0.4301
 5666TIP3    H138413   1.114   5.655   5.139 -1.1282  2.6510 -1.2032
 5666TIP3    H238414   1.126   5.616   4.994  0.5942 -2.1104  0.1126
 5667TIP3   OH238415   1.902   5.793  12.160  0.2098 -0.1853 -0.0690
 5667TIP3    H138416   1.912   5.738  12.238 -0.4492  0.2815  0.3486
 5667TIP3    H238417   1.849   5.867  12.189 -1.0068 -0.5728 -1.2273
 5668TIP3   OH238418   0.557   2.807   3.628 -0.7567  0.1035 -0.8364
 5668TIP3    H138419   0.637   2.797   3.577 -0.3347  1.7092 -0.5160
 5668TIP3    H238420   0.587   2.809   3.719 -1.1343  0.8796 -0.7256
 5669TIP3   OH238421   6.176   5.500  14.907  0.4897  0.5565  0.1866
 5669TIP3    H138422   6.110   5.450  14.859  1.1707  0.0485 -0.2300
 5669TIP3    H238423   6.213   5.437  14.968  0.9829  0.6969  0.0308
 5670TIP3   OH238424   1.342   0.914   2.242 -0.4939  0.0264 -0.0165
 5670TIP3    H138425   1.246   0.912   2.249 -0.3651  0.2018  1.9099
 5670TIP3    H238426   1.373   0.871   2.321  1.0459  0.7147 -0.2323
 5671TIP3   OH238427   3.143   5.491   5.258  0.1190 -0.4410 -0.2808
 5671TIP3    H138428   3.120   5.550   5.330 -1.3761 -0.1226 -1.0040
 5671TIP3    H238429   3.075   5.424   5.258  1.0624 -1.4192 -0.3220
 5672TIP3   OH238430   5.469   0.165  15.457  0.5440 -0.2326  0.2479
 5672TIP3    H138431   5.486   0.145  15.549 -1.1489 -2.5975  0.0942
 5672TIP3    H238432   5.499   0.087  15.410  0.8432  0.7136 -1.1302
 5673TIP3   OH238433   4.081   3.500   1.096 -0.6716  0.4208 -0.4064
 5673TIP3    H138434   4.051   3.547   1.018  1.6077 -0.0786 -1.6182
 5673TIP3    H238435   4.007   3.443   1.120 -1.2514  0.3085 -2.4149
 5674TIP3   OH238436   6.713   3.428   2.003 -0.2190  0.2040 -0.3844
 5674TIP3    H138437   6.760   3.436   2.086  1.1555  1.2851 -1.2375
 5674TIP3    H238438   6.669   3.343   2.007  1.2128 -0.4849  0.7411
 5675TIP3   OH238439   5.277   1.578   5.921  0.1510 -0.3976 -0.0760
 5675TIP3    H138440   5.366   1.555   5.896  0.1219  0.3337 -0.8887
 5675TIP3    H238441   5.273   1.562   6.015  1.0869 -0.5815 -0.0621
 5676TIP3   OH238442   0.892   4.793   3.999  0.0367  0.5189 -0.2290
 5676TIP3    H138443   0.807   4.827   3.970 -0.3349 -0.8967 -0.8599
 5676TIP3    H238444   0.878   4.769   4.091 -0.0864  0.8147 -0.1707
 5677TIP3   OH238445   3.369   2.902   4.796 -0.0388 -0.8021  0.7542
 5677TIP3    H138446   3.385   2.942   4.711  1.7780  0.5445  1.6905
 5677TIP3    H238447   3.410   2.815   4.790 -0.4572 -0.9523  0.0526
 5678TIP3   OH238448   2.950   2.399  11.159  0.2254  0.0150  0.1485
 5678TIP3    H138449   2.991   2.445  11.086  1.3647 -0.1863  0.6502
 5678TIP3    H238450   2.889   2.338  11.117 -0.1138  0.8380 -0.5698
 5679TIP3   OH238451   6.581   5.594  17.019 -0.0446  0.0600 -0.6126
 5679TIP3    H138452   6.531   5.522  17.058 -0.1922  0.5121  0.0359
 5679TIP3    H238453   6.655   5.608  17.078  2.0629 -2.0003 -2.6618
 5680TIP3   OH238454   0.683   6.649   1.245  0.0918  0.1781  0.0307
 5680TIP3    H138455   0.671   6.619   1.155  0.4846 -2.3266  0.7669
 5680TIP3    H238456   0.778   6.662   1.253 -0.2935  4.3422 -1.0531
 5681TIP3   OH238457   4.804   5.397  16.130 -0.3632  0.0269 -0.2804
 5681TIP3    H138458   4.897   5.396  16.153 -0.1295  2.4401 -1.0387
 5681TIP3    H238459   4.802   5.403  16.035 -1.2976  0.3890 -0.2505
 5682TIP3   OH238460   3.712   3.329  15.288 -0.1915 -0.7547  0.5981
 5682TIP3    H138461   3.631   3.380  15.279  0.5071  0.1658 -0.6444
 5682TIP3    H238462   3.703   3.260  15.221  0.8836  0.4887 -0.8452
 5683TIP3   OH238463   6.140   1.402  13.661  0.0949  0.2193 -0.5987
 5683TIP3    H138464   6.216   1.450  13.630  0.0210  0.0529 -1.0519
 5683TIP3    H238465   6.144   1.407  13.756  0.7301  0.1171 -0.6213
 5684TIP3   OH238466   2.572   5.108  15.215 -0.1239 -0.3734  0.0038
 5684TIP3    H138467   2.561   5.017  15.188 -1.9091 -0.1257 -0.1977
 5684TIP3    H238468   2.508   5.156  15.162 -0.1025  0.8067  1.0287
 5685TIP3   OH238469   4.780   6.082  13.066  0.0499 -0.6858 -0.1718
 5685TIP3    H138470   4.723   6.017  13.109 -1.1760 -1.1632 -2.3980
 5685TIP3    H238471   4.743   6.166  13.091 -0.9013 -0.9681 -0.5801
 5686TIP3   OH238472   4.801   4.875   0.319 -0.3198 -0.0001 -0.3466
 5686TIP3    H138473   4.821   4.963   0.288  0.1253 -0.4999 -1.5286
 5686TIP3    H238474   4.870   4.856   0.384  0.4363 -0.0141 -1.1415
 5687TIP3   OH238475   0.892   0.443  12.545  0.2015  0.3734  0.1470
 5687TIP3    H138476   0.927   0.361  12.580 -0.8676 -0.1228  0.0657
 5687TIP3    H238477   0.885   0.500  12.621  2.0851  0.8184  0.0197
 5688TIP3   OH238478   1.091   4.382   4.855 -0.2249  0.0072  0.0672
 5688TIP3    H138479   1.000   4.393   4.885 -0.9304 -0.5695 -1.8187
 5688TIP3    H238480   1.102   4.449   4.788  0.4046 -0.6207 -0.4597
 5689TIP3   OH238481   1.152   6.424  16.675  0.3072  0.2955  0.1475
 5689TIP3    H138482   1.229   6.368  16.662 -0.1078 -0.1839 -0.2474
 5689TIP3    H238483   1.183   6.494  16.732  1.4646  0.9441 -1.2335
 5690TIP3   OH238484   2.648   1.581  12.972 -0.2386  0.2659 -0.1350
 5690TIP3    H138485   2.702   1.580  13.050 -0.4041  0.3401 -0.0192
 5690TIP3    H238486   2.710   1.580  12.899 -0.0457  1.9354 -0.0178
 5691TIP3   OH238487   1.537   6.640  16.546 -0.1342 -0.1288  0.2531
 5691TIP3    H138488   1.631   6.628  16.535 -0.2636 -1.4111  0.4093
 5691TIP3    H238489   1.498   6.591  16.473 -0.6167  2.5909 -1.3672
 5692TIP3   OH238490   4.555   3.676  10.444  0.1138  0.1758 -0.2032
 5692TIP3    H138491   4.592   3.718  10.367 -0.0193 -2.2869 -1.6690
 5692TIP3    H238492   4.632   3.642  10.491  0.1053  0.2893 -0.1087
 5693TIP3   OH238493   4.248   2.182  13.948  0.1921  0.0429 -0.5225
 5693TIP3    H138494   4.169   2.154  13.994 -0.6946  1.5371 -1.1072
 5693TIP3    H238495   4.245   2.135  13.865 -1.3494  1.9273 -1.5510
 5694TIP3   OH238496   3.718   6.339   5.081 -1.0465  0.7177 -0.2842
 5694TIP3    H138497   3.630   6.369   5.101 -0.8504  0.5070  0.9233
 5694TIP3    H238498   3.724   6.253   5.122  0.0401  1.1420  0.4505
 5695TIP3   OH238499   2.842   3.051  16.709 -0.0299 -0.0005 -0.2096
 5695TIP3    H138500   2.747   3.051  16.696  0.2075 -0.5187 -2.1846
 5695TIP3    H238501   2.869   2.962  16.685  1.2797  0.9970 -2.6548
 5696TIP3   OH238502   1.990   1.976  15.713  0.2233 -0.6787  0.6140
 5696TIP3    H138503   2.060   2.037  15.738  0.5984 -0.9527  0.2455
 5696TIP3    H238504   1.935   1.970  15.791 -0.1271  0.5523  0.4695
 5697TIP3   OH238505   3.940   4.930   1.296  0.6563  0.1612  0.3619
 5697TIP3    H138506   4.009   4.982   1.255 -0.5560  0.6229 -1.1613
 5697TIP3    H238507   3.978   4.843   1.306  0.9579  0.0089 -1.8973
 5698TIP3   OH238508   2.047   4.232   1.436 -0.5326  0.2593 -0.3485
 5698TIP3    H138509   1.963   4.244   1.480  0.4734  0.7756  1.4754
 5698TIP3    H238510   2.105   4.199   1.505  1.3353  2.0287 -1.0526
 5699TIP3   OH238511   2.672   2.443  12.419 -0.6009 -0.1210  0.4335
 5699TIP3    H138512   2.701   2.459  12.509  0.3288  0.4650  0.0389
 5699TIP3    H238513   2.648   2.350  12.417  1.7331 -0.7502  0.6430
 5700TIP3   OH238514   6.623   6.679   2.726 -0.5724 -0.0287  0.7149
 5700TIP3    H138515   6.681   6.613   2.690 -1.2788  0.2247 -0.9257
 5700TIP3    H238516   6.681   6.743   2.767  0.2454 -0.3348  0.0412
 5701TIP3   OH238517   3.061   2.243   5.212  0.3498 -0.1465  0.1842
 5701TIP3    H138518   2.968   2.264   5.204  0.2793 -0.2639  0.6900
 5701TIP3    H238519   3.106   2.318   5.173 -0.0080 -1.2073 -2.3533
 5702TIP3   OH238520   5.795   1.517   2.753  0.2804  0.1873 -0.4099
 5702TIP3    H138521   5.845   1.441   2.782 -0.8816 -0.8966 -1.1869
 5702TIP3    H238522   5.812   1.522   2.659  0.1425  0.7291 -0.4059
 5703TIP3   OH238523   5.834   2.462   5.559 -0.0620  0.3967 -0.6540
 5703TIP3    H138524   5.740   2.447   5.568 -0.0124  0.0353 -0.7071
 5703TIP3    H238525   5.841   2.550   5.522 -0.4629 -0.4427 -2.8063
 5704TIP3   OH238526   1.403   0.330   2.434  0.1975  0.1230  0.0502
 5704TIP3    H138527   1.308   0.319   2.442 -0.0761  2.1340 -0.2314
 5704TIP3    H238528   1.438   0.303   2.519 -0.3926 -2.7222 -0.5332
 5705TIP3   OH238529   5.040   0.635   5.508 -0.3327 -0.0445 -0.4269
 5705TIP3    H138530   5.021   0.718   5.465  0.8403  0.1616 -0.5592
 5705TIP3    H238531   5.006   0.645   5.597  0.1231  0.7010 -0.3383
 5706TIP3   OH238532   1.298   2.905   4.465  0.5104  0.7069  0.0680
 5706TIP3    H138533   1.274   2.885   4.556  0.5346  1.0919  0.1572
 5706TIP3    H238534   1.335   2.823   4.432  2.0940  1.0535  0.9306
 5707TIP3   OH238535   6.630   6.705   0.827 -0.0148 -0.0481 -0.1007
 5707TIP3    H138536   6.539   6.722   0.801 -0.8180 -0.3550  2.4118
 5707TIP3    H238537   6.650   6.621   0.785 -1.7224 -1.1903  1.2767
 5708TIP3   OH238538   3.287   3.520   6.105 -0.9721  0.2416  0.3891
 5708TIP3    H138539   3.288   3.615   6.110 -0.6291  0.1896  1.4176
 5708TIP3    H238540   3.353   3.498   6.038  1.6375  0.5872  2.7651
 5709TIP3   OH238541   1.492   5.896  16.902 -0.2985  0.6186 -0.1069
 5709TIP3    H138542   1.428   5.828  16.921 -1.0432  1.1733 -0.6238
 5709TIP3    H238543   1.445   5.978  16.916 -0.0197  1.0309 -1.5216
 5710TIP3   OH238544   6.273   2.083  15.821  0.1879 -0.2436  0.4811
 5710TIP3    H138545   6.242   2.173  15.807  0.5493 -0.0987  0.6059
 5710TIP3    H238546   6.362   2.082  15.785  0.6348 -0.2234  1.5466
 5711TIP3   OH238547   0.474   3.572  13.102 -0.2217 -0.4611 -0.7802
 5711TIP3    H138548   0.436   3.647  13.055  1.3069  0.2896 -0.8552
 5711TIP3    H238549   0.553   3.551  13.052 -0.3524 -1.7853 -0.4389
 5712TIP3   OH238550   6.040   5.157  14.517 -0.2590 -0.1016  0.0538
 5712TIP3    H138551   5.981   5.216  14.470 -0.2181  1.1876  1.5558
 5712TIP3    H238552   6.021   5.070  14.482 -0.4182  0.7904 -2.1004
 5713TIP3   OH238553   2.007   6.747   4.661  0.3755  0.1344  0.6907
 5713TIP3    H138554   2.002   6.714   4.571 -0.2210  0.5164  0.5824
 5713TIP3    H238555   2.099   6.768   4.674  0.7181 -1.2640  0.6521
 5714TIP3   OH238556   3.136   1.764  11.729 -0.0337  0.6173 -0.0698
 5714TIP3    H138557   3.177   1.785  11.646 -2.5504  1.3192 -1.1891
 5714TIP3    H238558   3.095   1.846  11.757 -1.7027 -0.3366  0.3749
 5715TIP3   OH238559   1.548   5.921  11.860 -0.0145  0.5526 -0.3842
 5715TIP3    H138560   1.465   5.936  11.815 -0.6600  2.1228  1.2751
 5715TIP3    H238561   1.544   5.829  11.888 -0.3640  0.0847 -1.9277
 5716TIP3   OH238562   5.185   5.244  13.492 -0.2512  0.1676 -0.1991
 5716TIP3    H138563   5.277   5.263  13.510  0.1866 -0.1768 -2.0209
 5716TIP3    H238564   5.144   5.245  13.578  1.7053 -1.0308  0.7970
 5717TIP3   OH238565   3.686   4.390   1.457  0.5405  0.7770  0.7217
 5717TIP3    H138566   3.604   4.437   1.447  1.0828  1.7399  0.6851
 5717TIP3    H238567   3.747   4.435   1.399  1.1792  0.2821  0.9902
 5718TIP3   OH238568   6.359   2.683  16.784  0.2237 -0.1803  0.1843
 5718TIP3    H138569   6.270   2.705  16.754  0.2123 -1.5752 -0.8689
 5718TIP3    H238570   6.347   2.652  16.873 -0.5191 -1.4377 -0.3335
 5719TIP3   OH238571   3.006   2.303   1.995 -0.2193 -0.3416 -0.2904
 5719TIP3    H138572   2.926   2.338   1.956 -1.7451 -0.5331  2.5654
 5719TIP3    H238573   3.016   2.351   2.077  3.1486  0.3472 -1.0261
 5720TIP3   OH238574   1.027   3.631  15.186  0.1663 -0.2287  0.7868
 5720TIP3    H138575   1.085   3.597  15.117 -1.1127 -1.7329  0.4122
 5720TIP3    H238576   1.048   3.578  15.263  1.5607  1.4201  1.5653
 5721TIP3   OH238577   3.679   0.710  17.200 -0.3498 -0.1832  0.0941
 5721TIP3    H138578   3.609   0.768  17.232  0.9530  1.2973  0.3228
 5721TIP3    H238579   3.654   0.690  17.110  0.2598  2.5244 -0.7194
 5722TIP3   OH238580   4.976   4.563  12.884 -0.1033 -0.2362  0.1849
 5722TIP3    H138581   4.992   4.633  12.821  1.8970  1.1727  2.1912
 5722TIP3    H238582   5.060   4.517  12.890 -0.9783 -1.8930  0.0235
 5723TIP3   OH238583   5.320   2.242   3.964  0.0854 -0.2054  0.0333
 5723TIP3    H138584   5.268   2.202   3.894 -0.0382 -0.0853  0.0536
 5723TIP3    H238585   5.347   2.170   4.020  1.3016 -0.4707 -0.8695
 5724TIP3   OH238586   5.644   2.697   5.490 -0.4706  0.4291  0.2895
 5724TIP3    H138587   5.565   2.679   5.541 -0.0849 -0.3431  0.6089
 5724TIP3    H238588   5.635   2.641   5.413 -1.2817  1.9290 -0.7511
 5725TIP3   OH238589   6.506   5.291   5.154  0.5632 -0.2392  0.5706
 5725TIP3    H138590   6.556   5.342   5.219 -0.9298  1.4481  0.4373
 5725TIP3    H238591   6.416   5.324   5.163  0.0084 -1.2785 -1.1162
 5726TIP3   OH238592   6.186   5.478   2.054 -0.4520  0.1283 -0.0185
 5726TIP3    H138593   6.180   5.543   1.984 -1.9308 -0.3675 -0.3821
 5726TIP3    H238594   6.139   5.402   2.020 -0.0735 -0.5769  1.0064
 5727TIP3   OH238595   5.564   5.380  16.864  0.2506  0.3736  0.0289
 5727TIP3    H138596   5.514   5.445  16.813 -0.1273  0.6934  0.8070
 5727TIP3    H238597   5.585   5.311  16.800 -0.9899  0.3419 -0.3513
 5728TIP3   OH238598   0.832   1.257  17.133 -0.3920 -0.3559 -0.0513
 5728TIP3    H138599   0.844   1.291  17.222 -0.8962 -0.5065  0.0775
 5728TIP3    H238600   0.787   1.327  17.086 -0.4233 -0.4065 -0.0957
 5729TIP3   OH238601   0.567   4.046  13.685  0.3216 -0.1052 -0.7988
 5729TIP3    H138602   0.562   4.084  13.598  1.2829  0.0282 -0.7983
 5729TIP3    H238603   0.650   4.079  13.721  0.3432 -0.8406 -0.1673
 5730TIP3   OH238604   1.177   5.821   0.361  0.6222  0.1263 -0.0080
 5730TIP3    H138605   1.161   5.771   0.441 -0.5822  0.6903  0.1237
 5730TIP3    H238606   1.272   5.827   0.355  0.7936 -2.0207  0.0579
 5731TIP3   OH238607   1.288   3.188   2.397 -0.2741  0.6276  0.1975
 5731TIP3    H138608   1.213   3.239   2.426 -1.0486 -0.2342 -0.2712
 5731TIP3    H238609   1.327   3.239   2.326 -1.2679  0.3772 -0.5273
 5732TIP3   OH238610   4.175   1.035  14.736 -0.2179  0.4983  0.1943
 5732TIP3    H138611   4.107   1.025  14.669 -1.1304 -0.7822  1.2642
 5732TIP3    H238612   4.258   1.028  14.688 -0.8514 -2.5373 -0.5501
 5733TIP3   OH238613   2.004   0.333  14.000 -0.2328  0.0758 -0.0429
 5733TIP3    H138614   1.937   0.313  13.935  0.4797  1.2013 -1.1578
 5733TIP3    H238615   1.956   0.371  14.074 -0.9900 -0.7396 -0.1056
 5734TIP3   OH238616   1.427   2.981  12.200 -0.0792  0.2962  0.2252
 5734TIP3    H138617   1.370   2.918  12.244  0.7298 -1.1125 -0.7157
 5734TIP3    H238618   1.436   2.948  12.110  1.9758  0.6379  0.2717
 5735TIP3   OH238619   2.755   1.815  13.991  0.6417  0.5330 -0.6128
 5735TIP3    H138620   2.732   1.723  13.997  1.6781  0.2818 -0.3879
 5735TIP3    H238621   2.718   1.855  14.069  0.8058  0.1722 -0.3521
 5736TIP3   OH238622   2.099   0.584   3.584  0.6441  0.0212  0.5659
 5736TIP3    H138623   2.122   0.545   3.668 -0.4243 -0.5285  0.6053
 5736TIP3    H238624   2.171   0.644   3.565  1.6483 -0.9931  1.1332
 5737TIP3   OH238625   4.818   1.827   5.215  0.0076  0.1782 -0.5432
 5737TIP3    H138626   4.892   1.774   5.246  0.4673  1.4459  0.5818
 5737TIP3    H238627   4.744   1.796   5.266 -0.1151 -0.6830 -1.2422
 5738TIP3   OH238628   6.495   5.335   3.545 -0.3953  0.0563  0.3821
 5738TIP3    H138629   6.496   5.416   3.494 -2.4571 -0.2470 -0.1908
 5738TIP3    H238630   6.433   5.353   3.616 -1.4093 -1.2334 -0.1584
 5739TIP3   OH238631   0.555   4.286   2.340 -0.0914 -0.2211  0.2905
 5739TIP3    H138632   0.495   4.303   2.268  1.3188  0.0400 -0.8549
 5739TIP3    H238633   0.506   4.230   2.400 -2.0829  1.4481  0.2643
 5740TIP3   OH238634   3.191   5.739   2.860  0.1809  0.7694  0.1875
 5740TIP3    H138635   3.276   5.767   2.825  0.4996 -0.0908  0.2558
 5740TIP3    H238636   3.213   5.674   2.928 -0.5567 -0.1949 -0.4785
 5741TIP3   OH238637   1.071   3.806  11.595  0.9961 -0.7241 -0.2859
 5741TIP3    H138638   1.017   3.884  11.581  0.7681 -0.4307  2.0669
 5741TIP3    H238639   1.123   3.798  11.515  0.2052  1.1838 -1.0162
 5742TIP3   OH238640   3.195   4.850  11.578  0.0337  0.0905 -0.4227
 5742TIP3    H138641   3.114   4.900  11.585 -0.2282 -0.5163  1.2666
 5742TIP3    H238642   3.260   4.902  11.624 -0.6080 -1.7821  2.7944
 5743TIP3   OH238643   3.404   1.542   3.571  0.2365 -0.0605  0.1691
 5743TIP3    H138644   3.413   1.447   3.574 -0.0893 -0.0351  2.4385
 5743TIP3    H238645   3.456   1.574   3.645 -1.7298  1.3629  0.9897
 5744TIP3   OH238646   5.999   5.077  11.966  0.4643  0.6318 -0.6353
 5744TIP3    H138647   5.971   5.132  11.893 -0.2259  0.4983 -0.4717
 5744TIP3    H238648   6.091   5.101  11.980  0.5645  0.7552 -1.4589
 5745TIP3   OH238649   4.915   2.240  15.853 -0.2709  0.3481 -0.4712
 5745TIP3    H138650   4.994   2.188  15.868  0.3725  1.1940 -0.9578
 5745TIP3    H238651   4.846   2.192  15.901  0.1972 -1.2530 -1.3577
 5746TIP3   OH238652   3.585   4.548  11.760 -0.8146  0.1059  0.1188
 5746TIP3    H138653   3.648   4.496  11.710 -0.0336  1.5504 -0.4365
 5746TIP3    H238654   3.499   4.514  11.734 -0.3009 -1.0824 -0.0298
 5747TIP3   OH238655   0.901   4.341   0.637  0.0210  0.1418 -0.5443
 5747TIP3    H138656   0.987   4.343   0.594 -0.0123  2.6205 -0.6047
 5747TIP3    H238657   0.914   4.289   0.716  1.2583 -0.5970 -1.2245
 5748TIP3   OH238658   6.203   1.361   3.790  0.4318  0.7332  0.6037
 5748TIP3    H138659   6.187   1.312   3.710 -1.2983  1.7741  0.2851
 5748TIP3    H238660   6.297   1.380   3.789  0.5445  0.1341 -0.8090
 5749TIP3   OH238661   6.267   2.465   2.952  0.2630  0.3835 -0.1457
 5749TIP3    H138662   6.207   2.480   3.025  0.3372 -1.1135  0.2256
 5749TIP3    H238663   6.332   2.535   2.960 -0.3378  0.8702  0.5731
 5750TIP3   OH238664   5.337   4.735  16.740  0.1894 -0.1904 -0.3989
 5750TIP3    H138665   5.346   4.678  16.664 -0.4015 -0.0196 -0.5956
 5750TIP3    H238666   5.277   4.688  16.798 -0.6492  0.4320 -0.7514
 5751TIP3   OH238667   0.771   1.730  11.601  0.3750  0.3426  0.1464
 5751TIP3    H138668   0.821   1.704  11.679  2.0894  0.1492 -0.9853
 5751TIP3    H238669   0.828   1.708  11.528 -1.8809 -1.0064 -1.2675
 5752TIP3   OH238670   1.065   5.104   5.620  0.0628  0.5251 -0.1914
 5752TIP3    H138671   1.091   5.127   5.531  1.5342  1.3467  0.4203
 5752TIP3    H238672   1.061   5.189   5.665 -0.6144  0.1075  0.5270
 5753TIP3   OH238673   4.415   3.961  15.354 -0.7178  0.9958  0.2852
 5753TIP3    H138674   4.424   3.878  15.401 -0.5463  0.8172 -0.0604
 5753TIP3    H238675   4.425   4.028  15.421 -0.4005  0.7411  0.4920
 5754TIP3   OH238676   0.238   4.561  11.672  0.6591 -0.4484  0.1613
 5754TIP3    H138677   0.313   4.595  11.721  0.4780 -1.3682  1.1152
 5754TIP3    H238678   0.167   4.623  11.690  1.2887  0.6367 -1.0630
 5755TIP3   OH238679   6.016   2.508  11.830 -0.3412 -0.3343  0.0203
 5755TIP3    H138680   6.080   2.508  11.901  0.1055  2.6091 -0.3467
 5755TIP3    H238681   6.062   2.469  11.756  0.1625 -0.6494  0.4987
 5756TIP3   OH238682   0.720   1.079  15.391 -0.2037 -0.5219  0.2063
 5756TIP3    H138683   0.790   1.136  15.358  1.5206 -2.3617  0.5716
 5756TIP3    H238684   0.742   0.993  15.356 -1.2692 -1.4731  1.8630
 5757TIP3   OH238685   6.490   5.548   5.347 -0.1284 -0.0782 -0.5510
 5757TIP3    H138686   6.518   5.618   5.406 -0.9421  1.0300 -1.4460
 5757TIP3    H238687   6.566   5.532   5.291  0.1177 -0.0208 -0.2368
 5758TIP3   OH238688   4.286   2.818  13.739 -0.3098  0.0072 -0.2100
 5758TIP3    H138689   4.252   2.858  13.659  0.8466  0.8449 -0.2890
 5758TIP3    H238690   4.332   2.739  13.709  0.2653  0.4099 -0.3915
 5759TIP3   OH238691   0.717   1.645  15.435  0.1816 -0.2090  0.0566
 5759TIP3    H138692   0.682   1.714  15.379  0.4649 -1.4117 -1.6572
 5759TIP3    H238693   0.801   1.680  15.466 -1.1049  1.4625  1.7713
 5760TIP3   OH238694   6.363   4.106   2.890 -0.2009  0.0522  0.1986
 5760TIP3    H138695   6.328   4.078   2.806  1.4202 -0.5967 -0.2859
 5760TIP3    H238696   6.448   4.143   2.869  1.0046 -1.7294  1.7220
 5761TIP3   OH238697   6.472   6.189   0.190  0.5648  0.1790  0.2501
 5761TIP3    H138698   6.379   6.172   0.174  0.9061 -1.4685 -0.0762
 5761TIP3    H238699   6.498   6.245   0.117 -0.6792  2.5460  1.5653
 5762TIP3   OH238700   3.990   2.597  12.118 -0.4005  0.1407 -0.0972
 5762TIP3    H138701   3.991   2.554  12.033 -0.6962 -0.3074  0.1258
 5762TIP3    H238702   4.024   2.531  12.179  0.1192  0.5669  0.0806
 5763TIP3   OH238703   2.625   4.277   0.059  0.0888  0.0389  0.3055
 5763TIP3    H138704   2.590   4.282   0.148 -1.0675 -0.0614 -0.1367
 5763TIP3    H238705   2.612   4.186   0.033 -0.1886  0.2231 -0.2113
 5764TIP3   OH238706   6.348   6.548   4.324  0.4800  0.2352 -0.6586
 5764TIP3    H138707   6.375   6.574   4.411  3.3873  0.7518 -1.6752
 5764TIP3    H238708   6.288   6.617   4.295  0.2165  0.5191  0.5656
 5765TIP3   OH238709   5.622   2.388  16.972  0.6220  0.1990  0.6932
 5765TIP3    H138710   5.653   2.474  17.000  0.5581  0.7955 -1.0047
 5765TIP3    H238711   5.701   2.342  16.945  0.6354 -0.2264  1.4431
 5766TIP3   OH238712   5.816   3.666  15.570 -0.2434 -0.1460 -0.5830
 5766TIP3    H138713   5.855   3.666  15.483 -0.0660 -0.0693 -0.5042
 5766TIP3    H238714   5.801   3.758  15.589  3.7002  0.2393  1.2340
 5767TIP3   OH238715   4.828   2.492  11.810  0.2614  0.6343  0.2232
 5767TIP3    H138716   4.865   2.565  11.760 -0.6802  1.1305  0.2450
 5767TIP3    H238717   4.741   2.521  11.834 -0.1371 -0.5223  0.2009
 5768TIP3   OH238718   5.528   2.356   1.003  0.3435  0.8523  0.1026
 5768TIP3    H138719   5.517   2.391   0.915 -1.4916 -0.0155 -0.0228
 5768TIP3    H238720   5.583   2.278   0.991  0.8009  1.2173 -0.1681
 5769TIP3   OH238721   5.255   0.583   4.934 -0.0097  0.2733 -0.4832
 5769TIP3    H138722   5.226   0.494   4.953  1.6812 -0.4591 -1.2316
 5769TIP3    H238723   5.245   0.630   5.017 -0.5260 -0.7092  0.0192
 5770TIP3   OH238724   1.838   6.586   3.798 -0.2938  0.7255  0.5293
 5770TIP3    H138725   1.852   6.575   3.704 -0.6654  1.2271  0.4143
 5770TIP3    H238726   1.903   6.650   3.825  0.4661 -0.1544  0.8018
 5771TIP3   OH238727   4.234   5.248   0.818 -0.2057  0.1585  0.4350
 5771TIP3    H138728   4.326   5.274   0.825 -0.5399  1.4678  0.1926
 5771TIP3    H238729   4.227   5.208   0.731  0.7834 -2.7974  1.6520
 5772TIP3   OH238730   0.561   0.043  13.585 -0.3057  0.3426 -0.0492
 5772TIP3    H138731   0.599  -0.010  13.654 -0.4224  0.5210  0.1507
 5772TIP3    H238732   0.634   0.095  13.551 -0.2317  0.1942 -0.1184
 5773TIP3   OH238733   6.436   5.719  12.964  0.1257  0.7997 -0.1463
 5773TIP3    H138734   6.443   5.730  13.059 -0.9321 -0.6549  0.1147
 5773TIP3    H238735   6.362   5.774  12.939  0.0032  0.6777 -0.0474
 5774TIP3   OH238736   6.163   0.928  16.073  0.0495  0.2256  0.1392
 5774TIP3    H138737   6.090   0.954  16.017  0.1503 -0.7376 -0.4394
 5774TIP3    H238738   6.239   0.924  16.015  0.1973 -0.5800  0.3772
 5775TIP3   OH238739   5.034   0.967  15.601 -0.4394  0.6339 -0.2949
 5775TIP3    H138740   5.058   1.047  15.554  0.0533  0.7613  0.1639
 5775TIP3    H238741   5.080   0.897  15.555 -0.7827  0.6286 -0.6281
 5776TIP3   OH238742   2.024   0.109   2.126  0.7782  0.5320  0.3701
 5776TIP3    H138743   2.027   0.159   2.208 -0.9103  0.9455  0.2024
 5776TIP3    H238744   1.989   0.171   2.062  3.5416  0.6858 -1.0372
 5777TIP3   OH238745   5.091   6.722  13.548  0.2547  0.1946 -0.4315
 5777TIP3    H138746   5.006   6.728  13.505  1.2215 -0.2414 -2.4566
 5777TIP3    H238747   5.111   6.628  13.551  0.6737  0.2921  0.0234
 5778TIP3   OH238748   3.578   4.950  14.147 -0.4212  0.3029  0.2764
 5778TIP3    H138749   3.619   4.997  14.074 -1.9438  0.1714 -0.7067
 5778TIP3    H238750   3.643   4.951  14.216  1.3228 -0.1650 -1.3258
 5779TIP3   OH238751   6.196   5.421  15.396  0.2132 -0.1494 -0.6773
 5779TIP3    H138752   6.173   5.445  15.485  0.0365 -1.8003 -0.2621
 5779TIP3    H238753   6.280   5.464  15.380  0.5510 -0.3704  0.5048
 5780TIP3   OH238754   6.490   4.271   1.053 -0.0268  0.4569 -0.1236
 5780TIP3    H138755   6.402   4.233   1.047  0.8778 -1.7672  0.3796
 5780TIP3    H238756   6.527   4.235   1.134  2.0457 -0.1757 -1.3113
 5781TIP3   OH238757   3.555   1.077   5.647 -0.3238 -0.2432  1.0147
 5781TIP3    H138758   3.495   1.107   5.716 -0.3475  2.1767 -0.0364
 5781TIP3    H238759   3.503   1.013   5.597 -1.5093  0.6196  1.1067
 5782TIP3   OH238760   0.992   0.037  15.643 -0.4664  0.2257  0.4889
 5782TIP3    H138761   1.017   0.006  15.556 -0.3111  0.5486  0.4185
 5782TIP3    H238762   0.900   0.013  15.652 -0.0709 -1.2041  0.8489
 5783TIP3   OH238763   6.254   1.113  12.289  0.3803 -0.4354 -0.2399
 5783TIP3    H138764   6.198   1.113  12.367  2.3249 -1.0016  1.2034
 5783TIP3    H238765   6.257   1.205  12.262 -0.2648 -0.2214  0.3838
 5784TIP3   OH238766   0.058   0.581   3.775 -0.3526  0.2275  0.6892
 5784TIP3    H138767   0.139   0.594   3.725  0.4191 -0.9109  1.6241
 5784TIP3    H238768  -0.008   0.630   3.726  0.4792 -0.5259 -1.2115
 5785TIP3   OH238769   2.896   6.368   0.040  0.7138 -0.1531 -0.4020
 5785TIP3    H138770   2.967   6.347   0.101 -1.6142 -0.1476  2.4161
 5785TIP3    H238771   2.895   6.463   0.036 -0.9465 -0.0334  1.8776
 5786TIP3   OH238772   4.989   6.190  14.135  0.3101  0.3859 -0.4660
 5786TIP3    H138773   4.906   6.167  14.093  0.7117 -0.0884 -1.0046
 5786TIP3    H238774   5.032   6.106  14.151  1.1356  0.6824 -1.1098
 5787TIP3   OH238775   5.560   0.269   4.834 -0.6938 -0.1033  0.2741
 5787TIP3    H138776   5.571   0.348   4.887  1.9268 -1.0334  1.1840
 5787TIP3    H238777   5.465   0.259   4.825 -1.1118  1.7356  2.2641
 5788TIP3   OH238778   2.203   3.266  12.367  0.1803  0.3818  0.5225
 5788TIP3    H138779   2.130   3.205  12.373  0.2695  0.2814  0.5761
 5788TIP3    H238780   2.278   3.213  12.341  1.1790 -0.2575  4.4402
 5789TIP3   OH238781   0.245   1.995  17.192  0.3964  0.2288 -0.4368
 5789TIP3    H138782   0.250   2.090  17.204 -0.6839  0.1903  0.3900
 5789TIP3    H238783   0.305   1.959  17.257 -0.6618  0.2808  0.5950
 5790TIP3   OH238784   6.148   6.723  16.170  0.1919 -0.3040  0.3066
 5790TIP3    H138785   6.083   6.700  16.104 -0.7806  1.4906  0.6164
 5790TIP3    H238786   6.102   6.710  16.253  0.0839  1.3356  0.5163
 5791TIP3   OH238787   3.105   2.880  11.231 -0.6196  0.2541 -0.2786
 5791TIP3    H138788   3.098   2.784  11.235 -1.9990  0.4095  2.2244
 5791TIP3    H238789   3.018   2.911  11.256  0.0724  2.1515 -0.1972
 5792TIP3   OH238790   0.114   3.430  10.682  0.0286 -0.5076  0.4517
 5792TIP3    H138791   0.160   3.431  10.766  1.7887 -1.4277 -0.4808
 5792TIP3    H238792   0.184   3.438  10.617 -1.1293 -2.0825 -1.0028
 5793TIP3   OH238793   3.777   3.226   3.357  0.3989 -0.5515 -0.1184
 5793TIP3    H138794   3.742   3.146   3.317 -0.4518 -1.6908  2.7704
 5793TIP3    H238795   3.707   3.257   3.414  1.1679  1.6420 -0.3214
 5794TIP3   OH238796   2.001   5.716  12.402  0.4870 -0.5374 -0.3063
 5794TIP3    H138797   2.030   5.780  12.466  1.5300 -0.8738 -0.4300
 5794TIP3    H238798   1.905   5.721  12.404  0.5187 -0.4218  1.1410
 5795TIP3   OH238799   6.197   1.541   0.405 -0.6485  0.5871  0.2687
 5795TIP3    H138800   6.178   1.633   0.427  1.1544  1.0478 -0.0134
 5795TIP3    H238801   6.293   1.538   0.397 -0.6874 -1.3483  0.3833
 5796TIP3   OH238802   3.514   4.885   0.667 -0.0026 -0.3278  0.0609
 5796TIP3    H138803   3.464   4.931   0.735  1.7817 -0.0233  1.2060
 5796TIP3    H238804   3.605   4.890   0.697  0.7467 -0.7150 -2.0720
 5797TIP3   OH238805   2.748   3.058   1.521  0.1834  0.7506  0.7048
 5797TIP3    H138806   2.740   3.149   1.493  0.9689  1.0283  1.3311
 5797TIP3    H238807   2.711   3.056   1.609 -1.3200  0.1115  0.0679
 5798TIP3   OH238808   1.438   4.964  10.951 -0.0404 -0.1221  0.5759
 5798TIP3    H138809   1.428   5.031  10.883 -0.8063 -0.0049  0.7943
 5798TIP3    H238810   1.450   4.882  10.903  0.6084  0.1296  0.3071
 5799TIP3   OH238811   5.343   3.328   2.674 -0.3964 -0.8808  0.0494
 5799TIP3    H138812   5.310   3.241   2.694 -1.6578 -0.2356  0.8799
 5799TIP3    H238813   5.319   3.381   2.751  1.1296 -0.0017 -0.0439
 5800TIP3   OH238814   4.231   0.661  14.515 -0.3315  0.1244  0.3879
 5800TIP3    H138815   4.164   0.684  14.579 -1.4129  0.5192 -0.8804
 5800TIP3    H238816   4.184   0.613  14.447  0.6017  0.7524 -0.7104
 5801TIP3   OH238817   1.946   5.258   0.516  0.5480 -0.2214  0.3007
 5801TIP3    H138818   1.860   5.260   0.474  0.7248 -1.1654 -0.1169
 5801TIP3    H238819   1.972   5.350   0.520 -0.8236  0.1393  1.1686
 5802TIP3   OH238820   3.383   1.115   1.119 -0.1417 -0.7227 -0.1522
 5802TIP3    H138821   3.293   1.149   1.114  0.3916  0.6210 -1.1312
 5802TIP3    H238822   3.392   1.061   1.040 -0.1483 -0.9959  0.0348
 5803TIP3   OH238823   4.027   6.162  13.820 -0.0102  0.6799  0.1790
 5803TIP3    H138824   4.045   6.209  13.901  0.6133  1.6636 -0.5197
 5803TIP3    H238825   3.991   6.228  13.761  0.7146  0.2495 -0.7617
 5804TIP3   OH238826   5.294   2.144  11.541  0.1722  0.0777 -0.2897
 5804TIP3    H138827   5.349   2.129  11.464  0.6546 -0.2544  0.1168
 5804TIP3    H238828   5.209   2.169  11.505  0.7450  1.1754 -0.9215
 5805TIP3   OH238829   6.684   1.650  15.142  0.2517  0.0255  0.3163
 5805TIP3    H138830   6.593   1.670  15.125  0.3043 -0.5739 -0.7606
 5805TIP3    H238831   6.733   1.706  15.082  0.6561  1.4057  1.9187
 5806TIP3   OH238832   5.123   3.168  14.724 -0.7171 -0.0522  0.3324
 5806TIP3    H138833   5.176   3.210  14.792 -0.9655  0.2419  0.3447
 5806TIP3    H238834   5.089   3.089  14.765  0.7699 -0.9320 -0.0786
 5807TIP3   OH238835   6.008   0.198   4.896 -0.2937  0.4734  0.1077
 5807TIP3    H138836   5.947   0.264   4.930 -2.1165 -0.9725 -0.2835
 5807TIP3    H238837   6.050   0.162   4.974  0.4177  1.7837  0.3509
 5808TIP3   OH238838   1.784   5.485   2.370 -0.5692  0.2514  0.0024
 5808TIP3    H138839   1.861   5.520   2.414 -1.4915  1.1596  0.8936
 5808TIP3    H238840   1.805   5.492   2.276  1.0414 -0.9311  0.2466
 5809TIP3   OH238841   5.946   5.863   1.850 -0.0838 -0.2393 -0.0675
 5809TIP3    H138842   6.008   5.929   1.821 -1.1549  0.6056 -0.4788
 5809TIP3    H238843   5.922   5.890   1.939  1.3980 -1.5050  0.7435
 5810TIP3   OH238844   0.317   5.040  14.073 -0.2777 -0.0825 -0.0094
 5810TIP3    H138845   0.247   5.011  14.132  0.2338  2.7409  2.1171
 5810TIP3    H238846   0.270   5.082  14.000 -0.8560 -0.2640  0.2536
 5811TIP3   OH238847   2.003   2.316   5.442  0.0317 -0.3821 -0.0457
 5811TIP3    H138848   2.002   2.395   5.496  2.9237 -0.0002 -0.4627
 5811TIP3    H238849   1.910   2.297   5.425 -0.7219  3.8101 -1.2378
 5812TIP3   OH238850   0.018   1.420   0.899 -0.0285 -0.2506 -0.7394
 5812TIP3    H138851  -0.046   1.464   0.844 -0.9060  0.5641  0.8899
 5812TIP3    H238852  -0.018   1.425   0.987  1.4298 -1.3637 -0.0460
 5813TIP3   OH238853   6.582   3.661  12.882  0.1057  0.2151 -0.3494
 5813TIP3    H138854   6.641   3.602  12.836  0.9662 -0.3133  1.3772
 5813TIP3    H238855   6.621   3.747  12.871  0.1874  0.1230 -0.7874
 5814TIP3   OH238856   1.293   4.296  16.998 -0.5008  0.0179 -0.2197
 5814TIP3    H138857   1.250   4.374  16.962 -1.2704 -0.3047  0.0028
 5814TIP3    H238858   1.379   4.328  17.027 -1.1863  1.0157  0.8020
 5815TIP3   OH238859   2.457   4.774  12.421 -0.1219 -0.1509  0.1748
 5815TIP3    H138860   2.517   4.731  12.360 -1.8970 -1.8877 -0.3755
 5815TIP3    H238861   2.437   4.858  12.380 -1.0317 -1.1622 -1.4997
 5816TIP3   OH238862   3.573   5.493  14.817 -0.6002  0.0182 -0.2533
 5816TIP3    H138863   3.501   5.549  14.845  0.1577  1.0728 -0.3568
 5816TIP3    H238864   3.592   5.438  14.894 -2.2794 -1.1037 -0.6221
 5817TIP3   OH238865   3.156   3.129   2.168 -0.2857 -0.2574  0.0981
 5817TIP3    H138866   3.124   3.219   2.166  1.1224  0.3488  2.4516
 5817TIP3    H238867   3.218   3.125   2.095 -2.6926 -0.2963 -2.0027
 5818TIP3   OH238868   0.877   6.158  13.548 -0.0372  0.3003  0.0629
 5818TIP3    H138869   0.907   6.067  13.555 -0.7892 -0.2030 -2.4203
 5818TIP3    H238870   0.887   6.178  13.455 -0.1998  2.6640  0.5386
 5819TIP3   OH238871   0.493   5.396   5.587 -0.1869  0.3242 -0.2957
 5819TIP3    H138872   0.479   5.307   5.556  1.3429 -0.7448  1.9976
 5819TIP3    H238873   0.540   5.439   5.515 -2.6303 -0.0928 -2.2189
 5820TIP3   OH238874   1.937   5.460  16.424  0.1489 -0.1629  0.2265
 5820TIP3    H138875   1.848   5.464  16.458  0.2845  1.6174  0.3918
 5820TIP3    H238876   1.926   5.436  16.331 -0.4941  0.1065  0.2311
 5821TIP3   OH238877   4.026   0.528  14.407 -0.1947 -0.4979 -0.3033
 5821TIP3    H138878   4.016   0.507  14.314  1.4677 -0.4262 -0.5220
 5821TIP3    H238879   3.948   0.578  14.429 -0.4916 -0.3046 -1.7336
 5822TIP3   OH238880   6.571   1.905   1.231  0.1352  0.0655  0.7085
 5822TIP3    H138881   6.586   1.960   1.308 -0.1057 -0.8203  1.4001
 5822TIP3    H238882   6.587   1.816   1.262 -0.7716 -0.3696 -0.0564
 5823TIP3   OH238883   4.214   2.624  14.991  0.3267  0.0911  0.9666
 5823TIP3    H138884   4.124   2.609  14.964  1.0939  0.6537 -2.1044
 5823TIP3    H238885   4.220   2.719  15.002  1.0926  0.2931 -1.0326
 5824TIP3   OH238886   0.670   5.850  12.350  0.1943  0.2843 -0.1068
 5824TIP3    H138887   0.764   5.864  12.342  0.3309  0.3764  1.4935
 5824TIP3    H238888   0.652   5.863  12.443 -1.3806  0.1408 -0.3824
 5825TIP3   OH238889   4.252   5.381  15.830  0.4269 -0.2805 -0.0506
 5825TIP3    H138890   4.263   5.470  15.864  1.6378  0.8628 -3.2809
 5825TIP3    H238891   4.317   5.329  15.879  0.6228  0.8543  0.9250
 5826TIP3   OH238892   5.156   4.741  14.012 -0.3281 -0.0237  0.2975
 5826TIP3    H138893   5.191   4.781  13.932  0.5275 -0.2165  0.5713
 5826TIP3    H238894   5.198   4.655  14.016 -2.1904 -0.9937 -0.3056
 5827TIP3   OH238895   0.881   6.125   1.384 -0.2786 -0.3450  0.4769
 5827TIP3    H138896   0.973   6.114   1.410 -0.4467 -0.0817  1.2136
 5827TIP3    H238897   0.862   6.049   1.330  0.4215 -0.3238  0.1912
 5828TIP3   OH238898   5.477   0.732  13.734 -0.5128 -0.0223 -0.0087
 5828TIP3    H138899   5.418   0.691  13.671  1.2256 -3.0394  0.2453
 5828TIP3    H238900   5.546   0.667  13.749  1.3519  2.2797  1.8552
 5829TIP3   OH238901   6.044   0.728   3.440 -0.3218 -0.3433  0.7657
 5829TIP3    H138902   6.069   0.728   3.348  0.8855  1.3937  1.0703
 5829TIP3    H238903   5.971   0.790   3.445 -0.3054 -0.3409  1.0008
 5830TIP3   OH238904   2.751   0.569  16.850 -0.0046  0.0006  0.2749
 5830TIP3    H138905   2.808   0.527  16.786 -0.2337 -0.2811  0.2536
 5830TIP3    H238906   2.793   0.653  16.869 -0.7745  0.7783 -1.4485
 5831TIP3   OH238907   0.491   2.300   0.097 -0.3654  0.5008 -0.0985
 5831TIP3    H138908   0.513   2.390   0.075  0.5736  0.7034  1.5535
 5831TIP3    H238909   0.575   2.253   0.089 -0.4962  0.1248  0.6958
 5832TIP3   OH238910   4.014   0.433  15.506  0.0362 -0.2527 -0.4444
 5832TIP3    H138911   4.061   0.393  15.433  1.4580  1.4623 -0.4946
 5832TIP3    H238912   3.980   0.515  15.471 -1.2644 -0.5232  0.1751
 5833TIP3   OH238913   2.770   6.471   0.569  0.1640  0.2342 -0.0390
 5833TIP3    H138914   2.799   6.381   0.556  1.5484  0.4083  1.7206
 5833TIP3    H238915   2.779   6.512   0.482  1.4783 -0.7603 -0.3757
 5834TIP3   OH238916   6.552   3.549  15.636 -0.4601 -0.0219 -0.2623
 5834TIP3    H138917   6.510   3.582  15.556 -0.3789  0.5691 -0.0603
 5834TIP3    H238918   6.630   3.603  15.646  0.8629 -1.7016 -1.1377
 5835TIP3   OH238919   3.170   5.210  14.291  0.3309 -0.2506  0.3399
 5835TIP3    H138920   3.230   5.144  14.256 -2.0089 -1.4483 -1.6008
 5835TIP3    H238921   3.165   5.190  14.385  0.8467 -1.8798  0.0419
 5836TIP3   OH238922   5.466   4.423   5.792 -0.1798 -0.0401  0.4818
 5836TIP3    H138923   5.399   4.489   5.808 -0.1949 -0.1130  0.7214
 5836TIP3    H238924   5.425   4.362   5.730 -0.3226 -0.0640  0.5994
 5837TIP3   OH238925   3.090   0.633  14.968 -0.3143 -0.6445  0.3779
 5837TIP3    H138926   3.033   0.631  15.045  0.2421  1.4424  0.8799
 5837TIP3    H238927   3.030   0.645  14.894 -0.7535 -1.4785  0.5912
 5838TIP3   OH238928   4.429   3.233  17.061 -0.7984  0.2604  0.1266
 5838TIP3    H138929   4.501   3.251  17.001 -1.5877  0.8758 -0.6367
 5838TIP3    H238930   4.419   3.137  17.057 -0.3621  0.2227 -0.1459
 5839TIP3   OH238931   5.451   0.350  13.557  0.2476 -0.9773 -0.5313
 5839TIP3    H138932   5.388   0.295  13.509 -1.4309  2.4268 -2.4028
 5839TIP3    H238933   5.396   0.406  13.612  1.6448  1.2718 -1.3625
 5840TIP3   OH238934   4.882   3.843   3.893 -0.3330  0.0828 -0.1492
 5840TIP3    H138935   4.830   3.778   3.844  0.7349  0.8395 -2.3156
 5840TIP3    H238936   4.817   3.906   3.924 -1.0051 -0.2960 -0.7593
 5841TIP3   OH238937   0.812   4.445   1.488  0.2675 -0.3445 -0.5298
 5841TIP3    H138938   0.730   4.415   1.451  0.5326 -1.7398 -0.0331
 5841TIP3    H238939   0.880   4.405   1.433  0.6140  1.0368 -1.1180
 5842TIP3   OH238940   1.114   1.924  12.289  0.2132  0.1307 -0.1374
 5842TIP3    H138941   1.079   1.855  12.346  0.3631  2.0187  2.2905
 5842TIP3    H238942   1.102   1.889  12.200  2.3231 -3.9588  1.0742
 5843TIP3   OH238943   4.341   2.924   4.900  0.4043 -0.3163 -0.1632
 5843TIP3    H138944   4.413   2.860   4.899  0.5999 -0.1447  1.7060
 5843TIP3    H238945   4.318   2.933   4.992 -2.4802 -0.8582 -0.8043
 5844TIP3   OH238946   3.332   0.527  10.784 -0.4472 -0.1310 -0.1002
 5844TIP3    H138947   3.281   0.478  10.719 -0.1663 -1.0404  0.3532
 5844TIP3    H238948   3.372   0.598  10.734  1.5425 -2.0827 -1.4047
 5845TIP3   OH238949   0.180   1.061   2.472 -0.0091 -0.2342 -0.0435
 5845TIP3    H138950   0.212   0.982   2.429  1.4584 -0.8165  2.0282
 5845TIP3    H238951   0.127   1.029   2.545 -1.6618  0.7242 -0.8058
 5846TIP3   OH238952   4.206   0.424   1.357 -0.1547 -0.5636 -0.1560
 5846TIP3    H138953   4.232   0.431   1.265  0.1037  0.4757 -0.0093
 5846TIP3    H238954   4.225   0.333   1.380 -1.3853 -1.1601 -1.4719
 5847TIP3   OH238955   1.692   2.006   2.670 -0.0261 -0.3449 -0.0617
 5847TIP3    H138956   1.650   1.929   2.632 -0.1228 -0.0486 -0.5603
 5847TIP3    H238957   1.775   2.015   2.623 -0.9311  1.0472 -1.4603
 5848TIP3   OH238958   6.532   3.500   3.329 -0.4122  0.0863  0.3818
 5848TIP3    H138959   6.522   3.549   3.410 -0.1847 -0.3352  0.6682
 5848TIP3    H238960   6.443   3.478   3.302 -0.5720  1.4806 -0.2616
 5849TIP3   OH238961   4.713   1.915   5.841 -0.4705  0.1512  0.2922
 5849TIP3    H138962   4.802   1.891   5.868 -0.2297  1.5552  0.7935
 5849TIP3    H238963   4.668   1.938   5.923 -1.1462 -0.0740 -0.0111
 5850TIP3   OH238964   4.905   6.743  14.748 -0.4123 -0.8813  0.3527
 5850TIP3    H138965   4.989   6.769  14.711 -0.5474 -1.7014 -0.5579
 5850TIP3    H238966   4.845   6.814  14.724  0.0230 -0.2838  1.0257
 5851TIP3   OH238967   5.625   6.217   4.905  0.5241  0.3998 -0.7305
 5851TIP3    H138968   5.565   6.231   4.978  0.3357  1.0802 -1.0086
 5851TIP3    H238969   5.708   6.254   4.935  1.8431 -3.7328  1.0672
 5852TIP3   OH238970   1.722   2.658  12.042  0.0860  0.1599  0.1818
 5852TIP3    H138971   1.699   2.730  11.982  0.3546  0.9442  1.0177
 5852TIP3    H238972   1.744   2.585  11.984  1.2243  1.1849 -0.7021
 5853TIP3   OH238973   1.706   4.915  10.839  0.0440  0.1586 -0.0048
 5853TIP3    H138974   1.635   4.902  10.776  0.0557  0.6519 -0.1291
 5853TIP3    H238975   1.717   5.010  10.842  0.1064  0.1320  0.6723
 5854TIP3   OH238976   3.552   6.646  12.647  0.2493 -0.1153  0.3486
 5854TIP3    H138977   3.485   6.705  12.613 -1.2423 -1.2275  1.3137
 5854TIP3    H238978   3.605   6.623  12.571 -1.1455 -0.1139 -0.6308
 5855TIP3   OH238979   0.557   2.809  16.976  0.1720  0.3106 -0.3058
 5855TIP3    H138980   0.651   2.818  16.989  0.0574 -0.3766  1.1944
 5855TIP3    H238981   0.533   2.734  17.032 -1.6217  1.8930  1.0997
 5856TIP3   OH238982   6.279   4.195   3.805  0.7218  0.0083  0.0527
 5856TIP3    H138983   6.275   4.289   3.823  0.0674  0.0889 -0.4707
 5856TIP3    H238984   6.214   4.181   3.736 -1.6915 -1.3655  2.4971
 5857TIP3   OH238985   1.854   1.309   6.267  0.0373 -0.0103 -0.0499
 5857TIP3    H138986   1.785   1.242   6.269 -0.0832  0.0491 -1.8316
 5857TIP3    H238987   1.935   1.260   6.259  0.0120  0.0296 -0.5336
 5858TIP3   OH238988   1.308   0.096   0.532 -0.0718 -0.0559 -0.1706
 5858TIP3    H138989   1.359   0.033   0.584 -0.9284 -1.6318 -1.2149
 5858TIP3    H238990   1.369   0.127   0.466 -0.5244 -2.2046 -1.6380
 5859TIP3   OH238991   6.081   4.175  16.785 -0.1385  0.1968 -0.0983
 5859TIP3    H138992   6.101   4.095  16.737 -2.1741  0.0578 -0.7611
 5859TIP3    H238993   6.006   4.153  16.840 -2.2833  2.2608 -2.0932
 5860TIP3   OH238994   3.351   3.789   1.769  0.1056 -0.3129  0.0652
 5860TIP3    H138995   3.327   3.839   1.691  0.8255  1.3543  0.8712
 5860TIP3    H238996   3.321   3.700   1.752  2.3650 -0.5523 -3.1093
 5861TIP3   OH238997   1.924   1.180   0.316  0.0365 -0.1003  0.0593
 5861TIP3    H138998   1.944   1.223   0.233  1.6208 -0.1008  0.4368
 5861TIP3    H238999   1.962   1.237   0.382 -2.1058  0.4333  0.8732
 5862TIP3   OH239000   0.916   2.458  16.265  0.1574  0.0429  0.0874
 5862TIP3    H139001   0.881   2.487  16.349 -0.1448  2.3239 -0.8031
 5862TIP3    H239002   0.839   2.430  16.215  0.2834 -0.7881  0.3379
 5863TIP3   OH239003   6.761   3.685  11.276  0.1744 -0.4076 -0.4348
 5863TIP3    H139004   6.756   3.667  11.370 -0.4847  2.4658  0.1427
 5863TIP3    H239005   6.851   3.663  11.252  0.8830  0.5182  1.2635
 5864TIP3   OH239006   1.960   1.361  16.151 -0.8108  0.2696 -0.1292
 5864TIP3    H139007   1.989   1.385  16.239  0.6012 -0.2579 -0.4495
 5864TIP3    H239008   2.019   1.408  16.092 -2.0767  1.0351 -0.8098
 5865TIP3   OH239009   2.489   1.649   0.950  0.2137 -0.5380  0.3427
 5865TIP3    H139010   2.579   1.616   0.956 -0.2361 -1.9827 -0.8275
 5865TIP3    H239011   2.499   1.744   0.956  1.8595 -0.6586 -0.1426
 5866TIP3   OH239012   1.732   2.246   5.306  0.6178  0.1044  0.5094
 5866TIP3    H139013   1.718   2.341   5.304  1.1705  0.1861  0.3295
 5866TIP3    H239014   1.649   2.210   5.336 -0.3043  0.5031 -1.4672
 5867TIP3   OH239015   3.278   3.313   0.166  0.3078 -0.0783  0.8841
 5867TIP3    H139016   3.263   3.219   0.179 -0.3573  0.0275  0.8918
 5867TIP3    H239017   3.195   3.354   0.190  0.8086  0.5712  1.5185
 5868TIP3   OH239018   0.900   0.095  13.706 -0.2391 -0.4377 -0.3670
 5868TIP3    H139019   0.875   0.120  13.617  1.4078  0.4515 -0.6010
 5868TIP3    H239020   0.879   0.171  13.760 -1.3577 -1.0225  0.0428
 5869TIP3   OH239021   5.146   1.322   2.909  0.1094 -0.2468  0.2215
 5869TIP3    H139022   5.224   1.287   2.953 -0.8937 -1.3180  1.1611
 5869TIP3    H239023   5.146   1.279   2.823  1.1746  0.6204 -0.2247
 5870TIP3   OH239024   2.130   4.507   1.932  0.1170  0.6884 -0.2419
 5870TIP3    H139025   2.130   4.419   1.970 -0.4595  0.2641 -1.2124
 5870TIP3    H239026   2.110   4.565   2.006 -0.9243 -0.1220  0.1269
 5871TIP3   OH239027   6.100   1.939   2.019  0.3771  0.0712 -0.2907
 5871TIP3    H139028   6.179   1.901   1.981 -0.0468 -0.1283 -0.9805
 5871TIP3    H239029   6.128   1.972   2.105  0.9323 -1.0763 -0.0252
 5872TIP3   OH239030   0.620   1.421  12.664 -0.1604 -0.3014  0.1003
 5872TIP3    H139031   0.594   1.442  12.754 -2.4272  0.5498 -0.7178
 5872TIP3    H239032   0.578   1.337  12.646 -2.8744  1.2820 -1.3755
 5873TIP3   OH239033   4.802   4.867  15.147  0.3913 -0.0043 -0.2757
 5873TIP3    H139034   4.846   4.911  15.074  2.3415 -0.9634  0.2907
 5873TIP3    H239035   4.857   4.791  15.167 -1.3923 -1.1006  0.6458
 5874TIP3   OH239036   1.217   0.283  10.892 -0.3535 -0.4964 -0.6367
 5874TIP3    H139037   1.304   0.256  10.920  0.0580 -0.1664 -1.5578
 5874TIP3    H239038   1.163   0.205  10.903  0.2266 -0.9259 -0.7649
 5875TIP3   OH239039   0.933   2.812   4.886 -0.0625 -0.3151 -0.3937
 5875TIP3    H139040   0.909   2.883   4.946  0.5916 -0.0385 -0.4548
 5875TIP3    H239041   0.856   2.800   4.831 -1.0321 -1.2462  1.1561
 5876TIP3   OH239042   3.461   5.030   5.098  0.3405 -0.7941  0.1254
 5876TIP3    H139043   3.466   5.094   5.027  0.1547  0.3928  1.1729
 5876TIP3    H239044   3.497   4.949   5.059  1.5458  0.2099 -0.8900
 5877TIP3   OH239045   4.761   5.265   6.408 -0.3870 -0.1682  0.0669
 5877TIP3    H139046   4.782   5.278   6.500 -0.5516 -0.8213  0.1967
 5877TIP3    H239047   4.835   5.304   6.361 -0.3769  0.3013  0.4678
 5878TIP3   OH239048   0.651   4.208   5.017  0.8653  0.4587 -0.2703
 5878TIP3    H139049   0.590   4.142   4.984  3.8626 -1.4418 -2.3395
 5878TIP3    H239050   0.644   4.202   5.112 -1.0574 -0.7596 -0.4594
 5879TIP3   OH239051   6.103   4.906   0.274 -0.4639 -0.1017  0.1790
 5879TIP3    H139052   6.129   4.964   0.345  1.6144  0.6894 -1.1441
 5879TIP3    H239053   6.014   4.931   0.253 -0.5411  0.7244  1.4535
 5880TIP3   OH239054   0.443   5.835   5.659  0.4574 -0.4702  0.5042
 5880TIP3    H139055   0.415   5.905   5.718 -0.1976 -1.1706  1.0284
 5880TIP3    H239056   0.419   5.755   5.704  1.4794 -1.0436  0.0400
 5881TIP3   OH239057   3.989   6.029  14.144 -0.2691  0.1337  0.2051
 5881TIP3    H139058   3.990   6.117  14.107  1.8655 -0.4059 -1.0854
 5881TIP3    H239059   4.077   5.995  14.128 -0.8844 -2.0275  1.2193
 5882TIP3   OH239060   1.857   2.660   3.185  0.0724  0.1643  0.4987
 5882TIP3    H139061   1.792   2.718   3.225  1.3077  0.9236  1.4332
 5882TIP3    H239062   1.839   2.574   3.223  0.7284  0.7202  2.1038
 5883TIP3   OH239063   6.561   4.335  15.568  0.3979 -0.1534 -0.2974
 5883TIP3    H139064   6.644   4.292  15.547  0.4834 -1.7161  2.9074
 5883TIP3    H239065   6.582   4.428  15.569  2.2506 -0.5505  0.8704
 5884TIP3   OH239066   0.527   3.740   3.282 -0.3272  0.1975 -0.5293
 5884TIP3    H139067   0.480   3.659   3.302 -0.1978  0.1922 -0.2356
 5884TIP3    H239068   0.605   3.713   3.235 -0.3100  0.1554 -0.4764
 5885TIP3   OH239069   4.931   6.213   5.331  0.0336  0.0494  0.3560
 5885TIP3    H139070   4.957   6.124   5.355  1.7253  0.1581 -0.9706
 5885TIP3    H239071   4.889   6.203   5.245 -1.3580  0.3192  0.9896
 5886TIP3   OH239072   0.081   1.638   4.954 -0.2538 -0.4902  0.3130
 5886TIP3    H139073   0.060   1.731   4.950  0.4498 -0.3291  0.3922
 5886TIP3    H239074   0.009   1.595   4.908 -0.9273  0.0426  0.8635
 5887TIP3   OH239075   3.154   6.519   0.718  0.3996  0.2047 -0.2103
 5887TIP3    H139076   3.083   6.535   0.780 -1.3020 -0.5352 -1.9365
 5887TIP3    H239077   3.229   6.496   0.774 -1.0155 -0.1645  1.5970
 5888TIP3   OH239078   5.839   0.718  12.681 -0.2064  0.0054  0.1478
 5888TIP3    H139079   5.822   0.632  12.720  1.7088 -0.4403  0.0220
 5888TIP3    H239080   5.901   0.760  12.740  0.3271  0.5423 -0.7869
 5889TIP3   OH239081   5.575   2.043   5.916  0.3431  0.1549 -0.0886
 5889TIP3    H139082   5.557   1.950   5.902 -1.3829  0.1506  1.8075
 5889TIP3    H239083   5.666   2.045   5.948  0.2343 -0.9325  0.3206
 5890TIP3   OH239084   4.461   5.906   2.372 -0.5206  0.5878 -0.6954
 5890TIP3    H139085   4.537   5.959   2.397 -1.3160  0.8298  1.2969
 5890TIP3    H239086   4.494   5.846   2.305  1.5790  0.2706  0.5905
 5891TIP3   OH239087   1.502   6.293  15.388  0.1745 -0.2260  0.2474
 5891TIP3    H139088   1.408   6.280  15.401  0.0213 -0.5395 -1.1179
 5891TIP3    H239089   1.540   6.271  15.473 -0.9274 -0.7228  0.6313
 5892TIP3   OH239090   3.594   1.241   4.280  0.1978 -0.1568 -0.2947
 5892TIP3    H139091   3.595   1.291   4.198  1.6640 -1.1916 -0.9238
 5892TIP3    H239092   3.686   1.227   4.301 -0.1881 -1.1889  0.7549
 5893TIP3   OH239093   5.766   3.758   2.570  0.1494 -0.0795 -0.0457
 5893TIP3    H139094   5.856   3.727   2.568 -0.1024 -0.9347  1.1304
 5893TIP3    H239095   5.714   3.679   2.551 -0.3519  0.4544 -0.9595
 5894TIP3   OH239096   3.353   3.916   3.661 -0.5465  0.3906  0.1205
 5894TIP3    H139097   3.423   3.868   3.616 -0.8548  1.7590 -1.9177
 5894TIP3    H239098   3.399   3.968   3.727 -0.0306 -1.3565  1.1531
 5895TIP3   OH239099   1.097   3.266   4.722  0.1944 -0.6204  0.3940
 5895TIP3    H139100   1.004   3.246   4.729  0.3037 -0.9065  1.0997
 5895TIP3    H239101   1.105   3.356   4.752  0.2422 -0.8270  0.9962
 5896TIP3   OH239102   4.186   6.439  13.748 -0.6571  0.0115  0.5642
 5896TIP3    H139103   4.095   6.425  13.721 -0.2616  0.2301 -0.8826
 5896TIP3    H239104   4.237   6.433  13.668  0.5144  0.8754  1.2231
 5897TIP3   OH239105   4.510   2.881   0.296 -0.0055  1.0262 -0.5336
 5897TIP3    H139106   4.481   2.903   0.208 -0.4277 -0.1091 -0.6898
 5897TIP3    H239107   4.441   2.914   0.354  0.9858  3.1238 -0.4928
 5898TIP3   OH239108   5.856   3.812  11.201 -0.0680 -0.0402  0.3920
 5898TIP3    H139109   5.765   3.793  11.178 -0.5628 -0.0853  2.3371
 5898TIP3    H239110   5.879   3.745  11.265  0.6095  1.2989  1.5869
 5899TIP3   OH239111   4.246   6.151  15.163  0.0535  0.7862  0.3716
 5899TIP3    H139112   4.207   6.143  15.250  0.4333  0.1690  0.4917
 5899TIP3    H239113   4.194   6.092  15.107  1.3281 -0.7209  0.7232
 5900TIP3   OH239114   5.537   5.660   1.295 -0.3475  0.1769  0.6355
 5900TIP3    H139115   5.479   5.696   1.362  1.1225  0.6787  1.6792
 5900TIP3    H239116   5.534   5.565   1.310 -3.5497 -0.1370 -1.5602
 5901TIP3   OH239117   1.057   1.452  13.201  0.2827 -0.1105 -0.2130
 5901TIP3    H139118   1.127   1.386  13.197 -0.0666 -0.4384 -0.8624
 5901TIP3    H239119   0.998   1.419  13.270 -0.2854 -0.8689 -1.0493
 5902TIP3   OH239120   2.535   0.404   0.380  0.1197  0.4535 -0.6721
 5902TIP3    H139121   2.578   0.356   0.309  1.9135  1.1118 -0.0715
 5902TIP3    H239122   2.604   0.459   0.417 -1.2560  1.5250  0.3640
 5903TIP3   OH239123   2.684   4.805   4.915 -0.1785  0.4243  0.2099
 5903TIP3    H139124   2.699   4.723   4.867 -0.5204 -0.4353  1.5492
 5903TIP3    H239125   2.625   4.781   4.986 -1.1459  2.0695 -0.0089
 5904TIP3   OH239126   3.837   0.189   4.209 -0.4322 -0.2117  0.2027
 5904TIP3    H139127   3.911   0.149   4.164  0.6855  2.7134 -0.6853
 5904TIP3    H239128   3.760   0.161   4.161  0.2970 -1.5090 -0.2032
 5905TIP3   OH239129   3.706   2.472   0.059 -0.2090  0.0998  0.3993
 5905TIP3    H139130   3.760   2.551   0.061 -0.7443  0.4632  0.6885
 5905TIP3    H239131   3.753   2.410   0.115  0.2806  0.1649  0.0681
 5906TIP3   OH239132   5.299   5.926   4.772 -0.6058 -0.2934  0.0663
 5906TIP3    H139133   5.265   6.013   4.790  0.4862 -0.1547  1.5286
 5906TIP3    H239134   5.357   5.907   4.846  0.6063 -1.5047 -1.1702
 5907TIP3   OH239135   2.089   5.227   3.518 -0.3922  0.5427 -0.0145
 5907TIP3    H139136   2.009   5.196   3.561 -0.3668  0.4180 -0.0553
 5907TIP3    H239137   2.150   5.244   3.589 -1.1202  2.5653  0.1478
 5908TIP3   OH239138   6.298   3.273   0.544  0.4197  0.1023  0.2183
 5908TIP3    H139139   6.215   3.278   0.496 -0.1589  1.1149  1.3080
 5908TIP3    H239140   6.286   3.331   0.619  1.2085 -1.6510  1.7534
 5909TIP3   OH239141   5.732   4.170  16.604  0.2768 -0.0716 -0.5921
 5909TIP3    H139142   5.771   4.103  16.660  0.0488 -0.0823 -0.4484
 5909TIP3    H239143   5.758   4.144  16.515 -0.3583 -0.7239 -0.5940
 5910TIP3   OH239144   5.804   0.739  14.368  0.6084 -0.0828  0.2942
 5910TIP3    H139145   5.786   0.664  14.311 -0.7004  0.9651 -0.7004
 5910TIP3    H239146   5.887   0.775  14.335  0.4128 -0.1341 -0.2525
 5911TIP3   OH239147   3.423   3.250  11.315  0.3147 -0.0608 -0.6229
 5911TIP3    H139148   3.435   3.345  11.315  2.5154 -0.3030 -0.1270
 5911TIP3    H239149   3.394   3.229  11.226  2.1435  0.8374 -1.4461
 5912TIP3   OH239150   5.145   6.664   4.222 -0.3548 -0.2312 -0.1495
 5912TIP3    H139151   5.069   6.666   4.164 -1.2718  1.4167  1.0845
 5912TIP3    H239152   5.210   6.613   4.173 -1.5627 -0.0376 -2.0416
 5913TIP3   OH239153   4.861   6.421  16.703  0.5277  0.0880  0.5476
 5913TIP3    H139154   4.879   6.364  16.629 -2.4688  0.8327 -0.8268
 5913TIP3    H239155   4.780   6.386  16.742 -0.5960  2.5309  0.5136
 5914TIP3   OH239156   4.207   4.939  16.595  0.5995 -0.1401  0.0178
 5914TIP3    H139157   4.257   4.902  16.668  0.5994 -1.9087 -0.8375
 5914TIP3    H239158   4.261   5.011  16.563  0.5111  0.7863  1.8615
 5915TIP3   OH239159   4.069   5.889   0.399 -0.4254  0.0151  0.1719
 5915TIP3    H139160   4.043   5.887   0.307  0.4528 -0.4370 -0.0814
 5915TIP3    H239161   3.994   5.926   0.445 -2.1903 -2.8764 -0.2808
 5916TIP3   OH239162   3.039   3.690   2.507 -0.2115 -0.1137  0.3645
 5916TIP3    H139163   2.952   3.713   2.541 -0.3638  0.9236 -0.7013
 5916TIP3    H239164   3.066   3.615   2.559 -1.5571 -0.1521  1.0223
 5917TIP3   OH239165   5.501   5.854   0.924  0.4624  0.2128 -0.5862
 5917TIP3    H139166   5.568   5.915   0.956  0.7121 -0.9395  1.1778
 5917TIP3    H239167   5.549   5.785   0.879  0.8107 -2.2095  3.2691
 5918TIP3   OH239168   1.455   0.754   2.438  0.0911  0.1798  0.1784
 5918TIP3    H139169   1.402   0.684   2.401 -0.0386 -0.5631  1.7457
 5918TIP3    H239170   1.544   0.719   2.441  0.1547  0.3482  0.2991
 5919TIP3   OH239171   1.976   2.453   2.305  0.3353  0.0866 -0.6000
 5919TIP3    H139172   1.895   2.504   2.299 -0.1064 -0.6022 -0.5534
 5919TIP3    H239173   2.046   2.518   2.296 -0.2066  0.8626  0.6496
 5920TIP3   OH239174   3.277   4.548  12.856  0.3133 -0.5367  0.2388
 5920TIP3    H139175   3.254   4.463  12.893  1.6737 -0.2923  1.7198
 5920TIP3    H239176   3.239   4.611  12.916 -1.7402 -0.0619 -1.5201
 5921TIP3   OH239177   2.419   2.899   3.470 -0.1160  0.1385  0.2136
 5921TIP3    H139178   2.463   2.849   3.539  0.2245 -0.6505 -0.5668
 5921TIP3    H239179   2.407   2.836   3.399 -0.7874  0.8525 -0.3119
 5922TIP3   OH239180   4.373   2.094   1.153  0.3000  0.0720  0.1111
 5922TIP3    H139181   4.390   2.045   1.233  2.9441 -0.0761 -0.5015
 5922TIP3    H239182   4.436   2.166   1.154  0.2928  0.1433 -1.7466
 5923TIP3   OH239183   3.811   4.499   4.447  0.2579 -0.0869 -0.1905
 5923TIP3    H139184   3.792   4.589   4.472  0.2141 -0.1768  0.0957
 5923TIP3    H239185   3.896   4.504   4.402  0.5054  0.0173  0.2861
 5924TIP3   OH239186   4.801   2.125  13.442 -0.4696  0.4640  0.1271
 5924TIP3    H139187   4.883   2.168  13.416  0.3616 -0.6198  0.8821
 5924TIP3    H239188   4.732   2.174  13.397  0.7950 -0.4465 -2.8835
 5925TIP3   OH239189   0.133   2.199  11.527 -0.2752  0.3386  0.1755
 5925TIP3    H139190   0.126   2.244  11.611  0.1797 -1.5280  1.2332
 5925TIP3    H239191   0.189   2.123  11.544 -0.4656 -0.2646 -1.7192
 5926TIP3   OH239192   3.278   3.964   1.571 -0.2823 -0.0722  0.0840
 5926TIP3    H139193   3.247   4.029   1.508 -1.3536 -1.4490 -0.8521
 5926TIP3    H239194   3.370   3.985   1.585 -0.4649  1.2664 -0.6695
 5927TIP3   OH239195   5.344   0.287  16.819  0.0271 -0.1675  0.0809
 5927TIP3    H139196   5.251   0.284  16.798  0.3255 -3.0964 -1.0731
 5927TIP3    H239197   5.386   0.319  16.739  0.0180  1.2817  0.6430
 5928TIP3   OH239198   0.184   4.639   5.089 -0.3658  0.5350 -0.1532
 5928TIP3    H139199   0.154   4.635   4.998  0.0575  0.9561 -0.3125
 5928TIP3    H239200   0.134   4.571   5.133  1.4526 -1.6278 -1.2901
 5929TIP3   OH239201   6.185   0.012   4.676 -0.5293 -0.2715  0.0853
 5929TIP3    H139202   6.110   0.006   4.618 -0.3946  2.5709 -0.4577
 5929TIP3    H239203   6.148   0.039   4.760 -0.1984  0.4266  0.0088
 5930TIP3   OH239204   3.200   6.578  12.629 -0.2262 -0.0813  0.0206
 5930TIP3    H139205   3.146   6.539  12.560 -0.5971 -0.2355  0.3893
 5930TIP3    H239206   3.180   6.525  12.707  1.2073 -0.7487 -0.0627
 5931TIP3   OH239207   2.077   4.271  11.042  0.0900  0.3289 -0.2136
 5931TIP3    H139208   2.056   4.275  10.949 -2.9670 -0.7997  0.3752
 5931TIP3    H239209   2.064   4.179  11.066 -0.6417  0.8918  1.6459
 5932TIP3   OH239210   4.344   4.720   1.955 -0.4102 -0.0803 -0.4276
 5932TIP3    H139211   4.405   4.648   1.942 -1.6846 -1.2292 -0.1246
 5932TIP3    H239212   4.294   4.724   1.874  0.6570  1.4488 -1.0299
 5933TIP3   OH239213   3.036   3.055  17.046 -0.6311 -0.4948 -0.3661
 5933TIP3    H139214   2.948   3.073  17.077 -0.7001  0.7452 -1.2249
 5933TIP3    H239215   3.093   3.106  17.103 -0.4345 -1.5187  0.3712
 5934TIP3   OH239216   4.415   2.290   1.488  0.2184 -0.2450 -1.0448
 5934TIP3    H139217   4.476   2.326   1.423  0.8474 -1.6299 -1.2366
 5934TIP3    H239218   4.469   2.232   1.541 -0.0419  1.7142  1.4480
 5935TIP3   OH239219   3.380   4.161   5.526  0.2949  0.4173 -0.1041
 5935TIP3    H139220   3.353   4.191   5.440  1.6163  0.7601 -0.4072
 5935TIP3    H239221   3.442   4.227   5.557  0.7643 -0.3340  0.5882
 5936TIP3   OH239222   1.006   6.563  13.535  0.6824  0.8092  0.1470
 5936TIP3    H139223   0.938   6.518  13.484  1.5807 -0.8413  0.3633
 5936TIP3    H239224   0.962   6.591  13.615 -0.1790  1.3636 -0.5069
 5937TIP3   OH239225   5.459   0.100  14.146  0.0241  0.3866  0.6042
 5937TIP3    H139226   5.422   0.138  14.067  1.5862  1.0073  0.1624
 5937TIP3    H239227   5.406   0.136  14.217 -1.1585  0.0971 -0.1224
 5938TIP3   OH239228   4.347   6.414  12.659 -0.2249 -0.0196 -0.0576
 5938TIP3    H139229   4.365   6.394  12.751  1.2394  1.3639 -0.0331
 5938TIP3    H239230   4.325   6.508  12.659 -1.3763 -0.2815 -0.9572
 5939TIP3   OH239231   2.705   2.227  16.557  0.5726  0.7553  0.3608
 5939TIP3    H139232   2.661   2.232  16.472 -0.0757  2.0815  0.7630
 5939TIP3    H239233   2.741   2.138  16.560  2.0876  1.2359 -2.0271
 5940TIP3   OH239234   4.889   2.429   0.474 -0.6867  0.1162  0.5187
 5940TIP3    H139235   4.892   2.371   0.550 -1.4739 -0.7672 -0.1178
 5940TIP3    H239236   4.901   2.371   0.399 -1.0557  0.8269 -0.0970
 5941TIP3   OH239237   0.029   0.142  13.941  0.2707 -0.1099 -0.4289
 5941TIP3    H139238   0.080   0.150  14.022  0.1586 -2.6642 -0.0889
 5941TIP3    H239239   0.096   0.131  13.872  0.2627 -0.8686 -0.3138
 5942TIP3   OH239240   0.754   2.977  16.038 -0.3514  0.0898  0.4028
 5942TIP3    H139241   0.779   2.945  15.951 -0.0135 -0.4678  0.7063
 5942TIP3    H239242   0.724   3.067  16.022  0.5241  0.2869 -0.1690
 5943TIP3   OH239243   1.708   0.937  11.983  0.6635 -0.0827 -0.0403
 5943TIP3    H139244   1.706   0.846  11.953 -1.4348 -1.1128  2.9627
 5943TIP3    H239245   1.801   0.960  11.981  1.3384 -2.5873 -0.0549
 5944TIP3   OH239246   2.554   0.972   5.273 -0.0418  0.5381 -0.3861
 5944TIP3    H139247   2.625   0.909   5.262 -0.9138 -0.6005  0.3545
 5944TIP3    H239248   2.576   1.019   5.353  0.5513  1.1005 -0.8762
 5945TIP3   OH239249   1.514   2.401   2.183 -0.4026 -0.0949 -0.4871
 5945TIP3    H139250   1.558   2.329   2.228 -1.2599 -0.9138 -0.9577
 5945TIP3    H239251   1.536   2.388   2.091 -0.3643  0.3881 -0.5456
 5946TIP3   OH239252   4.695   0.197   2.598  0.4720 -0.4275 -0.2267
 5946TIP3    H139253   4.712   0.174   2.689 -0.3009 -0.1158  0.0063
 5946TIP3    H239254   4.781   0.206   2.558  0.8837  2.1016  1.1611
 5947TIP3   OH239255   1.333   4.750   3.723 -0.0601 -0.8341 -0.2500
 5947TIP3    H139256   1.301   4.737   3.813 -0.9609  0.8244 -0.3119
 5947TIP3    H239257   1.264   4.712   3.668 -0.5018  0.0287 -0.2962
 5948TIP3   OH239258   1.932   3.849   1.471  0.8339  0.8384  0.1256
 5948TIP3    H139259   1.931   3.759   1.503 -1.8683  0.5692 -0.5330
 5948TIP3    H239260   1.937   3.903   1.550  0.9962  0.1071  0.6166
 5949TIP3   OH239261   4.202   4.760  14.045 -0.6762 -1.0668  0.3163
 5949TIP3    H139262   4.107   4.778  14.045 -0.5813 -0.4876  1.3397
 5949TIP3    H239263   4.211   4.676  14.001 -1.3490  0.4818 -2.9162
 5950TIP3   OH239264   2.584   6.293  12.179 -0.3642  0.3000  0.0436
 5950TIP3    H139265   2.511   6.352  12.164 -0.5937  0.2346  0.8524
 5950TIP3    H239266   2.597   6.249  12.095 -2.2192 -0.7642  0.2753
 5951TIP3   OH239267   0.384   4.855  10.072 -0.2572 -0.6846 -0.0888
 5951TIP3    H139268   0.394   4.907   9.992 -1.0378 -0.8368 -0.3001
 5951TIP3    H239269   0.395   4.764  10.042  0.5619 -0.6707  0.1791
 5952TIP3   OH239270   0.491   0.880  10.890  0.3723  0.2548  0.3229
 5952TIP3    H139271   0.573   0.891  10.842  0.6715 -0.0325  0.7658
 5952TIP3    H239272   0.431   0.841  10.826  0.4508  0.8628 -0.1240
 5953TIP3   OH239273   5.196   5.904   2.778 -0.1846 -0.0458 -0.0764
 5953TIP3    H139274   5.232   5.904   2.689  0.8707 -0.2750  0.3370
 5953TIP3    H239275   5.198   5.812   2.805  0.3926  0.1396  0.5265
 5954TIP3   OH239276   6.106   2.312  14.325 -0.3185 -0.2896  0.0893
 5954TIP3    H139277   6.076   2.344  14.410 -1.2222 -1.1519  0.1043
 5954TIP3    H239278   6.026   2.296  14.276  0.2082  0.5181 -1.0508
 5955TIP3   OH239279   2.603   5.641  16.570 -0.1839 -0.1391 -0.0551
 5955TIP3    H139280   2.523   5.630  16.518 -0.5172  0.4636  0.3214
 5955TIP3    H239281   2.643   5.554  16.572 -0.6004 -0.3478 -0.6134
 5956TIP3   OH239282   4.847   3.497  15.964  0.0104  0.1348  0.1013
 5956TIP3    H139283   4.848   3.520  16.057  0.4228 -0.5649  0.2707
 5956TIP3    H239284   4.939   3.480  15.942  0.0828  1.5880 -0.7624
 5957TIP3   OH239285   1.358   4.434   4.868  0.4561  0.4527  0.3822
 5957TIP3    H139286   1.387   4.394   4.786 -0.2914  2.3111 -0.8312
 5957TIP3    H239287   1.269   4.401   4.880  0.9481 -0.6537  1.0114
 5958TIP3   OH239288   5.865   0.753  12.354 -0.2251 -0.4896 -0.0375
 5958TIP3    H139289   5.822   0.835  12.381  0.1133  0.0270 -1.0384
 5958TIP3    H239290   5.793   0.692  12.338 -0.5044 -0.2067  0.1427
 5959TIP3   OH239291   5.330   2.533   1.843 -0.1386 -0.0977  0.2583
 5959TIP3    H139292   5.274   2.512   1.769  1.1341  1.9184 -1.3387
 5959TIP3    H239293   5.276   2.587   1.900 -0.7468 -0.6389  0.1931
 5960TIP3   OH239294   4.373   5.240  16.342  0.9219  0.8809  0.1242
 5960TIP3    H139295   4.382   5.210  16.432  1.6430 -0.1096 -0.2619
 5960TIP3    H239296   4.462   5.233  16.305  0.3265 -0.2950 -1.1320
 5961TIP3   OH239297   6.502   1.597   3.018 -0.1820 -1.1423  0.1907
 5961TIP3    H139298   6.563   1.547   3.072 -0.7092 -2.1643 -0.1315
 5961TIP3    H239299   6.429   1.618   3.076 -0.8482 -2.4274 -0.1623
 5962TIP3   OH239300   6.109   2.472  13.170  0.0477  0.3878  0.3867
 5962TIP3    H139301   6.163   2.548  13.148 -0.2916  0.6358  0.4104
 5962TIP3    H239302   6.169   2.397  13.164  0.0574  0.4947 -0.9775
 5963TIP3   OH239303   5.842   1.352  12.281 -0.1066  0.1337  0.5852
 5963TIP3    H139304   5.759   1.378  12.241  0.1756  1.2436  0.6921
 5963TIP3    H239305   5.820   1.340  12.374  0.0177  1.2761  0.7743
 5964TIP3   OH239306   6.528   1.462  12.019  0.1858  0.0372  0.5538
 5964TIP3    H139307   6.492   1.413  11.945  2.8456  0.2268 -0.9394
 5964TIP3    H239308   6.454   1.514  12.051 -1.3991 -1.1600 -1.0230
 5965TIP3   OH239309   5.176   5.551  16.442  0.1696  0.2584  0.3934
 5965TIP3    H139310   5.132   5.516  16.520 -0.1840 -0.8934 -0.2937
 5965TIP3    H239311   5.260   5.506  16.440  0.5851  1.0230  0.6469
 5966TIP3   OH239312   2.197   0.942   1.468 -0.1408 -0.0257  0.0285
 5966TIP3    H139313   2.153   1.011   1.418  1.5279 -0.4084 -2.0584
 5966TIP3    H239314   2.259   0.989   1.525 -0.6101  0.3091  0.2662
 5967TIP3   OH239315   3.668   5.722  14.288 -0.0317  0.6237 -0.0563
 5967TIP3    H139316   3.726   5.684  14.223  2.1620  0.8991  1.6898
 5967TIP3    H239317   3.677   5.817  14.276 -0.2642  0.6690  0.1167
 5968TIP3   OH239318   1.539   0.604   1.345 -0.1720  0.1287  0.3785
 5968TIP3    H139319   1.558   0.654   1.265 -0.7772 -0.3687 -0.0901
 5968TIP3    H239320   1.548   0.667   1.416  1.8492  0.2316  0.0618
 5969TIP3   OH239321   1.323   0.520   0.680 -0.1634  0.6156  0.2696
 5969TIP3    H139322   1.402   0.573   0.678 -0.3507  0.8847 -0.3317
 5969TIP3    H239323   1.353   0.432   0.704  0.3181  0.7169  0.0522
 5970TIP3   OH239324   1.775   0.735  14.407 -0.5498 -0.3984 -0.0664
 5970TIP3    H139325   1.728   0.689  14.338  0.3080 -0.5252 -0.5705
 5970TIP3    H239326   1.742   0.825  14.402 -1.8283 -0.8238  0.5688
 5971TIP3   OH239327   3.448   4.973   1.983  0.2740  0.0736  0.1482
 5971TIP3    H139328   3.507   4.908   1.946  0.4443  0.4460 -0.2459
 5971TIP3    H239329   3.394   5.001   1.910 -0.7445 -0.6413  0.6224
 5972TIP3   OH239330   6.523   1.684   1.424 -1.0027 -0.1220  0.3634
 5972TIP3    H139331   6.513   1.746   1.496 -0.2803 -0.5923  0.8745
 5972TIP3    H239332   6.495   1.600   1.460 -1.4535 -0.2035 -0.1622
 5973TIP3   OH239333   1.785   4.376   1.995 -0.8959  0.7842  0.4987
 5973TIP3    H139334   1.690   4.370   1.988 -0.7038 -0.2840 -1.5216
 5973TIP3    H239335   1.818   4.294   1.958  0.7996  0.6778  2.1258
 5974TIP3   OH239336   1.563   5.664  17.155 -0.2177  0.4113 -0.0757
 5974TIP3    H139337   1.551   5.594  17.218 -0.9240 -2.2697 -3.0548
 5974TIP3    H239338   1.475   5.685  17.124  0.0415  2.2027  0.3393
 5975TIP3   OH239339   3.770   4.379   2.051  0.7980  0.1012 -0.3582
 5975TIP3    H139340   3.719   4.311   2.096  0.1852 -1.5821 -3.4828
 5975TIP3    H239341   3.710   4.452   2.042  0.2138 -0.3830 -0.4260
 5976TIP3   OH239342   0.782   5.634  15.766  0.0897 -0.1252 -0.1622
 5976TIP3    H139343   0.805   5.557  15.818  0.4435  1.2737  1.8274
 5976TIP3    H239344   0.844   5.635  15.693  0.8924 -1.0173  0.5090
 5977TIP3   OH239345   4.106   4.109  15.479  0.0492  0.2774  0.2523
 5977TIP3    H139346   4.097   4.064  15.395 -1.2124  1.4317 -0.2575
 5977TIP3    H239347   4.185   4.162  15.469  1.0511 -1.1310  0.5440
 5978TIP3   OH239348   1.008   3.214   3.428  0.4669  0.3222  0.0846
 5978TIP3    H139349   1.089   3.175   3.396  0.0337 -0.3482 -0.2078
 5978TIP3    H239350   0.971   3.147   3.485  0.0386  0.5662  0.0928
 5979TIP3   OH239351   1.609   1.242   0.423  0.4871  0.4655 -0.3532
 5979TIP3    H139352   1.535   1.262   0.481 -0.2702  1.2197 -1.5663
 5979TIP3    H239353   1.637   1.327   0.389 -0.0425 -0.1169 -2.2759
 5980TIP3   OH239354   1.411   4.706   1.796  0.8277 -0.4349 -0.3915
 5980TIP3    H139355   1.406   4.623   1.843 -1.9629  0.9123  1.7739
 5980TIP3    H239356   1.501   4.737   1.811  1.6057 -2.5832 -0.4952
 5981TIP3   OH239357   6.078   5.955   0.286  0.2390  0.1860 -0.3692
 5981TIP3    H139358   6.121   5.904   0.355  0.0050  1.9993  1.1623
 5981TIP3    H239359   5.985   5.936   0.297  0.2057  0.4289 -0.2374
 5982TIP3   OH239360   2.103   1.022   0.540  0.2373  0.8878 -0.0717
 5982TIP3    H139361   2.135   1.097   0.491  2.4788 -1.2833 -2.1269
 5982TIP3    H239362   2.174   1.001   0.601 -0.6929  0.9105  1.0309
 5983TIP3   OH239363   3.514   5.143  16.658  0.3308  0.1634 -0.2050
 5983TIP3    H139364   3.490   5.211  16.721  0.7473  0.1958 -0.0779
 5983TIP3    H239365   3.586   5.096  16.700 -1.7220 -2.0912  0.8769
 5984TIP3   OH239366   1.344   4.036  11.806  0.5621  0.0562  0.0350
 5984TIP3    H139367   1.364   4.017  11.714  1.6970 -0.5815  0.4090
 5984TIP3    H239368   1.333   3.950  11.847  0.5569  0.3274  0.6135
 5985TIP3   OH239369   0.412   1.001   0.014 -0.3460  0.2282 -0.1854
 5985TIP3    H139370   0.425   0.939  -0.058 -0.3439  0.5521 -0.4687
 5985TIP3    H239371   0.436   1.086  -0.023  0.6907  0.2485  0.5260
 5986TIP3   OH239372   4.934   4.506  15.609 -0.2426  0.3632 -0.3233
 5986TIP3    H139373   4.920   4.579  15.549  0.6912  0.3612 -0.5604
 5986TIP3    H239374   4.919   4.428  15.556  0.5573  0.3625 -0.5613
 5987TIP3   OH239375   6.168   2.014  15.125 -0.1570 -0.1164 -0.6342
 5987TIP3    H139376   6.222   1.963  15.185 -1.1099 -0.4854 -0.0721
 5987TIP3    H239377   6.169   1.965  15.043 -0.2676 -0.5216 -0.3908
 5988TIP3   OH239378   6.438   1.339  12.550 -0.3127  0.0164  0.2083
 5988TIP3    H139379   6.401   1.258  12.586  2.8090 -1.6109 -0.0478
 5988TIP3    H239380   6.371   1.405  12.566 -1.8813 -2.0779  2.7621
 5989TIP3   OH239381   3.479   0.507   3.790  0.9712 -0.2023  0.1077
 5989TIP3    H139382   3.450   0.420   3.762 -1.5451  0.6561 -0.0483
 5989TIP3    H239383   3.437   0.520   3.875  1.1629  0.9515  0.0330
 5990TIP3   OH239384   1.196   6.730   4.339  0.4089  0.2786  0.2940
 5990TIP3    H139385   1.161   6.794   4.401 -0.1115  0.1549  0.1272
 5990TIP3    H239386   1.259   6.679   4.390  0.0629  0.2494  0.6968
 5991TIP3   OH239387   6.489   0.532  16.813 -0.6629  0.0659 -0.5611
 5991TIP3    H139388   6.397   0.514  16.832 -0.1704  0.3962  2.3862
 5991TIP3    H239389   6.538   0.471  16.868  0.8935  0.8722 -1.0062
 5992TIP3   OH239390   1.640   5.339   1.764 -0.6441 -0.0401  1.0247
 5992TIP3    H139391   1.671   5.405   1.701 -0.6717 -0.0626  0.9871
 5992TIP3    H239392   1.601   5.271   1.709 -0.6696 -0.0591  1.0672
 5993TIP3   OH239393   3.638   0.638   6.312  0.0150 -0.0190 -0.4107
 5993TIP3    H139394   3.574   0.600   6.253 -0.9978  3.2050 -1.4391
 5993TIP3    H239395   3.640   0.731   6.291  3.0768  0.4247  1.4311
 5994TIP3   OH239396   3.980   5.538   4.534  0.0552 -0.0805  0.0589
 5994TIP3    H139397   3.906   5.478   4.526  0.0721 -0.1380  0.3318
 5994TIP3    H239398   3.974   5.594   4.456 -1.1721  0.9069  0.8436
 5995TIP3   OH239399   5.966   3.219  14.754  0.1875 -0.3141 -0.6358
 5995TIP3    H139400   5.907   3.292  14.735 -0.5575 -0.0221  2.5781
 5995TIP3    H239401   5.914   3.158  14.806  1.8435 -1.4611 -0.2813
 5996TIP3   OH239402   2.994   6.159   4.454 -0.0067 -0.0050  0.6029
 5996TIP3    H139403   3.043   6.236   4.425 -0.1736 -0.1178  0.0149
 5996TIP3    H239404   2.920   6.153   4.393 -0.0174 -0.6020  0.6706
 5997TIP3   OH239405   3.033   0.944  13.442 -0.0333 -0.1958  0.1528
 5997TIP3    H139406   3.050   0.875  13.505  2.6668  1.3740  1.2397
 5997TIP3    H239407   2.948   0.981  13.469 -0.0865 -1.1662  1.3421
 5998TIP3   OH239408   3.040   3.771   1.068  0.6946  0.2081  0.1037
 5998TIP3    H139409   3.065   3.850   1.020 -0.3032  0.1361 -0.5467
 5998TIP3    H239410   2.972   3.801   1.130  0.3308 -0.1291 -0.1282
 5999TIP3   OH239411   1.825   0.312   3.560  0.6141  0.1987  0.0622
 5999TIP3    H139412   1.824   0.218   3.573 -0.5015  0.3392  1.0813
 5999TIP3    H239413   1.744   0.343   3.600  0.9317  1.5812 -0.3234
 6000TIP3   OH239414   2.994   4.632  10.558 -0.7514  0.5956 -0.5657
 6000TIP3    H139415   2.955   4.688  10.625 -2.0633  2.4463 -2.7832
 6000TIP3    H239416   2.919   4.587  10.518  0.2461 -2.5757  0.9303
 6001TIP3   OH239417   3.119   5.737  14.793  0.2160  0.0308  0.3436
 6001TIP3    H139418   3.171   5.803  14.747 -1.8771  1.3511 -0.1923
 6001TIP3    H239419   3.157   5.733  14.880  0.9134  1.3260  0.1100
 6002TIP3   OH239420   1.542   4.223  15.226 -0.7709  0.6349  0.3905
 6002TIP3    H139421   1.454   4.258  15.210 -1.6400 -1.3607  0.6686
 6002TIP3    H239422   1.596   4.265  15.159 -2.3470  0.2624 -1.1692
 6003TIP3   OH239423   0.438   4.207  16.446 -0.0107 -0.1367 -0.2054
 6003TIP3    H139424   0.463   4.265  16.518 -0.6680  0.9122 -0.8130
 6003TIP3    H239425   0.419   4.266  16.373  1.1901 -1.2164 -1.4144
 6004TIP3   OH239426   4.994   1.700   0.682 -0.6355 -0.0431 -0.2571
 6004TIP3    H139427   4.921   1.758   0.702 -0.3931  0.5002 -0.9058
 6004TIP3    H239428   4.955   1.613   0.676 -0.7058 -0.2175  2.4682
 6005TIP3   OH239429   1.146   0.669  14.223 -0.1393 -0.4153  0.3993
 6005TIP3    H139430   1.116   0.611  14.293 -2.3438 -0.7351 -0.7527
 6005TIP3    H239431   1.067   0.716  14.195  0.9105  0.5011 -1.1264
 6006TIP3   OH239432   0.514   5.987   3.624  0.4722  0.0279  0.0478
 6006TIP3    H139433   0.483   5.931   3.553 -1.3705  1.8172 -0.6212
 6006TIP3    H239434   0.588   6.036   3.587  0.4552 -0.1131 -0.1704
 6007TIP3   OH239435   5.725   0.524   3.695 -0.3041  0.2280 -0.0257
 6007TIP3    H139436   5.683   0.502   3.611 -1.6751 -0.4396  0.8093
 6007TIP3    H239437   5.759   0.612   3.682  1.8346 -0.8519 -2.1619
 6008TIP3   OH239438   0.772   4.995   1.138 -0.6551  0.1049 -0.6255
 6008TIP3    H139439   0.771   4.912   1.188  0.6455 -0.6832 -1.8657
 6008TIP3    H239440   0.698   4.988   1.078 -0.5208 -0.1829 -0.7595
 6009TIP3   OH239441   0.990   3.900  11.257 -0.1728  0.5488 -0.3423
 6009TIP3    H139442   1.039   3.963  11.205 -0.2572 -1.5655 -3.0901
 6009TIP3    H239443   0.906   3.943  11.274  0.5309  1.9712 -0.4292
 6010TIP3   OH239444   3.465   4.968  14.673  0.2462  0.2909  0.1611
 6010TIP3    H139445   3.449   4.934  14.761 -0.5094  2.3830  0.8644
 6010TIP3    H239446   3.559   4.962  14.661  0.6629  2.2976  2.1134
 6011TIP3   OH239447   5.894   3.987   4.869 -1.0490  0.0781  0.1878
 6011TIP3    H139448   5.895   3.896   4.840 -0.0027 -0.3989  1.6347
 6011TIP3    H239449   5.959   3.991   4.939  0.8219  2.5427 -1.5860
 6012TIP3   OH239450   0.703   6.486  12.338  0.0789  0.3513  0.5550
 6012TIP3    H139451   0.753   6.441  12.269 -0.2984  1.0211 -0.1525
 6012TIP3    H239452   0.765   6.549  12.375 -0.0430  0.7114  0.1371
 6013TIP3   OH239453   3.372   0.622  16.238 -0.2922  0.1224 -0.2709
 6013TIP3    H139454   3.367   0.576  16.322 -0.8499 -0.8346 -0.8106
 6013TIP3    H239455   3.417   0.560  16.180  0.0964  0.7792 -0.6776
 6014TIP3   OH239456   1.396   0.128  12.977  0.7104  0.6378 -0.5949
 6014TIP3    H139457   1.474   0.140  13.031 -0.0132 -2.1786  1.1486
 6014TIP3    H239458   1.426   0.073  12.904  0.6667  0.6776 -0.6425
 6015TIP3   OH239459   4.412   2.894  13.986 -0.2064  0.8106 -0.0440
 6015TIP3    H139460   4.384   2.889  13.894  1.9356 -0.5966 -0.6678
 6015TIP3    H239461   4.353   2.833  14.031  0.9037 -1.0882 -1.0950
 6016TIP3   OH239462   1.083   3.226  11.929  0.1941  0.3138 -0.0330
 6016TIP3    H139463   0.998   3.256  11.897  0.2043  1.0696  0.6542
 6016TIP3    H239464   1.071   3.217  12.024  0.2636 -1.5922 -0.1704
 6017TIP3   OH239465   4.455   4.038  10.823  0.6144  0.2196 -0.2380
 6017TIP3    H139466   4.498   4.121  10.847 -0.9101  0.7067  0.9324
 6017TIP3    H239467   4.391   4.063  10.756 -1.7304  0.5190  2.0017
 6018TIP3   OH239468   6.374   6.050  13.747  0.4245 -0.6223 -0.2988
 6018TIP3    H139469   6.405   6.056  13.837 -1.4073 -0.0837  0.3216
 6018TIP3    H239470   6.407   6.129  13.704 -2.7705  1.6521  1.2364
 6019TIP3   OH239471   0.165   2.845   0.161  0.3412  0.6432  1.1085
 6019TIP3    H139472   0.248   2.893   0.157  0.3464  0.5334 -0.0991
 6019TIP3    H239473   0.170   2.781   0.091 -0.9255  0.8833  0.7815
 6020TIP3   OH239474   2.532   0.266   1.974 -0.8948 -0.6860 -0.6825
 6020TIP3    H139475   2.465   0.203   2.000 -0.1357 -1.2689 -0.1282
 6020TIP3    H239476   2.603   0.255   2.038  0.4329 -1.2327 -2.2147
 6021TIP3   OH239477   6.599   0.824  16.315 -0.1490 -0.1476 -0.0116
 6021TIP3    H139478   6.643   0.792  16.237 -1.3940  3.1186 -2.1883
 6021TIP3    H239479   6.508   0.795  16.305 -0.1529 -0.3669  0.6228
 6022TIP3   OH239480   1.001   2.596   3.737  0.7414 -0.5074  0.2115
 6022TIP3    H139481   0.957   2.680   3.725  1.3654  0.0708  1.8685
 6022TIP3    H239482   0.930   2.533   3.746  0.1370  0.6538  4.5180
 6023TIP3   OH239483   1.456   0.446   3.618 -0.1110  0.2182  0.4356
 6023TIP3    H139484   1.412   0.525   3.590 -0.5349  0.0712  0.6801
 6023TIP3    H239485   1.441   0.383   3.548  0.8765  0.5847 -0.1122
 6024TIP3   OH239486   0.298   5.157   3.538 -0.0262 -0.2965  0.2420
 6024TIP3    H139487   0.322   5.139   3.447  1.1131  3.8130 -0.3662
 6024TIP3    H239488   0.203   5.167   3.536  0.0679  0.5096 -0.6593
 6025TIP3   OH239489   6.767   0.661  16.483  0.6653  0.2393  0.3696
 6025TIP3    H139490   6.827   0.689  16.414 -0.2512 -2.8273 -1.8010
 6025TIP3    H239491   6.700   0.729  16.487  0.7751  0.4905 -1.7645
 6026TIP3   OH239492   0.223   5.553   0.490  0.3059  0.6323  0.3919
 6026TIP3    H139493   0.190   5.492   0.556 -0.0939  0.5774  0.1466
 6026TIP3    H239494   0.206   5.640   0.526  0.0266  0.6031  0.3351
 6027TIP3   OH239495   5.406   3.204  12.112 -0.2243 -0.4861 -0.3584
 6027TIP3    H139496   5.468   3.130  12.111 -0.4065 -0.6340 -0.8902
 6027TIP3    H239497   5.327   3.168  12.152 -0.0433 -0.3593  0.1146
 6028TIP3   OH239498   2.380   0.225   4.825 -0.1054 -0.3883  0.2369
 6028TIP3    H139499   2.403   0.227   4.918 -0.0761 -0.7263  0.2384
 6028TIP3    H239500   2.285   0.213   4.824 -0.0496 -0.8503  0.2233
 6029TIP3   OH239501   5.780   1.238  15.282 -0.3220 -0.4448 -0.3112
 6029TIP3    H139502   5.764   1.175  15.211 -0.1852  0.6650 -1.3436
 6029TIP3    H239503   5.702   1.293  15.283 -0.4772 -0.6837  0.6424
 6030TIP3   OH239504   5.630   3.896  16.614  0.7255  0.2458  0.0207
 6030TIP3    H139505   5.626   3.947  16.533  1.1750 -0.2075 -0.2962
 6030TIP3    H239506   5.551   3.843  16.614  2.3956 -2.3748 -1.9019
 6031TIP3   OH239507   3.405   6.656   1.380 -0.4226  0.6392  0.0118
 6031TIP3    H139508   3.355   6.609   1.447  0.5656 -1.1485 -0.4752
 6031TIP3    H239509   3.493   6.666   1.418 -0.7732  2.6990  0.3662
 6032TIP3   OH239510   6.759   0.850  11.409  0.0388 -0.2782  0.0171
 6032TIP3    H139511   6.733   0.800  11.487 -1.9877 -0.8622 -1.0070
 6032TIP3    H239512   6.839   0.896  11.436  0.8358 -2.5039  1.6205
 6033TIP3   OH239513   0.759   3.894  11.912 -0.0678  0.1377  0.4042
 6033TIP3    H139514   0.684   3.836  11.917 -1.1245  1.4891  0.4544
 6033TIP3    H239515   0.756   3.932  11.825 -0.4652  1.5192  1.0013
 6034TIP3   OH239516   4.794   1.553   0.294 -0.0261  0.0119  0.2182
 6034TIP3    H139517   4.731   1.502   0.244  0.2557  0.4403 -0.5702
 6034TIP3    H239518   4.745   1.579   0.373  0.5474 -3.5200  1.8502
 6035TIP3   OH239519   3.263   3.662   5.833  0.6973  0.0635 -0.0482
 6035TIP3    H139520   3.314   3.726   5.883 -1.4793  1.7558  0.1107
 6035TIP3    H239521   3.305   3.660   5.747  1.6332  0.7091  0.3898
 6036TIP3   OH239522   5.544   4.050  16.405  0.1205 -0.0727 -0.7522
 6036TIP3    H139523   5.559   4.119  16.340 -3.5406  1.9748  0.4601
 6036TIP3    H239524   5.474   3.997  16.369 -0.6293 -0.0597  0.6683
 6037TIP3   OH239525   3.581   2.840  12.375 -0.2510 -0.3070 -0.2461
 6037TIP3    H139526   3.584   2.923  12.329  0.8687 -0.4473 -0.4543
 6037TIP3    H239527   3.609   2.775  12.310 -1.8238 -0.9522 -0.3022
 6038TIP3   OH239528   5.004   6.572   0.843 -0.1868 -0.0843 -0.5155
 6038TIP3    H139529   4.985   6.652   0.793 -0.5697  0.9400  1.1983
 6038TIP3    H239530   4.943   6.507   0.809 -1.7506  1.1264 -0.1177
 6039TIP3   OH239531   0.040   5.356   1.655  0.3013 -0.2736 -0.0800
 6039TIP3    H139532   0.028   5.325   1.566  0.1947  0.0743 -0.1875
 6039TIP3    H239533  -0.048   5.364   1.690  0.2692  0.9724 -0.4205
 6040TIP3   OH239534   6.007   6.560  13.036  0.4505  0.0924  0.5378
 6040TIP3    H139535   5.963   6.622  13.094 -1.2061 -0.0686 -0.5020
 6040TIP3    H239536   6.007   6.477  13.085  0.6276  0.3707  1.0118
 6041TIP3   OH239537   6.184   6.021  14.967 -0.6729 -0.3198 -0.8543
 6041TIP3    H139538   6.189   5.964  15.044 -0.5111  0.6309 -0.1554
 6041TIP3    H239539   6.101   5.997  14.925 -1.9353  0.8144  0.9420
 6042TIP3   OH239540   4.036   0.888  11.864 -0.7688 -0.1011  0.2824
 6042TIP3    H139541   4.020   0.815  11.805 -0.7827 -1.1481  1.5394
 6042TIP3    H239542   4.096   0.945  11.817 -1.0034 -0.7810 -0.8438
 6043TIP3   OH239543   5.040   5.286  15.353  0.3007  0.6295  0.0142
 6043TIP3    H139544   4.947   5.279  15.374  0.1900  2.8042  0.3668
 6043TIP3    H239545   5.043   5.347  15.279  1.3713 -0.3597 -0.7860
 6044TIP3   OH239546   3.166   1.802   2.033 -0.1248 -0.1166 -0.0195
 6044TIP3    H139547   3.117   1.841   2.105  1.1174 -0.7698  1.1996
 6044TIP3    H239548   3.156   1.864   1.961 -0.8900  0.8365  0.8858
 6045TIP3   OH239549   5.008   5.453  14.030  0.0704  0.2541  0.5938
 6045TIP3    H139550   4.925   5.493  14.054 -0.8043  0.1025 -2.0160
 6045TIP3    H239551   4.994   5.359  14.043  0.1608  0.3136  1.1113
 6046TIP3   OH239552   1.412   6.431   1.495 -0.1781  0.1095  0.1330
 6046TIP3    H139553   1.376   6.412   1.409 -1.1286  1.5740  0.1905
 6046TIP3    H239554   1.507   6.435   1.481 -0.2716 -0.4268 -0.6841
 6047TIP3   OH239555   3.541   4.125  15.738  0.2581  0.2902  0.6724
 6047TIP3    H139556   3.477   4.120  15.667 -0.8711  1.5388  1.5791
 6047TIP3    H239557   3.610   4.182  15.703 -0.2457  0.8210  0.5354
 6048TIP3   OH239558   5.660   4.405   3.586  0.1163  0.6593  0.4100
 6048TIP3    H139559   5.690   4.460   3.513 -0.9767  0.7766  0.0421
 6048TIP3    H239560   5.710   4.324   3.577 -2.7835 -0.8875 -2.8246
 6049TIP3   OH239561   2.772   6.723   4.199  0.0598  0.3733  0.0279
 6049TIP3    H139562   2.696   6.780   4.189  0.8949  1.5353  0.2245
 6049TIP3    H239563   2.735   6.638   4.223 -1.1337  1.1169  0.8703
 6050TIP3   OH239564   2.223   3.345   2.646  0.2620 -0.2737  1.1199
 6050TIP3    H139565   2.310   3.360   2.608 -0.2652  2.3957  0.8103
 6050TIP3    H239566   2.165   3.339   2.570 -0.3524  1.9778  1.3686
 6051TIP3   OH239567   5.225   6.210  13.163  0.6264  0.3820 -0.5664
 6051TIP3    H139568   5.253   6.256  13.242  1.1115 -0.5782 -0.1719
 6051TIP3    H239569   5.150   6.158  13.191  0.9907 -0.2008 -0.6582
 6052TIP3   OH239570   0.799   4.213   4.794 -0.2094 -0.2768  0.5116
 6052TIP3    H139571   0.799   4.309   4.796 -1.3031 -0.2443 -0.5780
 6052TIP3    H239572   0.756   4.187   4.875 -0.0336  0.1619  0.7456
 6053TIP3   OH239573   1.309   5.888   3.859 -0.2072  0.8104  0.1095
 6053TIP3    H139574   1.364   5.874   3.782 -0.8277  0.9369 -0.3607
 6053TIP3    H239575   1.236   5.940   3.827 -1.2695 -0.4468  0.4383
 6054TIP3   OH239576   2.010   2.282  16.829  0.5140  0.2879  0.2890
 6054TIP3    H139577   2.065   2.274  16.907 -0.1045  0.1530  0.7189
 6054TIP3    H239578   1.987   2.375  16.825 -0.3445  0.1195  0.9020
 6055TIP3   OH239579   0.257   1.530   4.355 -0.1789  0.3745 -0.6805
 6055TIP3    H139580   0.312   1.481   4.416 -2.0868 -0.7958  0.1637
 6055TIP3    H239581   0.271   1.487   4.270 -0.7561 -0.7476 -0.2166
 6056TIP3   OH239582   3.378   0.069  15.803  0.4826 -0.1168 -0.1990
 6056TIP3    H139583   3.326   0.050  15.725  0.1922  1.1748 -0.3376
 6056TIP3    H239584   3.321   0.048  15.877  0.4943 -0.6294 -0.3331
 6057TIP3   OH239585   1.062   5.477  16.517 -0.3689 -0.3891 -0.5226
 6057TIP3    H139586   1.113   5.398  16.495 -1.9697 -0.7900 -2.9207
 6057TIP3    H239587   1.050   5.471  16.612  2.5158 -1.1980 -0.1455
 6058TIP3   OH239588   1.532   0.865   5.933  0.6109 -0.1039  0.2443
 6058TIP3    H139589   1.610   0.836   5.981 -0.0379 -0.4434  1.1102
 6058TIP3    H239590   1.467   0.883   6.002 -0.2252 -0.2808 -0.4945
 6059TIP3   OH239591   3.050   4.434   5.793 -0.1801  0.1949 -0.2241
 6059TIP3    H139592   3.100   4.469   5.867  1.6849  1.5098 -2.0571
 6059TIP3    H239593   2.978   4.496   5.781 -0.3277  0.1284  0.2717
 6060TIP3   OH239594   6.351   0.991   2.400 -0.3406  0.1898 -0.2716
 6060TIP3    H139595   6.346   0.996   2.305  1.1832  0.1116 -0.3744
 6060TIP3    H239596   6.401   0.911   2.417 -1.6036 -0.4206  0.6326
 6061TIP3   OH239597   1.853   1.730   6.493  0.3065 -0.2565  0.4564
 6061TIP3    H139598   1.766   1.732   6.533 -0.3887  0.6953 -1.0637
 6061TIP3    H239599   1.840   1.683   6.411  1.3175 -0.4295  0.3950
 6062TIP3   OH239600   5.975   1.843   5.358 -0.2343  0.3523  0.8636
 6062TIP3    H139601   6.025   1.890   5.292 -0.4006 -0.3083  0.2624
 6062TIP3    H239602   5.910   1.906   5.389 -1.8751 -0.1372 -1.4862
 6063TIP3   OH239603   1.714   5.816  16.717 -0.4431 -0.0434 -0.4203
 6063TIP3    H139604   1.640   5.853  16.763 -0.8316 -1.2747 -0.0276
 6063TIP3    H239605   1.790   5.866  16.747 -0.9694  0.5180 -0.0306
 6064TIP3   OH239606   6.116   1.244  15.918  0.1623  1.0427  0.3209
 6064TIP3    H139607   6.029   1.260  15.881  0.5852 -0.6613 -1.4465
 6064TIP3    H239608   6.171   1.311  15.878  0.1007  0.8046 -0.1591
 6065TIP3   OH239609   2.975   3.430  12.670 -0.2061  0.8591 -0.4697
 6065TIP3    H139610   3.041   3.485  12.628  0.2745 -0.3234 -1.2934
 6065TIP3    H239611   3.017   3.344  12.678 -0.3740  0.9836  2.1874
 6066TIP3   OH239612   1.894   6.527   3.053 -0.0806 -0.2235 -0.3876
 6066TIP3    H139613   1.845   6.594   3.100  1.1837 -0.4817  1.3732
 6066TIP3    H239614   1.918   6.463   3.120  1.8530 -0.5572 -1.3412
 6067TIP3   OH239615   6.472   0.969  17.135  0.7183 -0.5941  0.0298
 6067TIP3    H139616   6.546   0.927  17.178  1.2868 -1.8621 -2.0917
 6067TIP3    H239617   6.490   0.959  17.041 -0.3773  2.2428 -0.5259
 6068TIP3   OH239618   4.713   6.132   3.078 -0.4034  0.0877 -0.2337
 6068TIP3    H139619   4.655   6.105   3.149 -0.9744 -0.8921 -1.0841
 6068TIP3    H239620   4.794   6.082   3.093 -0.0724  0.8070  0.4402
 6069TIP3   OH239621   0.528   6.116  17.235  0.3808  0.4735 -0.1765
 6069TIP3    H139622   0.568   6.038  17.274  0.8832  0.5138 -0.6045
 6069TIP3    H239623   0.462   6.143  17.298 -0.5362 -0.9324 -0.5262
 6070TIP3   OH239624   5.273   0.008  16.939  1.1755  0.4755  0.0689
 6070TIP3    H139625   5.222   0.055  17.005 -0.0215 -0.1188 -0.4046
 6070TIP3    H239626   5.264   0.062  16.860  1.2330  0.3436 -0.0275
 6071TIP3   OH239627   3.402   3.790  11.079  0.5020  0.2386 -0.7039
 6071TIP3    H139628   3.468   3.859  11.088  1.1607 -0.5396  0.6236
 6071TIP3    H239629   3.432   3.721  11.138 -0.9632 -0.5604 -0.8830
 6072TIP3   OH239630   4.844   0.529   2.883  0.9241 -0.0514  0.5458
 6072TIP3    H139631   4.847   0.621   2.911 -0.2539  0.6587 -1.6210
 6072TIP3    H239632   4.758   0.498   2.910 -0.8757  1.0986 -3.5440
 6073TIP3   OH239633   4.228   2.808   0.736  0.4796  0.2535  0.0579
 6073TIP3    H139634   4.146   2.779   0.697 -0.0236 -0.4994  1.6510
 6073TIP3    H239635   4.281   2.728   0.743  0.9024  0.5342  0.0893
 6074TIP3   OH239636   1.648   6.559  12.245 -0.7771  0.0913 -0.3707
 6074TIP3    H139637   1.628   6.638  12.296 -1.7334 -1.2747  1.4018
 6074TIP3    H239638   1.566   6.538  12.200 -0.5191  0.0998 -0.8534
 6075TIP3   OH239639   2.525   4.287   0.308  0.3803  0.5850 -0.2027
 6075TIP3    H139640   2.438   4.297   0.271 -0.0987 -0.5390  0.5977
 6075TIP3    H239641   2.534   4.360   0.369 -0.1846  0.4216  0.0718
 6076TIP3   OH239642   0.482   0.828   0.457 -0.0875 -0.1608 -0.3225
 6076TIP3    H139643   0.526   0.790   0.381 -0.7150 -0.0554 -0.7462
 6076TIP3    H239644   0.389   0.817   0.438 -0.3080  2.3170 -0.8450
 6077TIP3   OH239645   2.688   3.939   3.491  0.7335 -0.0193 -0.0530
 6077TIP3    H139646   2.602   3.895   3.488  0.7290 -0.0117 -0.0375
 6077TIP3    H239647   2.699   3.963   3.583  1.8281 -2.1356  0.3850
 6078TIP3   OH239648   4.411   3.082   3.221  0.5605 -0.6593  0.3791
 6078TIP3    H139649   4.325   3.123   3.228  0.0283 -1.9141  1.4582
 6078TIP3    H239650   4.446   3.113   3.137 -0.3762  0.9112  0.5591
 6079TIP3   OH239651   3.220   1.221   4.317 -0.3260  0.5643  0.0742
 6079TIP3    H139652   3.189   1.306   4.286 -2.2511 -0.1864 -0.1494
 6079TIP3    H239653   3.170   1.206   4.398 -0.6484 -0.7300 -0.3537
 6080TIP3   OH239654   4.033   4.791   4.358  0.2266 -0.1971 -0.0158
 6080TIP3    H139655   3.965   4.797   4.426  1.3899 -0.7482  1.2190
 6080TIP3    H239656   4.029   4.700   4.328  1.1460 -0.5195  0.8293
 6081TIP3   OH239657   4.529   2.799   2.381 -0.3595 -0.1857 -0.0069
 6081TIP3    H139658   4.469   2.871   2.363 -0.9604 -0.5176  0.6516
 6081TIP3    H239659   4.562   2.816   2.470  2.2567  1.2041 -1.1741
 6082TIP3   OH239660   6.706   3.411  12.729 -0.7540 -0.2214  0.4338
 6082TIP3    H139661   6.694   3.343  12.662  0.7926 -0.0444 -0.0452
 6082TIP3    H239662   6.729   3.364  12.808 -0.3732 -0.3043  0.2748
 6083TIP3   OH239663   3.890   1.227  14.058 -0.1977 -0.0038  0.5229
 6083TIP3    H139664   3.960   1.291  14.043  0.9431 -0.8585  2.0001
 6083TIP3    H239665   3.857   1.206  13.971  0.7070  1.1783 -0.1138
 6084TIP3   OH239666   0.922   2.869   3.747  0.2271  0.0883 -0.4032
 6084TIP3    H139667   0.851   2.847   3.808 -0.1795  1.6177 -0.3014
 6084TIP3    H239668   0.922   2.964   3.744  2.6939  0.1298  0.0476
 6085TIP3   OH239669   1.838   0.734  11.518 -0.3061 -0.0515  0.5298
 6085TIP3    H139670   1.906   0.800  11.503 -0.7014 -0.5163 -4.2224
 6085TIP3    H239671   1.885   0.658  11.552  1.0175  0.8433  0.7061
 6086TIP3   OH239672   1.490   4.340   1.944  0.3776  0.2470 -0.2436
 6086TIP3    H139673   1.409   4.387   1.923  1.1735  1.9566  0.4377
 6086TIP3    H239674   1.464   4.281   2.015 -0.5438 -0.0541 -0.8177
 6087TIP3   OH239675   0.767   3.333  12.782  0.3867 -0.2908  0.4504
 6087TIP3    H139676   0.850   3.305  12.743  0.7137  0.2276  0.7721
 6087TIP3    H239677   0.720   3.251  12.798 -1.2535 -0.4346 -4.2112
 6088TIP3   OH239678   4.804   0.883  12.890  0.1003 -0.5604  0.0454
 6088TIP3    H139679   4.808   0.815  12.823  0.6507 -1.8625  1.3746
 6088TIP3    H239680   4.885   0.931  12.880 -1.3949  1.5561 -2.5648
 6089TIP3   OH239681   5.714   3.211   2.870 -0.1123 -0.3762 -0.0646
 6089TIP3    H139682   5.723   3.301   2.900 -1.3722 -0.9054  1.9644
 6089TIP3    H239683   5.728   3.158   2.948  1.2822 -1.9899 -1.3661
 6090TIP3   OH239684   4.039   1.522   3.072  0.3127 -0.3812 -0.3173
 6090TIP3    H139685   4.105   1.490   3.010 -0.0348 -0.2919 -0.7345
 6090TIP3    H239686   3.956   1.511   3.026  0.0370 -0.4801  0.2021
 6091TIP3   OH239687   5.062   2.748  12.752  0.3999  0.2332  0.8780
 6091TIP3    H139688   5.138   2.691  12.744  0.4347  0.1756  1.5733
 6091TIP3    H239689   4.988   2.695  12.722  0.5756  0.1562  0.5829
 6092TIP3   OH239690   0.986   5.316  14.198 -0.0609 -0.5834 -0.5532
 6092TIP3    H139691   1.069   5.364  14.206 -1.3378  1.5668  0.0991
 6092TIP3    H239692   0.977   5.301  14.104 -0.1948  1.4901 -0.8924
 6093TIP3   OH239693   1.102   6.782   5.804  0.2024  0.2792  0.0749
 6093TIP3    H139694   1.133   6.703   5.847  0.9074  0.1161 -0.7337
 6093TIP3    H239695   1.143   6.781   5.718  1.4399  2.2943  0.6071
 6094TIP3   OH239696   1.315   3.142   3.377  0.1117 -0.1633  0.2342
 6094TIP3    H139697   1.304   3.047   3.373  1.6362 -0.3256 -0.4248
 6094TIP3    H239698   1.370   3.157   3.454 -1.0328  0.2798  0.9775
 6095TIP3   OH239699   0.096   1.006   6.355  0.5090  0.5661  0.5367
 6095TIP3    H139700   0.077   0.917   6.385 -0.1925  0.8584  0.9656
 6095TIP3    H239701   0.045   1.062   6.413 -2.4197  1.0964 -2.4034
 6096TIP3   OH239702   2.351   6.786   0.115 -0.2514 -0.0723  0.0668
 6096TIP3    H139703   2.428   6.843   0.110 -1.2714  1.8777  4.3033
 6096TIP3    H239704   2.362   6.739   0.198 -1.8445 -2.5058 -1.0499
 6097TIP3   OH239705   3.931   2.810   0.765  0.5044  0.0590  0.9488
 6097TIP3    H139706   3.857   2.869   0.755 -0.0672 -0.5392  1.5926
 6097TIP3    H239707   3.958   2.789   0.675 -0.5821 -0.3184  0.7024
 6098TIP3   OH239708   2.303   3.094  14.679 -0.0017  0.1500 -0.4506
 6098TIP3    H139709   2.241   3.167  14.684 -1.8265 -1.3226 -0.6810
 6098TIP3    H239710   2.357   3.114  14.603  0.9455  2.3117  0.7582
 6099TIP3   OH239711   3.273   0.420  15.013 -0.5788 -0.6345  0.5403
 6099TIP3    H139712   3.202   0.485  15.015  0.3770  0.4026  1.9349
 6099TIP3    H239713   3.259   0.367  15.092  1.0534  0.5375  1.6453
 6100TIP3   OH239714   2.888   5.214  16.536 -0.4458 -0.1944 -0.3696
 6100TIP3    H139715   2.866   5.302  16.506  0.0828  0.0466 -0.0548
 6100TIP3    H239716   2.820   5.158  16.499 -0.4783  0.2715 -1.0124
 6101TIP3   OH239717   3.307   0.392   1.042 -0.0405 -0.5617  0.5894
 6101TIP3    H139718   3.382   0.390   1.102  0.5143  1.1365 -0.0507
 6101TIP3    H239719   3.255   0.467   1.070 -1.0184 -1.1585  0.4155
 6102TIP3   OH239720   5.037   5.455  12.606 -0.4915  0.3709 -0.3942
 6102TIP3    H139721   5.102   5.504  12.555 -1.5170 -0.0714 -2.1395
 6102TIP3    H239722   5.082   5.437  12.689  1.4663  0.4666 -1.3934
 6103TIP3   OH239723   0.597   3.696  11.800 -0.0536 -0.1766 -0.4317
 6103TIP3    H139724   0.564   3.608  11.817  0.2969 -0.0950  0.7732
 6103TIP3    H239725   0.678   3.682  11.751 -1.0607 -0.4345 -2.0438
 6104TIP3   OH239726   1.795   1.647  12.669  0.0170 -0.3009 -0.0330
 6104TIP3    H139727   1.862   1.631  12.603  2.4074 -1.0638  2.4702
 6104TIP3    H239728   1.753   1.728  12.641  2.8922  0.9282 -1.0198
 6105TIP3   OH239729   5.517   1.336   0.004  0.4426  0.4656  0.4587
 6105TIP3    H139730   5.562   1.418   0.022 -2.7737  2.6888 -1.0576
 6105TIP3    H239731   5.536   1.318  -0.088  0.4348 -0.0289  0.5538
 6106TIP3   OH239732   6.516   5.229  10.767  0.2245 -0.2894  0.0659
 6106TIP3    H139733   6.489   5.244  10.677  0.1476 -1.1479 -0.0614
 6106TIP3    H239734   6.579   5.299  10.786  0.8470 -0.5877 -0.9193
 6107TIP3   OH239735   1.016   5.907  13.122 -0.4468  0.5724  0.2231
 6107TIP3    H139736   0.978   5.821  13.104 -1.4095  1.8497 -4.4214
 6107TIP3    H239737   0.949   5.952  13.173 -2.1409  0.2699 -1.6614
 6108TIP3   OH239738   3.364   0.865   2.654 -0.4084 -0.4244  0.2775
 6108TIP3    H139739   3.288   0.913   2.622  0.4446  0.9881  0.3096
 6108TIP3    H239740   3.438   0.905   2.608  0.8225  1.4511  3.7125
 6109TIP3   OH239741   5.839   5.313  14.419  0.5507  0.0793  0.9559
 6109TIP3    H139742   5.775   5.288  14.353 -0.1906  0.9145  1.3348
 6109TIP3    H239743   5.794   5.299  14.503  0.8939  0.5563  1.2289
 6110TIP3   OH239744   0.757   0.907  15.633 -0.1190  0.0967 -0.0691
 6110TIP3    H139745   0.720   0.821  15.613 -0.9087  0.2498  0.7148
 6110TIP3    H239746   0.716   0.966  15.569  0.8242 -0.1886 -0.9533
 6111TIP3   OH239747   1.256   5.524  13.863  0.2085 -0.2524 -0.3633
 6111TIP3    H139748   1.342   5.544  13.825 -0.1624  0.8664 -0.6569
 6111TIP3    H239749   1.273   5.460  13.931  1.2939  0.0342 -0.3610
 6112TIP3   OH239750   0.665   6.198  14.557  0.0706  0.2584  0.0118
 6112TIP3    H139751   0.697   6.198  14.647  1.9875  0.0717 -0.6476
 6112TIP3    H239752   0.659   6.291  14.533  1.1567  0.2773 -0.2076
 6113TIP3   OH239753   3.835   1.134  17.220  0.7412 -0.0193 -0.0717
 6113TIP3    H139754   3.916   1.185  17.211 -0.0068  1.0567 -0.7621
 6113TIP3    H239755   3.765   1.199  17.219 -0.2443 -1.0644 -1.2211
 6114TIP3   OH239756   4.573   0.724   2.993 -0.1372  0.9691  0.8659
 6114TIP3    H139757   4.516   0.756   2.923 -0.3513 -0.8215  0.1998
 6114TIP3    H239758   4.660   0.756   2.969 -0.4687  1.7166  0.6354
 6115TIP3   OH239759   0.164   1.892  16.940  0.7183 -0.3335  0.6180
 6115TIP3    H139760   0.193   1.908  17.030  0.4935  1.0378  0.4637
 6115TIP3    H239761   0.233   1.929  16.885 -1.2115  2.9392  0.2467
 6116TIP3   OH239762   1.973   3.702   6.424 -0.2355  0.3029  0.2825
 6116TIP3    H139763   1.996   3.735   6.511  0.0339  0.7664  0.0382
 6116TIP3    H239764   2.000   3.610   6.426  0.0088  0.3787  0.6045
 6117TIP3   OH239765   2.470   2.089  10.735  0.5002 -0.0724 -0.2719
 6117TIP3    H139766   2.448   1.998  10.752  0.0608  0.3641  1.6387
 6117TIP3    H239767   2.387   2.130  10.711  0.3737  0.1728  0.5509
 6118TIP3   OH239768   0.327   0.363   3.606 -0.6400 -0.4105 -0.6491
 6118TIP3    H139769   0.394   0.336   3.542  1.4860 -0.0883  1.3983
 6118TIP3    H239770   0.361   0.444   3.644 -1.0476 -1.5097  2.1312
 6119TIP3   OH239771   3.861   4.521  15.693 -0.4612 -0.2456 -0.1604
 6119TIP3    H139772   3.909   4.575  15.631 -2.4585  0.8286 -0.7973
 6119TIP3    H239773   3.918   4.517  15.770  0.0744  2.0937 -0.3956
 6120TIP3   OH239774   6.612   1.474  13.793  0.0809  0.3307 -0.2913
 6120TIP3    H139775   6.530   1.500  13.751  0.7108  0.2839 -1.5761
 6120TIP3    H239776   6.586   1.413  13.862 -0.8260 -1.2004 -1.9518
 6121TIP3   OH239777   6.542   0.501  12.916 -0.4542 -0.7330 -0.0827
 6121TIP3    H139778   6.456   0.498  12.873 -0.0154 -1.9476 -0.8918
 6121TIP3    H239779   6.605   0.499  12.844  0.2866  3.8468  0.3063
 6122TIP3   OH239780   2.961   3.960  16.123  0.4054 -0.1584 -0.2117
 6122TIP3    H139781   2.934   3.908  16.047  1.3944 -1.8394  0.5377
 6122TIP3    H239782   3.011   3.898  16.177  0.2626  1.1772  1.4974
 6123TIP3   OH239783   1.409   5.421  15.552  0.5615 -0.3958  0.4194
 6123TIP3    H139784   1.433   5.341  15.505 -0.2212 -0.4108  0.0261
 6123TIP3    H239785   1.469   5.426  15.626  0.1034 -1.7719  0.8978
 6124TIP3   OH239786   2.204   1.655  14.607  0.1191  0.0051  0.1893
 6124TIP3    H139787   2.277   1.613  14.562 -0.5220 -0.9501  0.0279
 6124TIP3    H239788   2.193   1.605  14.688 -1.3011 -0.8015 -0.4797
 6125TIP3   OH239789   1.961   1.291   0.886 -0.4484 -0.0788  0.2984
 6125TIP3    H139790   1.891   1.263   0.827 -1.0694 -0.3918  1.1662
 6125TIP3    H239791   1.921   1.287   0.973  0.9319 -1.2201  0.9052
 6126TIP3   OH239792   4.326   5.041  11.449 -0.0750  0.4340  0.0950
 6126TIP3    H139793   4.303   5.054  11.541 -1.6468  1.1751 -0.3694
 6126TIP3    H239794   4.259   5.090  11.401  0.0942 -0.8242 -1.4701
 6127TIP3   OH239795   2.534   0.451   1.759  0.3034  0.4693  0.0359
 6127TIP3    H139796   2.519   0.384   1.826 -1.8455 -0.0696 -0.9246
 6127TIP3    H239797   2.503   0.532   1.798 -1.4743  0.0559 -0.4975
 6128TIP3   OH239798   0.519   6.192  16.378 -0.1517  0.4642  0.2974
 6128TIP3    H139799   0.546   6.100  16.372 -0.4758  0.5097 -2.5283
 6128TIP3    H239800   0.597   6.241  16.351 -0.8208  0.8792 -0.9279
 6129TIP3   OH239801   0.641   3.234  16.324 -0.0221 -0.3200 -0.5800
 6129TIP3    H139802   0.735   3.226  16.341 -0.8201 -1.2508  4.0264
 6129TIP3    H239803   0.627   3.329  16.317  0.6119  0.1311  3.4000
 6130TIP3   OH239804   6.602   2.111  14.244 -0.3416 -0.0269  0.3513
 6130TIP3    H139805   6.568   2.198  14.266 -0.0783 -0.2564  1.7462
 6130TIP3    H239806   6.696   2.118  14.260 -0.2393 -0.4023 -0.1025
 6131TIP3   OH239807   3.551   1.952   4.362  0.1394 -0.9126  0.4732
 6131TIP3    H139808   3.558   1.951   4.458 -1.5437 -1.7649  0.6125
 6131TIP3    H239809   3.571   2.042   4.337 -1.3747 -0.1813  1.7990
 6132TIP3   OH239810   2.525   4.211  16.579 -0.1909  0.0062  0.5541
 6132TIP3    H139811   2.450   4.176  16.626 -1.2306  0.0955 -0.9852
 6132TIP3    H239812   2.569   4.269  16.641 -1.6549  0.2975  1.3227
 6133TIP3   OH239813   0.774   0.893   6.609  0.9845  0.0739 -0.5692
 6133TIP3    H139814   0.737   0.818   6.561  0.1193 -0.6654  1.1798
 6133TIP3    H239815   0.867   0.872   6.618  0.3522 -1.9936  1.9141
 6134TIP3   OH239816   0.987   5.186  10.668  0.1527  0.1172 -0.7974
 6134TIP3    H139817   1.071   5.216  10.702 -0.4458  1.6394 -0.6267
 6134TIP3    H239818   0.941   5.266  10.643 -1.0919 -0.7237 -1.2440
 6135TIP3   OH239819   4.888   2.955   2.573  0.0075  0.2018  0.0021
 6135TIP3    H139820   4.942   2.995   2.642  0.1968  2.6976 -1.5305
 6135TIP3    H239821   4.944   2.887   2.535  1.3992  1.5274 -0.3546
 6136TIP3   OH239822   5.870   5.027   4.796 -0.4683  0.2629 -0.5960
 6136TIP3    H139823   5.803   4.969   4.832 -1.0892  1.0328 -0.4747
 6136TIP3    H239824   5.831   5.115   4.803  2.1218  1.2580  3.2983
 6137TIP3   OH239825   1.280   6.029  13.197 -0.2839 -0.1478  0.0378
 6137TIP3    H139826   1.199   5.980  13.211 -0.7209  0.1123 -1.5030
 6137TIP3    H239827   1.348   5.963  13.197 -0.4811 -0.3775  1.2730
 6138TIP3   OH239828   2.855   4.050  13.787  0.3714  0.3275 -0.6314
 6138TIP3    H139829   2.813   3.987  13.728  1.1801 -0.3428 -0.4976
 6138TIP3    H239830   2.784   4.081  13.843  0.2530 -1.7034  0.3996
 6139TIP3   OH239831   0.240   0.656  11.332 -0.2045  0.2869 -0.2672
 6139TIP3    H139832   0.276   0.567  11.325 -1.9165 -0.3553 -1.3134
 6139TIP3    H239833   0.161   0.653  11.278 -1.3555  1.8801  1.3074
 6140TIP3   OH239834   2.550   2.715  13.081  0.2310 -0.0871  0.4681
 6140TIP3    H139835   2.610   2.643  13.064  0.8644 -0.1782  2.8862
 6140TIP3    H239836   2.602   2.794  13.065  0.2617 -0.1592  0.2046
 6141TIP3   OH239837   4.504   4.421  15.578  0.3634  0.5135 -0.1403
 6141TIP3    H139838   4.554   4.343  15.554 -0.8803 -0.6184  0.8964
 6141TIP3    H239839   4.511   4.426  15.673 -0.2366  1.2194 -0.1268
 6142TIP3   OH239840   4.385   2.592   1.547 -0.0599 -0.1819  0.0191
 6142TIP3    H139841   4.418   2.533   1.479 -0.7093  0.7090 -1.1025
 6142TIP3    H239842   4.453   2.658   1.557  0.5176 -0.9166  1.0333
 6143TIP3   OH239843   2.553   3.079  16.689  0.1267  0.4668 -0.4161
 6143TIP3    H139844   2.532   3.086  16.782  0.6533 -2.1238 -0.0727
 6143TIP3    H239845   2.512   2.997  16.661  0.1965  1.0870 -2.4068
 6144TIP3   OH239846   0.330   6.130  12.459 -0.2608  0.2899 -0.5351
 6144TIP3    H139847   0.354   6.038  12.462  0.0252  0.4027  1.4389
 6144TIP3    H239848   0.414   6.176  12.451 -0.2453  0.4469  0.4694
 6145TIP3   OH239849   1.193   6.241   3.809 -0.3064 -0.3190  0.5349
 6145TIP3    H139850   1.131   6.176   3.776  0.1062  0.0372 -1.0246
 6145TIP3    H239851   1.147   6.285   3.880 -2.0361  0.2345 -0.8786
 6146TIP3   OH239852   3.172   4.242   6.529  0.0251 -0.2800  0.0521
 6146TIP3    H139853   3.164   4.312   6.594 -0.3007 -0.1192 -0.1622
 6146TIP3    H239854   3.188   4.287   6.446  1.0489 -0.5146  0.1252
 6147TIP3   OH239855   4.728   5.475   1.356  0.2854 -0.3589  0.2052
 6147TIP3    H139856   4.697   5.556   1.315 -0.8999 -1.0615 -0.3049
 6147TIP3    H239857   4.796   5.503   1.417  0.1280  0.9836 -0.2322
 6148TIP3   OH239858   1.187   2.156   1.087  0.1600  0.6193 -0.7474
 6148TIP3    H139859   1.129   2.084   1.110  0.7728  0.7545  1.3291
 6148TIP3    H239860   1.128   2.232   1.077 -0.1168  0.5538  0.3871
 6149TIP3   OH239861   3.663   6.549  11.098  0.1992  0.1735  0.5786
 6149TIP3    H139862   3.612   6.470  11.078 -0.5218  0.4444  1.3335
 6149TIP3    H239863   3.683   6.586  11.012 -0.1255 -0.4153  0.2410
 6150TIP3   OH239864   0.704   5.604  17.029 -0.1802  0.8845 -0.4400
 6150TIP3    H139865   0.629   5.650  17.068 -1.0845  1.1642 -2.4560
 6150TIP3    H239866   0.669   5.519  17.004  0.5509  0.4880 -0.1230
 6151TIP3   OH239867   1.618   3.839  15.718  0.3407  0.0022  1.0744
 6151TIP3    H139868   1.708   3.826  15.746  1.9070  0.1879 -3.4957
 6151TIP3    H239869   1.588   3.753  15.690  0.3639  0.5255 -0.6730
 6152TIP3   OH239870   4.913   1.061  14.064 -0.3551  0.1357  0.1143
 6152TIP3    H139871   4.908   1.096  14.153  1.4595  0.9636 -0.0966
 6152TIP3    H239872   4.888   0.969  14.074 -0.2745  0.2454  1.4621
 6153TIP3   OH239873   1.875   6.177  16.608 -0.1181 -0.4023 -0.2608
 6153TIP3    H139874   1.896   6.253  16.554  0.7079 -0.2433  0.2662
 6153TIP3    H239875   1.917   6.103  16.563  0.5823 -0.2677  0.1591
 6154TIP3   OH239876   2.785   4.508   2.538 -0.1901  0.3145 -0.3071
 6154TIP3    H139877   2.859   4.514   2.598  0.4650  0.1588 -1.0967
 6154TIP3    H239878   2.813   4.446   2.470 -1.8087 -1.3697  0.4840
 6155TIP3   OH239879   0.301   0.832   1.918 -0.5112 -0.3600 -0.6142
 6155TIP3    H139880   0.346   0.902   1.966 -1.2224  0.1370 -0.6723
 6155TIP3    H239881   0.372   0.779   1.882  0.0329  0.2106 -0.3919
 6156TIP3   OH239882   6.368   3.230  12.371  0.6064  0.4736  0.1998
 6156TIP3    H139883   6.370   3.196  12.460  0.8034 -1.3310 -0.4704
 6156TIP3    H239884   6.459   3.253  12.351  0.6429  0.4012  0.2846
 6157TIP3   OH239885   0.457   3.551   1.010 -0.1086  0.3815  0.7822
 6157TIP3    H139886   0.538   3.603   1.004  0.5234 -0.3601  2.6699
 6157TIP3    H239887   0.470   3.479   0.948  1.6851 -1.0430  2.7504
 6158TIP3   OH239888   2.960   6.021   6.681 -0.3104 -0.4697  0.1099
 6158TIP3    H139889   2.928   5.931   6.689  0.0090 -0.8498 -2.5289
 6158TIP3    H239890   3.055   6.012   6.674 -0.3977 -0.0521 -1.7128
 6159TIP3   OH239891   5.759   2.007   3.819 -0.3985 -0.6204 -0.2909
 6159TIP3    H139892   5.678   1.981   3.776 -1.5020 -0.0259  1.3825
 6159TIP3    H239893   5.751   1.975   3.909  0.3651  1.1024  0.4332
 6160TIP3   OH239894   1.789   1.840   6.206  0.0231 -0.2371  0.5570
 6160TIP3    H139895   1.731   1.772   6.172 -0.8816 -0.4936  2.5517
 6160TIP3    H239896   1.863   1.841   6.145 -1.4606 -0.7835 -1.2855
 6161TIP3   OH239897   4.430   3.688  15.782  0.0722 -0.4130 -0.9784
 6161TIP3    H139898   4.510   3.655  15.823 -0.4299 -2.0168 -1.2898
 6161TIP3    H239899   4.378   3.722  15.855  1.4472  1.5830 -0.8732
 6162TIP3   OH239900   0.555   0.844   0.923  0.1651  0.1774  0.3487
 6162TIP3    H139901   0.578   0.810   1.010 -1.6725 -0.0040  0.7894
 6162TIP3    H239902   0.563   0.768   0.866 -0.6077 -0.2058  0.7350
 6163TIP3   OH239903   3.135   4.334   3.086 -0.3868 -0.6985 -0.4825
 6163TIP3    H139904   3.181   4.250   3.094  2.3462  0.5540 -2.5872
 6163TIP3    H239905   3.185   4.393   3.143 -1.7295 -0.2319  0.2235
 6164TIP3   OH239906   4.619   0.427  11.057  0.0288  0.0197 -0.2295
 6164TIP3    H139907   4.696   0.449  11.109 -0.0930 -0.9110  0.3565
 6164TIP3    H239908   4.652   0.416  10.968  0.5870 -0.4830  0.0416
 6165TIP3   OH239909   1.180   4.737  16.931  0.7379  0.0421 -0.6661
 6165TIP3    H139910   1.215   4.752  17.019  1.2366 -0.7098 -0.7325
 6165TIP3    H239911   1.197   4.818  16.884 -1.1457  1.1237  0.4606
 6166TIP3   OH239912   2.880   3.481   0.043 -0.7442  0.5067 -0.0449
 6166TIP3    H139913   2.844   3.561   0.004  0.1535  0.3287 -1.2597
 6166TIP3    H239914   2.872   3.415  -0.026  0.4144  0.0606  0.2440
 6167TIP3   OH239915   6.340   3.269   1.973 -0.7504  0.2222  0.3695
 6167TIP3    H139916   6.340   3.207   2.046 -3.9495 -1.0189 -0.6101
 6167TIP3    H239917   6.360   3.353   2.014  0.2404 -0.8900  2.2403
 6168TIP3   OH239918   3.838   3.160  11.407 -0.1818  0.2745  0.1552
 6168TIP3    H139919   3.885   3.112  11.338 -0.2233  1.8746 -1.0253
 6168TIP3    H239920   3.760   3.108  11.424  0.2547 -0.5768 -0.4074
 6169TIP3   OH239921   3.791   3.207   5.877 -0.3901 -0.2846 -0.2787
 6169TIP3    H139922   3.700   3.232   5.890  0.0469  0.8043  0.7140
 6169TIP3    H239923   3.818   3.171   5.961  0.0936 -0.6292 -0.5784
 6170TIP3   OH239924   2.955   2.884   3.112  0.1341 -0.3422 -0.3573
 6170TIP3    H139925   2.937   2.825   3.185  3.3137 -0.9843 -0.0217
 6170TIP3    H239926   2.995   2.828   3.045  3.3463  1.4184  0.0263
 6171TIP3   OH239927   5.151   4.628   0.847  0.3676 -0.2311 -0.2771
 6171TIP3    H139928   5.108   4.689   0.788 -1.9299  0.3932  1.9932
 6171TIP3    H239929   5.113   4.543   0.826 -0.9997  0.1087  0.7969
 6172TIP3   OH239930   5.626   4.914  11.055 -0.8390 -0.0787 -0.3296
 6172TIP3    H139931   5.642   4.880  10.967 -0.2293 -0.0944 -0.2095
 6172TIP3    H239932   5.592   4.839  11.104 -0.0682 -0.3619 -0.2297
 6173TIP3   OH239933   1.466   2.875   1.195 -0.2257  0.0270 -0.0986
 6173TIP3    H139934   1.399   2.940   1.174 -2.2131 -2.1290 -0.6663
 6173TIP3    H239935   1.481   2.829   1.112  0.7767 -0.5940  0.4212
 6174TIP3   OH239936   0.179   3.328  13.482  0.0188 -0.8553  0.0149
 6174TIP3    H139937   0.195   3.416  13.448  1.0656 -1.6066 -1.5347
 6174TIP3    H239938   0.109   3.339  13.547 -1.6105  0.7564 -1.9338
 6175TIP3   OH239939   5.496   4.307   1.472  0.2998  0.0088 -0.6132
 6175TIP3    H139940   5.570   4.315   1.533 -0.3678 -0.3120  0.2582
 6175TIP3    H239941   5.482   4.396   1.439 -2.0419  1.0947  2.9782
 6176TIP3   OH239942   0.482   1.064  15.545  0.1785  1.2429 -0.0479
 6176TIP3    H139943   0.407   1.101  15.499  0.3913  0.3014 -1.1858
 6176TIP3    H239944   0.558   1.099  15.498  0.4435  1.7992  0.7911
 6177TIP3   OH239945   2.014   1.405  16.412  0.2310  0.7014 -0.1823
 6177TIP3    H139946   2.091   1.349  16.408  1.2974  2.1503 -0.2467
 6177TIP3    H239947   1.997   1.415  16.506 -0.6047 -0.6018 -0.1952
 6178TIP3   OH239948   2.872   3.415  11.813  0.9993 -0.2548 -0.2786
 6178TIP3    H139949   2.888   3.443  11.903  0.7949 -1.3300  0.1097
 6178TIP3    H239950   2.946   3.357  11.793  1.1532  0.1493 -0.8778
 6179TIP3   OH239951   0.194   5.223   5.611 -0.1491 -0.3304 -0.1468
 6179TIP3    H139952   0.206   5.155   5.677 -1.0872 -1.2976 -0.9536
 6179TIP3    H239953   0.243   5.191   5.535 -0.1850  0.1359 -0.3677
 6180TIP3   OH239954   4.568   2.611  13.647 -0.1336  0.0771  0.4865
 6180TIP3    H139955   4.584   2.702  13.624  0.7931  0.0925  1.1835
 6180TIP3    H239956   4.651   2.580  13.684 -0.5519 -0.9370  0.5947
 6181TIP3   OH239957   4.107   2.148   2.548  0.2765 -0.2030  0.2579
 6181TIP3    H139958   4.177   2.087   2.573  0.3140 -0.0644  0.4922
 6181TIP3    H239959   4.137   2.233   2.581  0.6670  0.1160 -0.9002
 6182TIP3   OH239960   6.080   1.472   5.143  0.0007  0.0362 -0.1017
 6182TIP3    H139961   6.115   1.561   5.135  2.8482 -0.7704  2.2970
 6182TIP3    H239962   5.985   1.483   5.143  0.2786  2.9315 -1.0073
 6183TIP3   OH239963   3.432   3.853  16.406 -0.0615 -0.1198 -0.0831
 6183TIP3    H139964   3.357   3.797  16.385  0.4078 -0.6666 -0.3294
 6183TIP3    H239965   3.442   3.909  16.329 -1.2980  1.1697  0.6731
 6184TIP3   OH239966   1.654   1.206   3.649  0.1298 -0.1392 -0.4714
 6184TIP3    H139967   1.713   1.235   3.580  2.3258 -2.4681  0.3412
 6184TIP3    H239968   1.692   1.242   3.729 -2.0474  2.0211 -0.3680
 6185TIP3   OH239969   1.015   3.791   3.659 -0.1675  0.1559 -0.4438
 6185TIP3    H139970   1.104   3.785   3.625  0.4223  0.0401  1.1166
 6185TIP3    H239971   0.973   3.710   3.629  0.2169  0.2508 -1.2524
 6186TIP3   OH239972   3.634   3.063   4.400  0.4610  0.1895  0.2518
 6186TIP3    H139973   3.546   3.077   4.367  0.1081 -1.1128  0.6137
 6186TIP3    H239974   3.642   2.968   4.410  1.5200  0.3598  1.2472
 6187TIP3   OH239975   0.644   3.989  14.567  0.6192 -0.1524  0.4587
 6187TIP3    H139976   0.694   4.025  14.640 -0.1920  0.2366  0.8284
 6187TIP3    H239977   0.659   4.052  14.496  0.5231  0.0493  0.6146
 6188TIP3   OH239978   1.742   6.237  14.625  0.2241  0.5294 -0.0383
 6188TIP3    H139979   1.717   6.155  14.583 -0.2586  0.2847  0.7191
 6188TIP3    H239980   1.806   6.276  14.565 -0.5918  0.2832 -1.0803
 6189TIP3   OH239981   2.080   3.621   5.142  0.1076  0.0956 -0.1582
 6189TIP3    H139982   1.994   3.588   5.114 -0.2056  1.3119 -0.6653
 6189TIP3    H239983   2.068   3.642   5.234 -0.1558  0.2631 -0.2270
 6190TIP3   OH239984   1.646   6.519  13.563 -0.1362  0.0337  0.2592
 6190TIP3    H139985   1.561   6.477  13.568  0.0370 -0.4941 -0.8831
 6190TIP3    H239986   1.627   6.612  13.559 -0.6369 -0.0601  0.4558
 6191TIP3   OH239987   1.912   4.290  11.339 -0.0267 -0.0414 -0.2056
 6191TIP3    H139988   1.925   4.243  11.257  0.4937 -0.1420 -0.0671
 6191TIP3    H239989   1.971   4.247  11.401  1.2539  1.4954 -0.3543
 6192TIP3   OH239990   0.327   2.573   4.562 -0.0161  0.1952  0.2840
 6192TIP3    H139991   0.395   2.637   4.543  1.1842 -0.7816  1.2213
 6192TIP3    H239992   0.271   2.616   4.626  0.2882  0.6343  0.2529
 6193TIP3   OH239993   5.632   5.180  12.694 -0.0039 -0.2097 -0.0120
 6193TIP3    H139994   5.698   5.197  12.761 -0.8036  1.1535  0.4590
 6193TIP3    H239995   5.651   5.244  12.625  0.2681 -1.0138 -0.6953
 6194TIP3   OH239996   2.878   5.860   4.781 -0.0611  0.3326  0.4021
 6194TIP3    H139997   2.857   5.952   4.764  1.5507  0.6002 -0.2756
 6194TIP3    H239998   2.960   5.845   4.732  0.2690 -1.1536  1.3841
 6195TIP3   OH239999   3.787   3.376   0.912 -0.4188  0.3392  0.2273
 6195TIP3    H140000   3.750   3.417   0.989 -1.8332 -0.6310  0.0776
 6195TIP3    H240001   3.774   3.440   0.841 -1.3564  0.2112  0.2805
 6196TIP3   OH240002   4.663   1.029  12.350 -0.5434 -0.2992  0.0589
 6196TIP3    H140003   4.646   1.111  12.303  0.3283 -1.3824 -2.2394
 6196TIP3    H240004   4.580   0.982  12.345 -0.5971 -0.2007  0.0074
 6197TIP3   OH240005   5.479   5.742   2.123 -0.3051 -0.4190 -0.6381
 6197TIP3    H140006   5.448   5.765   2.211 -2.7142  0.4994 -1.6865
 6197TIP3    H240007   5.562   5.790   2.114 -2.2674  3.2006 -0.5150
 6198TIP3   OH240008   5.022   5.943  13.804  0.1107  0.2777 -0.1510
 6198TIP3    H140009   4.940   5.991  13.820  0.7044  1.0866  0.5362
 6198TIP3    H240010   5.065   5.941  13.889  1.2489  0.7182 -0.7069
 6199TIP3   OH240011   5.580   2.954   2.791  0.0141 -0.0498 -0.2081
 6199TIP3    H140012   5.597   2.935   2.699  0.2031 -1.6186  0.1443
 6199TIP3    H240013   5.612   3.044   2.803  4.6687 -1.5084 -0.5381
 6200TIP3   OH240014   2.130   6.647   4.432 -0.2453 -0.2269 -0.4587
 6200TIP3    H140015   2.216   6.679   4.407 -0.0646 -1.3553 -1.3251
 6200TIP3    H240016   2.078   6.651   4.352 -0.3427 -1.6153 -0.4868
 6201TIP3   OH240017   3.062   2.697   1.764 -0.7606 -0.6010  0.2352
 6201TIP3    H140018   3.130   2.630   1.775 -2.2177 -2.1184  0.2225
 6201TIP3    H240019   3.107   2.769   1.720  0.5414 -2.0792 -0.9375
 6202TIP3   OH240020   2.174   1.774   4.204  0.2457  0.1760 -0.3901
 6202TIP3    H140021   2.096   1.751   4.255  1.1313 -0.4440  0.7191
 6202TIP3    H240022   2.152   1.857   4.162 -2.0062 -1.3396 -2.2932
 6203TIP3   OH240023   3.120   0.699  13.498  0.2091 -0.7296 -0.5442
 6203TIP3    H140024   3.184   0.715  13.429  1.6781 -3.6532  0.0734
 6203TIP3    H240025   3.047   0.655  13.455  0.4254 -1.0979 -0.5390
 6204TIP3   OH240026   5.119   3.510   2.268  0.3389  0.0425  0.1394
 6204TIP3    H140027   5.031   3.481   2.291  1.0508 -0.7464  1.9256
 6204TIP3    H240028   5.114   3.605   2.266 -0.9907 -0.0360 -1.6255
 6205TIP3   OH240029   4.267   0.817   5.188  0.0411  0.3824  0.3757
 6205TIP3    H140030   4.337   0.761   5.156 -0.5859  0.3050 -0.8946
 6205TIP3    H240031   4.295   0.906   5.167  0.8495  0.5515  2.0307
 6206TIP3   OH240032   1.521   1.205  13.396 -0.0723 -0.5989 -0.3159
 6206TIP3    H140033   1.473   1.268  13.449 -0.2380  2.8598 -4.3331
 6206TIP3    H240034   1.612   1.214  13.423 -0.6364 -1.9948  2.2543
 6207TIP3   OH240035   3.009   4.722  11.816  0.0320 -0.3912  0.3111
 6207TIP3    H140036   2.914   4.726  11.804  0.0008 -1.9144 -0.1567
 6207TIP3    H240037   3.033   4.807  11.851 -1.1943  0.8529 -1.7660
 6208TIP3   OH240038   6.347   3.030  10.955 -0.4228 -0.2676  0.6109
 6208TIP3    H140039   6.392   3.073  10.882  0.7600 -0.0315  1.4591
 6208TIP3    H240040   6.359   3.090  11.029  1.5784 -2.1743  1.9116
 6209TIP3   OH240041   6.201   5.802  12.068 -0.2349  0.4077 -0.4635
 6209TIP3    H140042   6.124   5.748  12.086 -0.5992  0.8275 -0.7565
 6209TIP3    H240043   6.168   5.873  12.014  0.3398  0.6546 -0.4903
 6210TIP3   OH240044   5.722   6.588  13.158 -0.3382  0.3664  0.0717
 6210TIP3    H140045   5.659   6.635  13.102 -0.6461 -1.0168 -0.7745
 6210TIP3    H240046   5.667   6.544  13.223  0.0166  1.9164  1.4286
 6211TIP3   OH240047   0.296   5.242  17.063  0.4089  0.4788  0.7889
 6211TIP3    H140048   0.211   5.201  17.077  1.1623 -1.7827 -0.7913
 6211TIP3    H240049   0.342   5.232  17.146  0.7018 -2.3497  0.3622
 6212TIP3   OH240050   2.613   4.153  13.928  0.0147  0.2329 -0.1757
 6212TIP3    H140051   2.650   4.163  14.016  0.1570  0.0985 -0.2207
 6212TIP3    H240052   2.528   4.197  13.933  0.1168  0.4168 -0.0329
 6213TIP3   OH240053   1.127   0.095   4.580  0.6939 -0.1583 -0.2479
 6213TIP3    H140054   1.168   0.122   4.662  1.7868  1.5900 -1.3279
 6213TIP3    H240055   1.037   0.074   4.604  0.7571  1.1690  1.2589
 6214TIP3   OH240056   2.810   0.282  14.659  0.0761 -0.6086  0.2521
 6214TIP3    H140057   2.869   0.315  14.591  1.3948 -2.5818  0.3996
 6214TIP3    H240058   2.804   0.188  14.642 -1.5082 -0.7383  1.4129
 6215TIP3   OH240059   6.109   4.349  13.871  0.6246  0.2286  0.2144
 6215TIP3    H140060   6.160   4.334  13.792 -1.9337 -1.2290 -1.2171
 6215TIP3    H240061   6.094   4.444  13.873  1.7842  0.4301 -0.3383
 6216TIP3   OH240062   0.184   6.601  11.146  0.8004  0.2653 -0.6325
 6216TIP3    H140063   0.252   6.666  11.126 -0.5918  1.8072 -0.4541
 6216TIP3    H240064   0.103   6.641  11.116  0.1210 -2.1679 -2.1568
 6217TIP3   OH240065   1.448   4.353   4.343  0.0044  0.7867 -0.3878
 6217TIP3    H140066   1.396   4.400   4.278  0.5077  0.3769 -1.0995
 6217TIP3    H240067   1.533   4.339   4.300 -0.8810 -2.8664 -1.1538
 6218TIP3   OH240068   4.395   6.072   0.509 -0.7272  0.5894  0.9480
 6218TIP3    H140069   4.384   6.130   0.434 -0.5252  1.3813  1.5163
 6218TIP3    H240070   4.349   6.117   0.580  0.5052  0.6926  1.7053
 6219TIP3   OH240071   3.448   2.139  13.931  0.1118  0.6439  0.0569
 6219TIP3    H140072   3.384   2.073  13.959 -0.3338  0.6945 -0.8257
 6219TIP3    H240073   3.400   2.193  13.869  0.5975  1.5578  0.4698
 6220TIP3   OH240074   3.643   4.271   3.699 -0.7179  0.2438  0.0884
 6220TIP3    H140075   3.701   4.332   3.654 -1.5579  0.3210 -0.9029
 6220TIP3    H240076   3.569   4.260   3.639 -1.0404 -0.9669  0.7010
 6221TIP3   OH240077   6.381   4.613  11.829 -0.6542 -0.0829  0.1690
 6221TIP3    H140078   6.426   4.600  11.913 -0.2806  0.7626  0.1047
 6221TIP3    H240079   6.328   4.691  11.842 -1.1192 -0.3438 -0.1690
 6222TIP3   OH240080   0.567   2.516  11.128 -0.3145  0.1717  0.2710
 6222TIP3    H140081   0.562   2.544  11.036 -2.0287 -0.8567  0.0205
 6222TIP3    H240082   0.510   2.439  11.132 -0.4417  0.3566  2.2461
 6223TIP3   OH240083   5.141   6.489   0.505  0.2937 -0.3371  0.2535
 6223TIP3    H140084   5.048   6.513   0.501 -0.2277 -2.4387 -0.5878
 6223TIP3    H240085   5.155   6.463   0.595 -0.2342 -1.2046  0.0852
 6224TIP3   OH240086   0.119   5.986   5.534  0.0036 -0.7379  0.4339
 6224TIP3    H140087   0.064   5.996   5.456 -0.8991 -1.2489  1.0033
 6224TIP3    H240088   0.103   6.065   5.585 -0.8528 -1.2679  1.0001
 6225TIP3   OH240089   4.552   1.212  13.190  0.8918 -0.3585  0.2707
 6225TIP3    H140090   4.640   1.217  13.154  0.2441 -0.7737 -1.4511
 6225TIP3    H240091   4.543   1.121  13.219  1.2670 -0.1342  1.0973
 6226TIP3   OH240092   4.777   5.203  12.030  0.0398 -0.5170 -0.9676
 6226TIP3    H140093   4.777   5.223  12.123 -0.4197 -0.9455 -0.8738
 6226TIP3    H240094   4.864   5.168  12.013  0.9911  1.8432 -1.2065
 6227TIP3   OH240095   4.397   1.382   5.329  0.3668  0.2783 -0.1898
 6227TIP3    H140096   4.475   1.328   5.318  0.5815  0.5381  0.0348
 6227TIP3    H240097   4.325   1.320   5.337  0.6150  0.0255  0.0917
 6228TIP3   OH240098   0.475   0.362  11.234  0.2913 -0.7296  0.0602
 6228TIP3    H140099   0.544   0.428  11.244 -0.8222  0.6111 -0.8403
 6228TIP3    H240100   0.518   0.290  11.188  1.6082 -0.7720  1.3354
 6229TIP3   OH240101   3.084   4.762  12.678  0.4034  0.6082 -0.1919
 6229TIP3    H140102   3.168   4.716  12.669  0.8657  1.2481  0.7216
 6229TIP3    H240103   3.018   4.693  12.673  0.9363  0.2019 -1.7791
 6230TIP3   OH240104   0.259   2.468  13.074 -0.5007  0.4682  0.0955
 6230TIP3    H140105   0.165   2.463  13.057 -0.8389  0.3541  1.9681
 6230TIP3    H240106   0.295   2.389  13.032 -1.4098 -0.1571  0.4829
 6231TIP3   OH240107   6.166   6.035   6.432 -0.1328 -1.0679  0.0821
 6231TIP3    H140108   6.223   5.958   6.431 -0.0377 -1.0063 -1.5961
 6231TIP3    H240109   6.181   6.076   6.517  3.3379 -0.3231 -0.8219
 6232TIP3   OH240110   0.497   2.578  13.202 -0.1048  0.1385  0.0943
 6232TIP3    H140111   0.407   2.549  13.211 -0.3543  1.1103  0.9382
 6232TIP3    H240112   0.498   2.666  13.241  1.0774  0.3739 -0.4188
 6233TIP3   OH240113   6.540   0.102  13.929  0.8944  0.3144 -0.3058
 6233TIP3    H140114   6.631   0.073  13.923  0.5154 -0.4623 -3.1084
 6233TIP3    H240115   6.546   0.196  13.944  2.1862  0.5006 -1.8449
 6234TIP3   OH240116   1.930   3.114   2.219 -0.3771  0.1626 -0.4855
 6234TIP3    H140117   2.012   3.100   2.171  0.1618  0.1620  0.4273
 6234TIP3    H240118   1.950   3.088   2.309 -1.4525 -0.0777 -0.3077
 6235TIP3   OH240119   3.460   3.999   5.781 -0.7264 -0.1423  0.5401
 6235TIP3    H140120   3.401   4.045   5.841  1.2706  2.4927  0.5875
 6235TIP3    H240121   3.429   4.024   5.694 -0.0999  0.7503  0.5618
 6236TIP3   OH240122   2.550   4.607  14.880 -0.2097 -0.7917  0.0937
 6236TIP3    H140123   2.469   4.557  14.886 -1.0759  0.6955  1.1232
 6236TIP3    H240124   2.548   4.646  14.793 -1.6027  0.8840  0.8579
 6237TIP3   OH240125   4.864   2.539  15.858 -0.7297  0.1683 -1.0814
 6237TIP3    H140126   4.785   2.581  15.891 -0.8264 -0.1930 -0.8416
 6237TIP3    H240127   4.847   2.445  15.870  0.6191  0.1486  1.0761
 6238TIP3   OH240128   6.645   6.403   0.408 -0.1838 -0.0669 -0.4223
 6238TIP3    H140129   6.620   6.390   0.500  2.2542 -1.4380  0.0978
 6238TIP3    H240130   6.670   6.315   0.378  1.6249  0.8150 -1.5765
 6239TIP3   OH240131   0.328   1.278   1.063  0.0545 -0.2262 -0.1195
 6239TIP3    H140132   0.320   1.241   1.152  0.5807  0.3014  0.1506
 6239TIP3    H240133   0.370   1.208   1.012  0.4365 -0.2506  0.2265
 6240TIP3   OH240134   2.768   4.867   6.025 -0.5116 -0.4800 -0.2827
 6240TIP3    H140135   2.758   4.899   5.936 -0.4186 -1.7238 -0.7424
 6240TIP3    H240136   2.812   4.939   6.071  0.0180 -0.0832 -1.3850
 6241TIP3   OH240137   5.804   0.719  16.408  0.0819 -0.2873  0.1133
 6241TIP3    H140138   5.756   0.718  16.326  2.3407 -1.6969 -1.2411
 6241TIP3    H240139   5.861   0.796  16.403  0.8450 -0.8549 -0.0271
 6242TIP3   OH240140   3.229   2.964   3.243 -0.7779  0.3049  0.2258
 6242TIP3    H140141   3.229   2.874   3.209  0.6823  0.9207 -1.4769
 6242TIP3    H240142   3.143   2.998   3.221 -0.8515 -0.2418 -0.3365
 6243TIP3   OH240143   2.464   1.116  12.441  0.2390  0.0124 -0.0159
 6243TIP3    H140144   2.388   1.060  12.422  0.1668 -0.1857  0.8388
 6243TIP3    H240145   2.426   1.197  12.476  0.3590  0.4793 -0.9467
 6244TIP3   OH240146   6.019   1.746  11.916  0.1076  0.1546 -0.5918
 6244TIP3    H140147   5.994   1.671  11.861  0.3913 -0.5909  0.2916
 6244TIP3    H240148   5.989   1.723  12.003  0.4163  0.9676 -0.2687
 6245TIP3   OH240149   2.790   5.674  15.031 -0.1416 -0.0034 -0.4106
 6245TIP3    H140150   2.828   5.718  15.107 -0.5074  0.2294 -0.3569
 6245TIP3    H240151   2.701   5.652  15.058 -0.1107 -0.3639 -0.6013
 6246TIP3   OH240152   2.673   0.982  16.257 -0.2362 -0.7800 -0.6883
 6246TIP3    H140153   2.602   1.025  16.305  0.8819 -0.4924  0.7805
 6246TIP3    H240154   2.752   1.006  16.307  0.8197 -1.4819 -2.0053
 6247TIP3   OH240155   2.239   6.034   4.229 -0.4508  0.1763  0.3021
 6247TIP3    H140156   2.189   6.039   4.148 -1.7745  0.0030  1.0841
 6247TIP3    H240157   2.174   6.011   4.296  0.9691 -1.7460  1.0603
 6248TIP3   OH240158   3.735   4.077   4.906  0.2469 -0.5459 -0.0829
 6248TIP3    H140159   3.826   4.082   4.934 -0.0238 -0.2781  0.7831
 6248TIP3    H240160   3.701   4.166   4.922 -0.6098 -1.0810  1.2030
 6249TIP3   OH240161   0.092   1.994   3.793 -0.1869 -0.0299  0.2013
 6249TIP3    H140162   0.045   2.075   3.776 -0.5350 -0.4499 -0.8895
 6249TIP3    H240163   0.135   2.008   3.877 -0.5074  1.1613  0.1729
 6250TIP3   OH240164   5.132   2.161   3.775 -0.0847  0.2218  0.0468
 6250TIP3    H140165   5.120   2.110   3.695 -1.1003  0.7179 -0.1173
 6250TIP3    H240166   5.104   2.103   3.845 -0.6077  0.3198 -0.0824
 6251TIP3   OH240167   5.583   5.985  14.098 -0.2413 -0.5089  0.0172
 6251TIP3    H140168   5.649   5.958  14.035  0.4173  1.3061 -0.1193
 6251TIP3    H240169   5.633   6.030  14.166 -1.3380  1.0977 -0.2147
 6252TIP3   OH240170   5.836   0.093  12.722  0.2078 -0.4940  0.2451
 6252TIP3    H140171   5.833   0.018  12.663  1.3151  0.2960 -0.8375
 6252TIP3    H240172   5.766   0.151  12.692 -0.5143 -0.9990  0.9518
 6253TIP3   OH240173   1.767   0.401   5.618  0.3637  0.5005  0.5600
 6253TIP3    H140174   1.772   0.465   5.547  1.7728  0.4757  0.6207
 6253TIP3    H240175   1.673   0.393   5.637 -0.1978 -0.8774 -2.5454
 6254TIP3   OH240176   2.626   1.357  14.540 -0.1064 -0.5106  0.5511
 6254TIP3    H140177   2.612   1.271  14.500  0.3862 -1.2191  1.8448
 6254TIP3    H240178   2.544   1.377  14.585 -1.0536  0.7920 -1.6720
 6255TIP3   OH240179   1.712   3.883  13.520 -0.6032  0.0668  0.3542
 6255TIP3    H140180   1.652   3.944  13.475  0.7864  1.1906 -0.0123
 6255TIP3    H240181   1.689   3.890  13.612 -0.7083  0.8742  0.2677
 6256TIP3   OH240182   4.855   0.728  12.690  0.3632 -0.6817 -0.2182
 6256TIP3    H140183   4.833   0.662  12.625 -1.3497 -0.1516 -0.2016
 6256TIP3    H240184   4.951   0.730  12.691  0.4320 -2.5897 -0.7781
 6257TIP3   OH240185   1.943   2.113  12.415 -0.0243  0.8864 -0.1364
 6257TIP3    H140186   1.982   2.127  12.501  0.2407  0.2974 -0.1577
 6257TIP3    H240187   2.003   2.157  12.354  0.1635  0.7076 -0.0847
 6258TIP3   OH240188   5.792   5.906   5.096  0.1051  0.2497 -0.0880
 6258TIP3    H140189   5.888   5.903   5.105  0.1979  0.8703 -0.7664
 6258TIP3    H240190   5.760   5.843   5.161  0.9843 -0.1801 -0.0562
 6259TIP3   OH240191   4.850   6.546  13.475  0.2904 -0.0720 -0.3841
 6259TIP3    H140192   4.849   6.452  13.459 -1.6341  0.1981 -1.9682
 6259TIP3    H240193   4.783   6.559  13.542  2.2249 -0.0916  1.6252
 6260TIP3   OH240194   0.687   6.414  16.349 -0.4777  0.2539 -0.3364
 6260TIP3    H140195   0.647   6.480  16.406 -1.4591 -0.3686 -0.3026
 6260TIP3    H240196   0.781   6.425  16.362 -0.6430  1.5960 -0.2765
 6261TIP3   OH240197   0.609   5.449   1.393  0.0075  0.3119  0.4114
 6261TIP3    H140198   0.683   5.430   1.450 -1.1299 -1.4134  1.3380
 6261TIP3    H240199   0.595   5.368   1.344 -0.4108  1.0761 -0.7596
 6262TIP3   OH240200   3.014   0.262  12.191  0.4930 -0.4890 -0.0805
 6262TIP3    H140201   2.965   0.208  12.252  0.2754  0.3524  0.4975
 6262TIP3    H240202   3.034   0.342  12.240 -0.7771  0.7446 -1.5019
 6263TIP3   OH240203   0.710   6.409  16.861  0.4874  0.3371  0.3907
 6263TIP3    H140204   0.689   6.368  16.777  1.5481  0.9592 -0.1942
 6263TIP3    H240205   0.662   6.357  16.926 -0.7303  0.1554 -0.6360
 6264TIP3   OH240206   1.255   1.205   2.974  0.1144  0.2737  0.9422
 6264TIP3    H140207   1.187   1.271   2.987  0.0156  0.1213  1.2084
 6264TIP3    H240208   1.222   1.127   3.018 -0.5401 -0.4837 -0.8492
 6265TIP3   OH240209   0.891   2.886  16.530 -0.3889 -0.2853  0.3525
 6265TIP3    H140210   0.935   2.838  16.461 -1.7137 -2.0117  0.6616
 6265TIP3    H240211   0.798   2.868  16.516 -0.6766 -0.7281  2.5854
 6266TIP3   OH240212   2.685   6.697  15.601 -0.0105  0.2683  0.6217
 6266TIP3    H140213   2.695   6.667  15.511 -0.8608  0.8308  0.3309
 6266TIP3    H240214   2.696   6.618  15.654 -0.1542 -0.1831 -0.0127
 6267TIP3   OH240215   5.640   2.412  15.773  0.7458  0.2640  0.2502
 6267TIP3    H140216   5.570   2.475  15.790 -0.1277 -0.4778 -0.5528
 6267TIP3    H240217   5.700   2.458  15.715  0.7993  0.8130  0.7340
 6268TIP3   OH240218   0.947   3.576  16.334  0.2933  0.0433  0.2319
 6268TIP3    H140219   0.867   3.539  16.297  0.3821  1.1422 -1.0708
 6268TIP3    H240220   0.916   3.640  16.398  0.1322  0.6100 -0.4153
 6269TIP3   OH240221   0.161   3.174  13.254 -0.0062 -0.0862  0.0635
 6269TIP3    H140222   0.242   3.124  13.251  0.1681  0.2132 -0.2152
 6269TIP3    H240223   0.178   3.243  13.318 -0.2413 -0.3711  0.4348
 6270TIP3   OH240224   1.465   0.534   0.959 -0.2389  0.3708  0.3353
 6270TIP3    H140225   1.382   0.538   1.005 -0.2183 -0.1855  0.4223
 6270TIP3    H240226   1.458   0.457   0.902  0.2623  0.2445  0.4408
 6271TIP3   OH240227   4.731   3.885  15.105 -0.1722 -0.3712 -0.3117
 6271TIP3    H140228   4.705   3.926  15.187 -0.9885  0.5011 -0.9971
 6271TIP3    H240229   4.655   3.833  15.079  0.4764 -1.5176  0.0232
 6272TIP3   OH240230   5.279   0.043   3.050 -0.7594 -0.2342  0.5294
 6272TIP3    H140231   5.362   0.091   3.051 -0.1127 -1.3572  0.5344
 6272TIP3    H240232   5.258   0.030   3.143 -1.2597  0.5782  0.5394
 6273TIP3   OH240233   0.679   4.506   5.483 -0.2510 -0.2319 -0.6023
 6273TIP3    H140234   0.675   4.490   5.577  0.0422  2.6383 -0.0637
 6273TIP3    H240235   0.595   4.474   5.449 -0.6479 -0.6046  0.7276
 6274TIP3   OH240236   5.772   6.045  11.486  0.2992  0.4585  0.0748
 6274TIP3    H140237   5.741   6.132  11.512 -1.3685  0.2067 -1.0327
 6274TIP3    H240238   5.700   6.007  11.436  0.5566 -2.0270  1.5073
 6275TIP3   OH240239   2.905   0.104   1.498  0.1043  0.1328  0.2102
 6275TIP3    H140240   2.898   0.011   1.476 -0.3876  0.0718  0.6199
 6275TIP3    H240241   2.995   0.115   1.529  0.0040 -0.3146  0.6595
 6276TIP3   OH240242   0.390   1.043   0.620 -0.0833 -0.0081  0.2508
 6276TIP3    H140243   0.318   1.054   0.558  0.3936  0.4672 -0.2189
 6276TIP3    H240244   0.438   0.967   0.588  0.5108  0.5996 -0.3033
 6277TIP3   OH240245   6.539   3.392  13.756  0.0035  0.2764 -0.6180
 6277TIP3    H140246   6.518   3.299  13.750  1.4879  0.0151 -2.4631
 6277TIP3    H240247   6.472   3.436  13.705  0.0404  0.0845 -0.8324
 6278TIP3   OH240248   6.497   5.451   2.476  0.7979 -0.3219 -0.5331
 6278TIP3    H140249   6.410   5.421   2.449  0.8542 -1.1764  0.2048
 6278TIP3    H240250   6.489   5.546   2.481 -0.4226 -0.4609  0.5991
 6279TIP3   OH240251   2.633   1.027  11.965  0.0306 -0.1430  0.3969
 6279TIP3    H140252   2.538   1.020  11.976  0.1107  0.1597  1.3598
 6279TIP3    H240253   2.654   1.114  11.998  0.6678 -0.2869  0.3737
 6280TIP3   OH240254   4.163   1.412  11.256 -0.3889  0.0625 -0.0895
 6280TIP3    H140255   4.225   1.339  11.247 -1.7940 -1.1735  0.0917
 6280TIP3    H240256   4.165   1.434  11.349 -1.4529 -1.0888  0.2131
 6281TIP3   OH240257   2.181   0.462  16.120 -0.0353  0.0317 -0.0292
 6281TIP3    H140258   2.112   0.413  16.165 -0.9652  0.7796 -0.6059
 6281TIP3    H240259   2.134   0.513  16.053  0.9724  1.2256  0.1537
 6282TIP3   OH240260   4.712   2.752   1.291  0.0959 -0.5339 -1.0676
 6282TIP3    H140261   4.641   2.780   1.234  0.1119  0.7250 -0.4857
 6282TIP3    H240262   4.791   2.786   1.250  0.4910 -2.7473 -2.2263
 6283TIP3   OH240263   3.718   1.103  16.667 -0.1649  0.3512  0.3138
 6283TIP3    H140264   3.759   1.094  16.581  0.3217  1.9537  0.3538
 6283TIP3    H240265   3.789   1.126  16.726 -0.8327  1.4995  0.7015
 6284TIP3   OH240266   6.305   3.454  15.403 -0.0179 -0.2070 -0.2888
 6284TIP3    H140267   6.327   3.535  15.449 -0.4277 -0.2644  0.0087
 6284TIP3    H240268   6.318   3.385  15.468 -1.1949 -0.2292 -0.0743
 6285TIP3   OH240269   3.210   1.974  16.151  0.1947 -0.3732 -0.2762
 6285TIP3    H140270   3.191   1.905  16.214 -1.6375  1.0270  0.7508
 6285TIP3    H240271   3.223   2.052  16.204 -1.1846  0.8009 -1.6157
 6286TIP3   OH240272   2.205   1.259  12.308  0.3287  0.0754 -0.4259
 6286TIP3    H140273   2.261   1.310  12.250 -0.7256  2.4408  0.5503
 6286TIP3    H240274   2.239   1.275  12.396 -1.1363  0.5905  0.0641
 6287TIP3   OH240275   0.692   2.679   2.208 -0.2344  0.7907 -0.5017
 6287TIP3    H140276   0.783   2.661   2.185  0.5927  1.4949  2.0066
 6287TIP3    H240277   0.697   2.747   2.275 -2.4444 -0.7134  1.3185
 6288TIP3   OH240278   4.121   2.628   3.694  0.3397 -0.1363 -0.3114
 6288TIP3    H140279   4.087   2.627   3.604 -0.8124  0.6741  0.1085
 6288TIP3    H240280   4.147   2.718   3.709 -1.3848  0.2055  0.8565
 6289TIP3   OH240281   1.845   0.573  14.612  0.0589 -0.0989  0.3680
 6289TIP3    H140282   1.840   0.627  14.691  0.9047  0.3897  0.0988
 6289TIP3    H240283   1.809   0.629  14.543  1.2766  0.2772  0.0189
 6290TIP3   OH240284   1.268   6.449  16.974 -0.4261 -0.7707  0.9350
 6290TIP3    H140285   1.295   6.499  16.897  0.0019 -1.5522  0.5730
 6290TIP3    H240286   1.229   6.514  17.032 -1.9836 -0.3757 -0.5066
 6291TIP3   OH240287   6.410   5.054  15.115 -0.0684  0.2097 -0.1233
 6291TIP3    H140288   6.412   4.960  15.129  0.5846  0.2017 -0.2642
 6291TIP3    H240289   6.499   5.077  15.091 -0.3549  0.7728 -0.6825
 6292TIP3   OH240290   3.053   6.636   4.953  0.3300 -0.2098 -0.2913
 6292TIP3    H140291   3.147   6.632   4.938  0.0209 -2.2107 -2.0693
 6292TIP3    H240292   3.025   6.718   4.913  1.1984 -0.0282 -0.5345
 6293TIP3   OH240293   3.333   0.032  12.527  0.2809 -0.3236  0.4230
 6293TIP3    H140294   3.289   0.116  12.539  0.3499 -0.0994 -0.7803
 6293TIP3    H240295   3.277  -0.031  12.572 -0.6220  0.1437 -0.0148
 6294TIP3   OH240296   5.572   5.252   3.067  0.8939  0.1918  0.2825
 6294TIP3    H140297   5.584   5.271   3.160  1.8726  0.8234  0.0380
 6294TIP3    H240298   5.658   5.268   3.028  0.2680  0.7833 -0.8772
 6295TIP3   OH240299   1.480   4.086   1.082 -0.0494  0.4487  0.2286
 6295TIP3    H140300   1.505   4.078   0.990 -0.9348  1.1397 -0.0900
 6295TIP3    H240301   1.447   4.176   1.090  1.0485  0.7504  1.4803
 6296TIP3   OH240302   6.056   3.567  11.606 -0.1414  0.4369 -0.0908
 6296TIP3    H140303   5.975   3.523  11.632  0.6389  0.3190  2.2553
 6296TIP3    H240304   6.125   3.522  11.655  1.1100  1.8300 -0.5352
 6297TIP3   OH240305   4.077   6.286  14.057 -0.1674 -0.2026  0.9019
 6297TIP3    H140306   4.162   6.322  14.081 -0.3551 -0.2561  1.6563
 6297TIP3    H240307   4.020   6.363  14.050 -0.3173 -0.2548  1.4866
 6298TIP3   OH240308   3.085   3.312   3.665  0.2439  0.3411 -0.7362
 6298TIP3    H140309   2.997   3.349   3.670  0.5502  0.9038  0.5270
 6298TIP3    H240310   3.140   3.383   3.632  0.4320  0.3204 -0.4637
 6299TIP3   OH240311   5.804   3.895  14.876 -0.2176  0.9060  0.5203
 6299TIP3    H140312   5.780   3.867  14.788 -4.4304 -0.8266  2.1210
 6299TIP3    H240313   5.876   3.837  14.901 -0.8593 -0.4408 -0.7377
 6300TIP3   OH240314   4.897   6.162   0.690  0.5300  0.1205 -0.4765
 6300TIP3    H140315   4.805   6.186   0.687  0.2574 -0.7599  0.6922
 6300TIP3    H240316   4.943   6.245   0.702 -0.1157  0.5418 -0.8886
 6301TIP3   OH240317   5.841   0.614  14.618 -0.1341  0.0942 -0.2302
 6301TIP3    H140318   5.934   0.591  14.612  0.1610  1.2640 -0.4162
 6301TIP3    H240319   5.816   0.636  14.528 -0.5337 -0.0314 -0.1503
 6302TIP3   OH240320   0.331   1.645  14.672 -0.5993  0.1046 -0.0502
 6302TIP3    H140321   0.235   1.640  14.664 -0.4557 -1.6013 -0.9002
 6302TIP3    H240322   0.363   1.641  14.582  0.3270 -1.1434  0.3179
 6303TIP3   OH240323   3.057   2.580   0.241  0.3413  0.2632 -0.1700
 6303TIP3    H140324   3.145   2.547   0.259 -0.0529  0.6980  2.7329
 6303TIP3    H240325   3.023   2.522   0.173  2.6633 -0.2146 -0.9890
 6304TIP3   OH240326   0.840   1.715  12.867 -0.0245  0.6764  0.3972
 6304TIP3    H140327   0.850   1.706  12.772 -1.2224 -1.2087  0.4265
 6304TIP3    H240328   0.901   1.652  12.904  0.0827  1.0617  0.8808
 6305TIP3   OH240329   1.384   2.620  14.105  0.4594 -0.7219  0.2567
 6305TIP3    H140330   1.457   2.653  14.158  1.1498 -1.7619 -0.0195
 6305TIP3    H240331   1.406   2.645  14.015 -0.1190 -0.0027  0.3112
 6306TIP3   OH240332   0.454   2.136  16.980  0.0539 -0.0399 -0.4034
 6306TIP3    H140333   0.387   2.160  17.043  0.7487  1.0098 -0.0403
 6306TIP3    H240334   0.486   2.050  17.009 -1.8609 -1.0490 -1.2108
 6307TIP3   OH240335   2.768   4.035   1.483  0.5517 -0.0331  0.6891
 6307TIP3    H140336   2.842   3.983   1.513  0.6876 -0.9751 -1.1886
 6307TIP3    H240337   2.799   4.079   1.404 -0.7585 -0.0984  0.1195
 6308TIP3   OH240338   3.535   5.143  12.830 -0.9340  0.6293 -0.4405
 6308TIP3    H140339   3.544   5.125  12.736 -0.1098  0.8850 -0.4157
 6308TIP3    H240340   3.558   5.235  12.840 -1.4073  0.7033 -0.0427
 6309TIP3   OH240341   5.309   3.438   1.418 -0.0831 -0.0204  0.0084
 6309TIP3    H140342   5.221   3.450   1.453 -0.4510 -0.1395 -0.8600
 6309TIP3    H240343   5.316   3.343   1.404  0.6711 -0.1697  1.3263
 6310TIP3   OH240344   6.621   0.176  14.353 -0.2199 -0.3005  0.0097
 6310TIP3    H140345   6.668   0.098  14.323 -1.2658 -0.5695 -0.9296
 6310TIP3    H240346   6.530   0.159  14.332 -0.4385  1.2578 -0.3449
 6311TIP3   OH240347   0.864   3.414   3.784  0.0344 -0.3014  0.1454
 6311TIP3    H140348   0.859   3.488   3.845  0.3912  0.4472 -0.7394
 6311TIP3    H240349   0.866   3.453   3.697 -0.8503 -1.3854 -0.3844
 6312TIP3   OH240350   6.780   4.290  15.401  0.3925 -0.6629  0.5833
 6312TIP3    H140351   6.876   4.289  15.395  0.4269 -1.5828  1.1569
 6312TIP3    H240352   6.753   4.358  15.340  1.3124 -1.5939 -0.9015
 6313TIP3   OH240353   1.731   1.826  13.886 -0.1608 -0.4323  0.0927
 6313TIP3    H140354   1.649   1.777  13.893 -0.6152  0.5427  1.9154
 6313TIP3    H240355   1.709   1.914  13.918  2.0681 -0.7568  2.7074
 6314TIP3   OH240356   2.291   1.824   3.792  0.0133 -0.1510 -0.2464
 6314TIP3    H140357   2.336   1.740   3.778  0.4947 -0.3739  2.2877
 6314TIP3    H240358   2.312   1.876   3.715  1.7536 -1.5036 -0.7261
 6315TIP3   OH240359   2.172   2.604  11.977 -0.3388 -0.5142  0.1732
 6315TIP3    H140360   2.250   2.600  12.032 -0.7441 -0.6373  0.7449
 6315TIP3    H240361   2.189   2.543  11.906 -1.2287 -2.9962  2.0228
 6316TIP3   OH240362   2.572   2.667   2.128  0.0523  0.1365 -0.4102
 6316TIP3    H140363   2.494   2.628   2.088  1.0073 -2.1011 -0.1852
 6316TIP3    H240364   2.630   2.685   2.054 -0.7889  2.1233 -0.6103
 6317TIP3   OH240365   5.092   0.350  11.204  0.0312 -0.3573  0.4432
 6317TIP3    H140366   5.000   0.370  11.192  0.0584 -0.0282  0.7884
 6317TIP3    H240367   5.120   0.406  11.276  0.7326  0.2328 -0.2841
 6318TIP3   OH240368   0.349   2.196  15.847  0.6945  0.0024 -0.4063
 6318TIP3    H140369   0.426   2.199  15.903  2.1971 -1.0944 -2.3200
 6318TIP3    H240370   0.317   2.286  15.844  1.0856  0.2196  1.4975
 6319TIP3   OH240371   5.782   5.110  13.591 -0.7672  0.0417 -1.1113
 6319TIP3    H140372   5.853   5.098  13.527  1.0282  0.3921  0.7461
 6319TIP3    H240373   5.741   5.024  13.597  0.3702 -0.5291 -1.2422
 6320TIP3   OH240374   5.137   6.218  13.876  0.1963  0.5291  0.2523
 6320TIP3    H140375   5.218   6.166  13.881 -1.8160 -2.7688  0.1471
 6320TIP3    H240376   5.105   6.222  13.966  0.7003  2.2607  0.3709
 6321TIP3   OH240377   2.967   6.371  11.721  0.7527 -0.2707 -0.2022
 6321TIP3    H140378   2.895   6.364  11.783  0.2114  0.2226 -0.7714
 6321TIP3    H240379   2.964   6.290  11.670  1.5701 -0.9506  0.7973
 6322TIP3   OH240380   4.838   1.997  14.898  0.3530 -0.0449  0.2094
 6322TIP3    H140381   4.775   2.056  14.856  0.1578  0.1942  0.8262
 6322TIP3    H240382   4.823   1.912  14.856 -1.5042 -0.3647  1.4386
 6323TIP3   OH240383   0.826   2.783   2.919  0.3366 -0.4529 -0.0070
 6323TIP3    H140384   0.802   2.711   2.977  1.1365  0.2234  1.1820
 6323TIP3    H240385   0.743   2.820   2.890 -0.0617 -0.6251  0.9102
 6324TIP3   OH240386   6.023   4.945   4.594  0.6692  0.4337 -0.4272
 6324TIP3    H140387   5.993   5.015   4.535  1.3770  0.1501 -1.1417
 6324TIP3    H240388   5.990   4.970   4.680 -2.4134 -0.3734 -1.3409
 6325TIP3   OH240389   5.982   0.006  10.629 -0.2068  0.3463  0.0455
 6325TIP3    H140390   5.890  -0.017  10.643 -0.1768  0.9102  1.2214
 6325TIP3    H240391   5.986   0.033  10.538 -0.7919 -1.6427 -0.6037
 6326TIP3   OH240392   1.626   4.818   6.314  0.5418 -0.3002  0.5146
 6326TIP3    H140393   1.615   4.871   6.393 -0.3002 -0.8539  0.7760
 6326TIP3    H240394   1.644   4.730   6.346 -0.2825 -0.6240  0.0897
 6327TIP3   OH240395   0.726   5.240   4.247 -0.5201  0.5743 -0.4201
 6327TIP3    H140396   0.789   5.257   4.317 -1.1665  1.9973 -0.1603
 6327TIP3    H240397   0.647   5.287   4.274 -2.0421 -2.0045 -0.2520
 6328TIP3   OH240398   0.845   5.035   3.804  0.1820 -0.0732 -0.1317
 6328TIP3    H140399   0.754   5.037   3.775  0.2323 -0.3472 -0.3049
 6328TIP3    H240400   0.892   5.083   3.736  0.3648 -1.0920 -0.7350
 6329TIP3   OH240401   2.119   1.844  12.544 -0.0163 -0.1559  0.7490
 6329TIP3    H140402   2.144   1.903  12.614 -2.2437  2.9321 -0.9361
 6329TIP3    H240403   2.162   1.879  12.466  0.3629 -2.0242  0.0985
 6330TIP3   OH240404   6.777   1.644  13.610  0.4791 -0.5135  0.5826
 6330TIP3    H140405   6.688   1.610  13.619  0.2712 -0.0958  0.1352
 6330TIP3    H240406   6.770   1.736  13.638  0.3987  0.0245 -1.1209
 6331TIP3   OH240407   5.361   6.123  11.232  0.1436 -0.1747  0.2471
 6331TIP3    H140408   5.340   6.211  11.262 -0.7638 -0.3315  0.0871
 6331TIP3    H240409   5.303   6.066  11.283  2.7938 -0.9474  2.5636
 6332TIP3   OH240410   4.898   2.790  16.640  0.0812  0.4876 -0.3991
 6332TIP3    H140411   4.955   2.786  16.563 -2.7058  0.9821 -2.6126
 6332TIP3    H240412   4.924   2.716  16.694  2.0434  0.0702 -1.8640
 6333TIP3   OH240413   2.379   2.834  15.399 -0.1197  0.2854 -0.0607
 6333TIP3    H140414   2.302   2.886  15.376 -0.0013  1.0734  1.2632
 6333TIP3    H240415   2.354   2.789  15.481  0.4395 -0.2976 -0.2086
 6334TIP3   OH240416   3.553   0.844   3.400  0.2083  0.4546 -0.2437
 6334TIP3    H140417   3.584   0.779   3.337  2.2161  2.6465 -1.5566
 6334TIP3    H240418   3.542   0.795   3.482  3.6224 -1.1410 -0.6883
 6335TIP3   OH240419   3.969   0.769   5.810  0.0528  0.4958 -0.0682
 6335TIP3    H140420   3.875   0.783   5.819  0.5758  3.1401  2.0272
 6335TIP3    H240421   3.997   0.831   5.743 -0.1763 -2.8835 -3.4837
 6336TIP3   OH240422   2.525   0.853   0.974 -0.5023 -0.1275 -1.7455
 6336TIP3    H140423   2.509   0.845   0.879  0.7410  0.2591 -1.9878
 6336TIP3    H240424   2.567   0.938   0.984  1.1053 -0.9817 -1.0723
 6337TIP3   OH240425   3.937   3.919  12.251 -0.0240 -0.0400 -0.4208
 6337TIP3    H140426   3.918   3.868  12.330  0.4817  0.2609 -0.1032
 6337TIP3    H240427   3.945   4.009  12.282 -0.3451  0.1513 -0.8954
 6338TIP3   OH240428   5.583   0.268   5.904 -0.3994  0.2267  0.3007
 6338TIP3    H140429   5.536   0.203   5.852 -0.9003  0.7126  0.1383
 6338TIP3    H240430   5.591   0.343   5.846  0.6658  0.1096  0.2997
 6339TIP3   OH240431   6.579   6.729  14.574  0.4163 -0.2508 -0.0034
 6339TIP3    H140432   6.484   6.720  14.566  0.5011 -1.2704 -0.0089
 6339TIP3    H240433   6.606   6.779  14.497 -0.1668  0.4608  0.2498
 6340TIP3   OH240434   3.524   2.512  12.009 -0.4265 -0.1961 -0.1705
 6340TIP3    H140435   3.430   2.495  12.015 -0.4351 -0.0690  0.0322
 6340TIP3    H240436   3.545   2.498  11.916 -0.9098  1.1195 -0.4967
 6341TIP3   OH240437   4.901   3.451   4.640 -0.5142  0.5474 -0.2650
 6341TIP3    H140438   4.989   3.437   4.606 -0.2722 -1.1910  0.9922
 6341TIP3    H240439   4.863   3.362   4.646 -1.1184  0.9358  2.3938
 6342TIP3   OH240440   2.484   4.827   1.967  0.6873  0.1581  0.2081
 6342TIP3    H140441   2.396   4.850   1.937  0.7257  0.2540  0.1687
 6342TIP3    H240442   2.472   4.747   2.019  0.6059  0.0532  0.0299
 6343TIP3   OH240443   0.442   2.214   3.573  0.2499 -0.7373 -0.0958
 6343TIP3    H140444   0.419   2.286   3.631  0.5852 -0.2903 -0.5138
 6343TIP3    H240445   0.474   2.145   3.632  0.4713 -0.3319  0.2561
 6344TIP3   OH240446   6.714   6.644  12.154 -0.1209 -0.1498  0.2239
 6344TIP3    H140447   6.732   6.556  12.121  1.2231  0.3406 -0.4173
 6344TIP3    H240448   6.637   6.634  12.209 -0.5719 -1.5496 -0.6237
 6345TIP3   OH240449   0.015   2.092   0.111 -0.1058 -0.5968  0.2220
 6345TIP3    H140450   0.054   2.027   0.170  1.2107 -0.0119  0.0246
 6345TIP3    H240451   0.001   2.044   0.029  1.0016 -0.6245  0.0308
 6346TIP3   OH240452   1.483   5.587   2.324  0.2499  0.0773  0.2660
 6346TIP3    H140453   1.451   5.533   2.251  0.7287  0.3429 -0.1457
 6346TIP3    H240454   1.546   5.646   2.283  0.9947 -0.2062  1.0110
 6347TIP3   OH240455   3.918   1.490   3.548  0.2532 -0.9192 -0.1871
 6347TIP3    H140456   3.929   1.585   3.547 -0.7945 -0.7897 -2.1652
 6347TIP3    H240457   3.833   1.475   3.589  0.5982 -1.0289  0.4919
 6348TIP3   OH240458   3.022   3.540   3.128  0.6229 -0.4395  0.1653
 6348TIP3    H140459   3.029   3.445   3.135  1.5067 -0.4449 -0.7187
 6348TIP3    H240460   2.939   3.555   3.083 -0.5292 -0.7027  2.1202
 6349TIP3   OH240461   3.561   5.920   4.673 -0.3708 -0.4114 -0.1280
 6349TIP3    H140462   3.612   5.929   4.754 -1.1612 -0.4423  0.3787
 6349TIP3    H240463   3.617   5.959   4.606 -1.1366  2.8395  1.0163
 6350TIP3   OH240464   0.015   2.151  16.318 -0.6160 -0.1201 -0.0172
 6350TIP3    H140465   0.051   2.068  16.288  0.3616  0.4469 -0.4389
 6350TIP3    H240466  -0.013   2.195  16.238  0.6015  0.7496  0.0081
 6351TIP3   OH240467   0.850   3.581   3.528 -0.2323  0.6529 -0.1896
 6351TIP3    H140468   0.759   3.585   3.498  0.0465 -2.5894 -1.7575
 6351TIP3    H240469   0.900   3.564   3.449  1.4208 -0.3078  1.0413
 6352TIP3   OH240470   4.535   1.399  13.399  0.0736 -0.5852  0.6249
 6352TIP3    H140471   4.480   1.399  13.477  0.7548 -1.7355  1.1312
 6352TIP3    H240472   4.513   1.317  13.355 -0.0547 -0.1019 -0.1988
 6353TIP3   OH240473   4.058   6.244  14.928 -0.1393 -0.5995  0.4633
 6353TIP3    H140474   4.050   6.339  14.926 -1.0607 -0.6470  1.4075
 6353TIP3    H240475   4.026   6.219  15.015 -1.3984 -1.8889 -0.3412
 6354TIP3   OH240476   3.791   1.197   5.588 -0.7249  0.2680  0.0456
 6354TIP3    H140477   3.840   1.163   5.663  1.0836 -2.8446 -2.4247
 6354TIP3    H240478   3.701   1.166   5.601 -1.1700  2.4363  2.4613
 6355TIP3   OH240479   3.295   1.332  16.980 -0.1762 -0.1033  0.2842
 6355TIP3    H140480   3.357   1.293  16.919 -2.6685 -0.9181 -1.8336
 6355TIP3    H240481   3.300   1.277  17.058 -0.0557 -1.6984 -0.8232
 6356TIP3   OH240482   0.633   6.643  12.794 -0.2010 -0.0336 -0.1438
 6356TIP3    H140483   0.576   6.617  12.722  0.0886  0.5547 -0.5879
 6356TIP3    H240484   0.598   6.727  12.824 -0.1995 -0.1768  0.2668
 6357TIP3   OH240485   0.931   6.535  14.398 -0.3495 -0.2287 -0.3359
 6357TIP3    H140486   1.027   6.544  14.400 -0.3784  0.4706 -1.6097
 6357TIP3    H240487   0.899   6.610  14.448 -0.2109 -0.8791  0.7305
 6358TIP3   OH240488   4.060   5.789   3.151  0.3210 -0.3307  0.2344
 6358TIP3    H140489   4.095   5.701   3.142 -1.5276 -1.0590  0.0240
 6358TIP3    H240490   3.991   5.795   3.085 -1.6913  0.1926  2.3168
 6359TIP3   OH240491   5.429   4.603   0.576 -0.0903  0.0386 -0.3020
 6359TIP3    H140492   5.452   4.511   0.562 -1.0067 -0.2653  0.1175
 6359TIP3    H240493   5.508   4.642   0.613  0.2079 -0.6483 -0.2006
 6360TIP3   OH240494   0.265   0.220  11.077  0.4644 -0.3884  0.1428
 6360TIP3    H140495   0.336   0.271  11.117  1.2824  0.0775 -1.7999
 6360TIP3    H240496   0.285   0.129  11.099  0.8089 -0.1320  0.9020
 6361TIP3   OH240497   4.499   5.819   0.331 -0.1596  0.4231 -0.1295
 6361TIP3    H140498   4.428   5.872   0.368 -0.0453  1.2212 -1.0624
 6361TIP3    H240499   4.578   5.848   0.378 -0.1387  0.8933 -0.4554
 6362TIP3   OH240500   1.888   6.057   4.317 -0.2691 -0.1558 -0.0122
 6362TIP3    H140501   1.958   6.035   4.380  0.5107 -0.9694 -1.1491
 6362TIP3    H240502   1.923   6.131   4.268 -0.1569 -0.6315 -0.6524
 6363TIP3   OH240503   3.754   2.253  12.103  0.6022 -0.0699 -0.2573
 6363TIP3    H140504   3.841   2.290  12.088  1.3473 -1.2574  1.0285
 6363TIP3    H240505   3.756   2.224  12.194 -1.5312  0.9076  0.1136
 6364TIP3   OH240506   4.828   1.116  13.799 -0.3044 -0.0221 -0.0063
 6364TIP3    H140507   4.752   1.135  13.745  0.5672  0.7473 -0.9706
 6364TIP3    H240508   4.793   1.105  13.888 -1.2054  3.2237  0.0834
 6365TIP3   OH240509   0.514   4.548  16.557  0.0481 -0.5861 -0.0285
 6365TIP3    H140510   0.418   4.553  16.565  0.2033  0.2898  1.6235
 6365TIP3    H240511   0.541   4.639  16.541  0.5907 -0.8415 -0.5591
 6366TIP3   OH240512   5.060   0.812  11.574 -0.4516 -0.2161 -0.0499
 6366TIP3    H140513   5.086   0.804  11.665 -1.9653  1.0608  0.5130
 6366TIP3    H240514   5.096   0.896  11.546 -1.6130  0.2820 -0.0652
 6367TIP3   OH240515   1.742   6.441   3.503  0.4297 -0.4158  0.2881
 6367TIP3    H140516   1.753   6.355   3.462 -0.3302 -1.1045  1.4984
 6367TIP3    H240517   1.673   6.428   3.567 -0.3912  1.3599 -0.2052
 6368TIP3   OH240518   3.028   4.359   4.665  0.0378  0.3883  0.4261
 6368TIP3    H140519   2.941   4.371   4.705 -0.7167  0.9600 -1.3501
 6368TIP3    H240520   3.048   4.266   4.680 -0.2202  0.5928  2.1198
 6369TIP3   OH240521   1.019   6.462   5.144  0.5801 -0.1767  0.5217
 6369TIP3    H140522   1.009   6.382   5.195 -1.7317 -0.7800 -0.8323
 6369TIP3    H240523   0.963   6.526   5.187 -1.0188 -0.5578 -0.9432
 6370TIP3   OH240524   2.147   2.248   2.185  0.2501 -0.1244  0.2392
 6370TIP3    H140525   2.221   2.260   2.244  1.3754  1.6130 -1.4475
 6370TIP3    H240526   2.074   2.294   2.227  0.4612 -0.7813  1.3164
 6371TIP3   OH240527   1.963   6.419  11.097  0.2294 -0.3963 -0.5436
 6371TIP3    H140528   2.004   6.332  11.087  0.4931 -0.1584 -1.5907
 6371TIP3    H240529   2.003   6.472  11.028 -0.6908  0.2773 -0.5624
 6372TIP3   OH240530   1.376   1.926  10.533 -0.3519 -0.0334  0.0698
 6372TIP3    H140531   1.309   1.874  10.578 -0.2276  0.0888  0.4010
 6372TIP3    H240532   1.332   2.008  10.511 -0.5315 -0.2524 -0.4018
 6373TIP3   OH240533   0.118   6.366   5.151 -0.1464  0.4970 -0.0227
 6373TIP3    H140534   0.095   6.383   5.242 -2.2113 -1.2845 -0.1733
 6373TIP3    H240535   0.174   6.288   5.154 -1.1771 -0.2672 -0.3540
 6374TIP3   OH240536   0.184   5.211  10.559 -0.1320 -0.2336 -0.2480
 6374TIP3    H140537   0.152   5.238  10.645  0.5926 -1.6984  0.5041
 6374TIP3    H240538   0.144   5.125  10.545 -1.3593  0.5890 -2.0117
 6375TIP3   OH240539   5.319   5.796  11.024 -0.1694  0.3448  0.0697
 6375TIP3    H140540   5.363   5.744  10.956 -0.9599 -0.3203  0.0653
 6375TIP3    H240541   5.298   5.878  10.980 -0.3228  0.0711 -0.3801
 6376TIP3   OH240542   5.536   1.851  11.176 -0.4250  0.1326  0.6831
 6376TIP3    H140543   5.497   1.770  11.144  0.9852 -0.7108  1.0456
 6376TIP3    H240544   5.610   1.866  11.117 -1.1760  1.6175  0.0937
 6377TIP3   OH240545   0.856   2.432   3.500 -0.8778  0.5303 -0.3970
 6377TIP3    H140546   0.937   2.402   3.542 -0.6336  1.9414  0.1736
 6377TIP3    H240547   0.883   2.453   3.411 -0.7873  0.2575 -0.4360
 6378TIP3   OH240548   1.690   1.976   3.902  0.6296 -0.3428 -0.5201
 6378TIP3    H140549   1.664   2.057   3.945  1.7562  0.0313 -0.5365
 6378TIP3    H240550   1.727   2.004   3.818  0.5470 -0.9032 -0.7434
 6379TIP3   OH240551   6.031   2.280  14.805 -0.1670 -0.4542 -0.4177
 6379TIP3    H140552   5.971   2.239  14.867 -0.5491 -0.5651 -0.8561
 6379TIP3    H240553   6.083   2.340  14.858 -0.2812 -0.7791  0.0624
 6380TIP3   OH240554   5.382   3.206  15.931 -0.5037  0.3208  0.2476
 6380TIP3    H140555   5.368   3.231  15.839 -0.9173 -1.2024 -0.1258
 6380TIP3    H240556   5.354   3.282  15.981 -2.7642  0.2511 -0.8015
 6381TIP3   OH240557   4.959   5.451   1.754  0.0724 -0.2465  0.3112
 6381TIP3    H140558   5.010   5.532   1.755  2.0027 -1.3463 -2.1073
 6381TIP3    H240559   4.872   5.478   1.724  0.6150  0.9814 -0.2187
 6382TIP3   OH240560   3.376   3.386   4.134 -0.0794 -0.0400  0.2555
 6382TIP3    H140561   3.308   3.453   4.146 -0.1031  0.1805 -0.9693
 6382TIP3    H240562   3.458   3.433   4.147 -0.0899  0.2881 -0.7717
 6383TIP3   OH240563   1.912   6.186   0.318  0.0612 -0.4139  0.4523
 6383TIP3    H140564   1.927   6.208   0.226  1.2468  0.5078  0.8627
 6383TIP3    H240565   1.816   6.183   0.326 -0.1033  2.1923 -0.1943
 6384TIP3   OH240566   5.559   0.887  14.751  0.4859 -0.2933 -0.4104
 6384TIP3    H140567   5.580   0.827  14.823 -1.1497  0.0889  0.4101
 6384TIP3    H240568   5.470   0.916  14.770  1.3116  2.5356 -0.6989
 6385TIP3   OH240569   5.493   2.074   5.024  0.7005 -0.0073  0.2528
 6385TIP3    H140570   5.421   2.042   5.080  1.1311 -0.7460  0.3939
 6385TIP3    H240571   5.449   2.125   4.956 -0.3514 -3.6814 -1.9686
 6386TIP3   OH240572   3.886   4.803   6.498  0.5400 -0.4954 -0.0362
 6386TIP3    H140573   3.941   4.747   6.443 -1.0567 -2.2750  0.1105
 6386TIP3    H240574   3.799   4.798   6.457 -0.1121  0.1078  1.2580
 6387TIP3   OH240575   4.987   5.723   1.808 -0.2233  0.4373 -0.9513
 6387TIP3    H140576   4.927   5.759   1.742 -1.1209  0.1498 -0.3080
 6387TIP3    H240577   4.979   5.783   1.882 -1.9204 -1.2075  0.2236
 6388TIP3   OH240578   5.697   5.460  11.697 -0.1136  0.0518  0.2236
 6388TIP3    H140579   5.718   5.548  11.664 -0.4435  0.9483  2.3602
 6388TIP3    H240580   5.772   5.436  11.751 -0.6751 -0.3695  0.8219
 6389TIP3   OH240581   1.595   1.793   3.430 -0.0485  0.6116  0.2498
 6389TIP3    H140582   1.588   1.699   3.411 -0.3547  1.0902 -2.1784
 6389TIP3    H240583   1.669   1.822   3.376 -1.3481  2.1710 -0.7175
 6390TIP3   OH240584   2.272   3.658   1.668 -0.4498  0.1953  0.2390
 6390TIP3    H140585   2.196   3.715   1.675 -1.0084 -0.4147 -0.7433
 6390TIP3    H240586   2.236   3.570   1.666  0.1310 -0.0219 -2.1820
 6391TIP3   OH240587   1.147   4.912   0.525  0.0890 -0.5444  0.3019
 6391TIP3    H140588   1.190   4.914   0.611  1.6616 -1.4270 -0.4390
 6391TIP3    H240589   1.055   4.895   0.545  0.3821 -0.4525  1.8323
 6392TIP3   OH240590   4.682   5.516   4.275 -0.1770 -0.5786  0.1287
 6392TIP3    H140591   4.765   5.498   4.230  0.0235 -1.2523  0.7622
 6392TIP3    H240592   4.686   5.609   4.298  0.6607 -0.7550  0.6926
 6393TIP3   OH240593   5.976   4.447   3.657 -0.4544 -0.2003 -0.5574
 6393TIP3    H140594   5.947   4.452   3.566 -0.2251  0.6016 -0.5865
 6393TIP3    H240595   6.006   4.356   3.667 -0.3641 -0.2591 -1.3127
 6394TIP3   OH240596   0.132   6.145   1.153 -0.5608  0.4861 -0.8371
 6394TIP3    H140597   0.133   6.060   1.109  0.5143  0.4213 -0.6924
 6394TIP3    H240598   0.145   6.125   1.245  0.0218  0.8303 -0.8431
 6395TIP3   OH240599   1.191   2.350   1.360 -0.3278 -0.2954  0.0202
 6395TIP3    H140600   1.126   2.414   1.390 -0.1147 -0.6075  1.1914
 6395TIP3    H240601   1.147   2.265   1.372  0.4620 -0.5350  1.2764
 6396TIP3   OH240602   4.815   0.800  14.136 -0.1612 -0.6052  0.6718
 6396TIP3    H140603   4.908   0.780  14.150  0.1109  0.6669  0.7033
 6396TIP3    H240604   4.778   0.718  14.103  1.0746 -0.9797  0.1861
 6397TIP3   OH240605   3.747   3.797  11.229 -0.0805 -0.7488  0.1613
 6397TIP3    H140606   3.725   3.760  11.143 -0.8715 -0.7954  0.3785
 6397TIP3    H240607   3.723   3.890  11.222  0.8920 -0.4995 -0.0278
 6398TIP3   OH240608   5.256   1.040  16.615 -0.0278 -0.1110 -0.1495
 6398TIP3    H140609   5.250   0.989  16.534  0.3328 -1.4136  0.6193
 6398TIP3    H240610   5.335   1.007  16.658  0.9637  2.0710 -0.2565
 6399TIP3   OH240611   2.683   0.077   2.849 -0.8235  0.3594 -0.3462
 6399TIP3    H140612   2.666   0.153   2.793 -2.6854 -0.5138 -1.0139
 6399TIP3    H240613   2.694   0.005   2.788  0.9553  0.0916  0.2875
 6400TIP3   OH240614   6.107   3.636  15.864  0.1430 -0.1485 -0.4670
 6400TIP3    H140615   6.059   3.558  15.890  1.2356 -0.7443 -0.2186
 6400TIP3    H240616   6.048   3.682  15.804 -1.3685 -0.0455  1.0710
 6401TIP3   OH240617   4.139   4.866   0.040  0.3247  0.2333 -0.3567
 6401TIP3    H140618   4.172   4.786  -0.001 -0.3358 -0.5437  0.6186
 6401TIP3    H240619   4.210   4.895   0.097 -0.2318 -0.8358  0.9039
 6402TIP3   OH240620   1.843   2.034   5.762 -0.4752  0.1546 -0.1942
 6402TIP3    H140621   1.761   2.083   5.768 -1.2550 -1.3927  2.3934
 6402TIP3    H240622   1.911   2.101   5.760 -1.7858  1.4815 -2.9479
 6403TIP3   OH240623   6.447   3.930   1.693  0.3143  0.8360 -0.2554
 6403TIP3    H140624   6.388   3.907   1.621 -0.4758  0.0181  0.6364
 6403TIP3    H240625   6.483   4.015   1.668 -0.2992  0.7766 -1.4012
 6404TIP3   OH240626   4.972   3.674   2.997  0.3800  0.2288  0.3107
 6404TIP3    H140627   5.060   3.696   3.029 -0.2326  2.4898  0.5416
 6404TIP3    H240628   4.935   3.758   2.971 -2.0168 -0.5910  0.9653
 6405TIP3   OH240629   3.870   1.419   2.132  0.9583 -0.2075  0.0689
 6405TIP3    H140630   3.918   1.473   2.069  1.4899  1.4537  1.8462
 6405TIP3    H240631   3.846   1.480   2.202 -0.2301 -1.8639  1.1304
 6406TIP3   OH240632   1.427   6.346   1.981  0.4257  0.0368  0.2022
 6406TIP3    H140633   1.349   6.298   1.952 -0.3565  1.7221 -0.5543
 6406TIP3    H240634   1.453   6.398   1.905  2.1290 -0.2686  0.5437
 6407TIP3   OH240635   0.862   3.229  15.703 -0.5225  0.7252  0.4915
 6407TIP3    H140636   0.933   3.292  15.689 -0.0733  0.3207  0.9284
 6407TIP3    H240637   0.783   3.276  15.676 -0.2112  1.5477  0.9828
 6408TIP3   OH240638   4.844   0.600  13.416  0.3389 -0.0326  0.5734
 6408TIP3    H140639   4.862   0.521  13.364  0.2366 -0.2857  0.9217
 6408TIP3    H240640   4.771   0.575  13.473 -0.7236  0.8021 -0.4000
 6409TIP3   OH240641   2.490   0.254  13.604 -0.4899 -0.1554 -0.0986
 6409TIP3    H140642   2.396   0.263  13.619 -0.4227 -1.3852  1.1825
 6409TIP3    H240643   2.499   0.252  13.509 -2.0080 -2.1207 -0.2431
 6410TIP3   OH240644   6.671   6.255   4.238  0.5605  0.3778 -0.2816
 6410TIP3    H140645   6.625   6.300   4.309 -0.9330 -1.5763  0.0242
 6410TIP3    H240646   6.605   6.243   4.170 -0.1463 -4.5200  1.0773
 6411TIP3   OH240647   2.107   4.621   5.826 -0.2804 -0.7969 -0.3707
 6411TIP3    H140648   2.039   4.616   5.892 -0.9264  1.0089 -0.8557
 6411TIP3    H240649   2.172   4.681   5.863 -0.0120 -0.8132 -0.8100
 6412TIP3   OH240650   1.343   4.548   5.653 -0.1918  0.2695 -0.1448
 6412TIP3    H140651   1.375   4.609   5.719 -0.9578  1.3878 -0.7882
 6412TIP3    H240652   1.397   4.565   5.576  0.3346 -0.6485  0.0137
 6413TIP3   OH240653   6.697   0.227   6.613  0.1736 -0.1320 -0.1456
 6413TIP3    H140654   6.791   0.245   6.620  0.3001 -0.5227 -0.7426
 6413TIP3    H240655   6.657   0.311   6.594  0.4181  0.0169  0.0012
 6414TIP3   OH240656   6.007   0.043   2.603  0.1962 -0.0433  0.0042
 6414TIP3    H140657   6.088   0.092   2.613  0.3456  0.0510 -1.5052
 6414TIP3    H240658   6.035  -0.045   2.576 -0.1995  0.0892 -0.8790
 6415TIP3   OH240659   3.439   4.497  13.971  0.6340 -0.0705 -0.0295
 6415TIP3    H140660   3.373   4.535  13.913  1.5529  0.1834 -0.9172
 6415TIP3    H240661   3.496   4.570  13.994  2.7204 -0.9506 -2.1750
 6416TIP3   OH240662   3.530   3.461   1.939 -0.3247 -0.1555 -0.5603
 6416TIP3    H140663   3.623   3.471   1.958 -0.5830 -0.1244  0.7625
 6416TIP3    H240664   3.525   3.452   1.844  1.0494 -0.4042 -0.6147
 6417TIP3   OH240665   6.673   2.130  12.668 -0.1658  0.1693 -0.3424
 6417TIP3    H140666   6.653   2.048  12.713 -0.4082 -0.3066 -1.3047
 6417TIP3    H240667   6.768   2.127  12.654 -0.3196 -0.4379 -1.3100
 6418TIP3   OH240668   1.090   2.892   4.186  0.4703  0.1727  0.0101
 6418TIP3    H140669   1.025   2.822   4.183  1.5645 -0.8952  0.2584
 6418TIP3    H240670   1.165   2.852   4.230  0.3777  2.1369  2.0396
 6419TIP3   OH240671   5.039   6.548   6.090 -0.8592 -0.3752  0.5031
 6419TIP3    H140672   4.998   6.634   6.097 -0.5637 -0.1819 -0.0909
 6419TIP3    H240673   5.068   6.542   5.999 -0.5211 -0.9403  0.6397
 6420TIP3   OH240674   0.192   0.351   2.323  0.2037  0.0519 -0.2184
 6420TIP3    H140675   0.210   0.363   2.230  0.3338  0.2890 -0.1655
 6420TIP3    H240676   0.104   0.314   2.327 -0.1017  0.7540 -0.4106
 6421TIP3   OH240677   4.861   6.056   4.228 -0.0033  0.4046 -0.0931
 6421TIP3    H140678   4.787   5.996   4.222 -0.3925  0.7869  0.8508
 6421TIP3    H240679   4.938   5.999   4.222 -0.3519 -0.4854  3.2612
 6422TIP3   OH240680   5.961   1.300   2.365 -0.1773 -0.1658 -0.3912
 6422TIP3    H140681   5.943   1.264   2.278 -2.9166  2.7734 -1.1178
 6422TIP3    H240682   6.057   1.303   2.370  0.0226 -1.8921 -2.6408
 6423TIP3   OH240683   2.164   1.947  14.883 -0.0178  0.2599 -0.0613
 6423TIP3    H140684   2.153   1.968  14.976  0.2451  1.1105 -0.2192
 6423TIP3    H240685   2.258   1.932  14.873 -0.1556 -0.6393 -0.0271
 6424TIP3   OH240686   5.852   1.606  13.791 -0.6268 -0.4475  0.1583
 6424TIP3    H140687   5.783   1.588  13.855  0.3286 -0.5749  1.1615
 6424TIP3    H240688   5.931   1.572  13.831  0.2723  0.9915 -0.3641
 6425TIP3   OH240689   3.417   4.413  14.249  0.2066 -0.1577 -0.1600
 6425TIP3    H140690   3.425   4.461  14.167 -1.4204  0.5368  0.0634
 6425TIP3    H240691   3.475   4.458  14.311  1.4474 -0.6955 -0.9138
 6426TIP3   OH240692   1.618   5.917   5.728 -0.2431 -0.6164 -0.3897
 6426TIP3    H140693   1.569   5.854   5.675 -0.8170 -0.2810 -0.2686
 6426TIP3    H240694   1.661   5.974   5.664  0.5272 -1.3157 -0.5003
 6427TIP3   OH240695   5.340   3.015   0.071  0.4052 -0.2418  0.1044
 6427TIP3    H140696   5.426   3.021   0.112  0.8473 -1.1915 -0.6770
 6427TIP3    H240697   5.356   2.974  -0.014 -0.9864 -1.5730  0.4623
 6428TIP3   OH240698   1.397   0.612   3.116  0.0448  0.2423 -0.2687
 6428TIP3    H140699   1.385   0.541   3.179  0.6344  0.7984  0.4834
 6428TIP3    H240700   1.309   0.632   3.085 -0.0907 -1.0625 -0.7714
 6429TIP3   OH240701   5.819   6.618   2.280 -0.1719  0.0070 -0.2861
 6429TIP3    H140702   5.874   6.540   2.276 -0.1013  0.0359  0.0734
 6429TIP3    H240703   5.802   6.630   2.374 -0.1688  0.4339 -0.3393
 6430TIP3   OH240704   6.327   4.059   5.394 -0.0076  0.6927 -0.3061
 6430TIP3    H140705   6.371   4.007   5.327 -1.5292 -0.0901 -0.7288
 6430TIP3    H240706   6.340   4.150   5.366  0.3082  0.4181 -1.0726
 6431TIP3   OH240707   0.743   2.705  15.972 -0.0833 -0.0726 -0.2962
 6431TIP3    H140708   0.765   2.796  15.993 -0.4900 -0.0062 -0.1559
 6431TIP3    H240709   0.826   2.658  15.980 -0.0860  0.0838  0.7566
 6432TIP3   OH240710   6.148   6.779  13.224 -0.3521 -0.2241  0.1395
 6432TIP3    H140711   6.100   6.857  13.251  1.5382  0.3722  1.9391
 6432TIP3    H240712   6.123   6.712  13.287  1.2285  0.1219  1.1556
 6433TIP3   OH240713   0.951   3.483  12.410  0.2697 -0.1966  0.1528
 6433TIP3    H140714   0.858   3.493  12.430  0.3245 -0.3241  0.4754
 6433TIP3    H240715   0.958   3.504  12.317 -0.2689 -1.2843 -0.1461
 6434TIP3   OH240716   0.611   6.424  14.052  0.1836 -0.0333 -0.1721
 6434TIP3    H140717   0.706   6.424  14.061  0.0990 -1.8845  1.1387
 6434TIP3    H240718   0.583   6.343  14.095 -1.9362  0.1849 -1.0599
 6435TIP3   OH240719   5.933   1.325  13.938 -0.4762 -0.1801 -0.4601
 6435TIP3    H140720   5.971   1.241  13.963  0.6186 -0.5830 -3.3279
 6435TIP3    H240721   5.978   1.389  13.994  0.9133 -1.1894 -0.4012
 6436TIP3   OH240722   0.146   5.131  14.682 -0.0616 -0.0188 -0.2369
 6436TIP3    H140723   0.179   5.041  14.693 -0.3612  0.3530  4.6827
 6436TIP3    H240724   0.053   5.121  14.665  0.0278 -0.6246 -0.3779
 6437TIP3   OH240725   2.220   2.835   3.644 -0.0560  0.2507 -0.3352
 6437TIP3    H140726   2.203   2.747   3.611  1.8885 -0.1421 -0.3478
 6437TIP3    H240727   2.272   2.877   3.574  1.0235  0.6068  0.6673
 6438TIP3   OH240728   6.044   1.795   5.917  0.0617  0.1934 -0.1067
 6438TIP3    H140729   6.111   1.778   5.983 -0.0688 -1.8109 -0.4580
 6438TIP3    H240730   5.961   1.776   5.962 -0.1853  1.2568 -0.1047
 6439TIP3   OH240731   2.785   1.909  11.615  0.5071 -0.5087 -0.1110
 6439TIP3    H140732   2.790   1.850  11.691  1.4798  1.6519  1.5705
 6439TIP3    H240733   2.695   1.940  11.614  1.0111  1.0693  1.4613
 6440TIP3   OH240734   1.401   2.067  10.807 -0.3286  0.1333 -0.0537
 6440TIP3    H140735   1.340   2.091  10.877 -0.4096 -1.5889  0.4878
 6440TIP3    H240736   1.347   2.023  10.742  0.0392  0.2011 -0.4085
 6441TIP3   OH240737   2.309   1.570   1.437  0.0798 -0.1288 -0.3335
 6441TIP3    H140738   2.344   1.546   1.351  1.1161  2.3842 -0.6592
 6441TIP3    H240739   2.214   1.570   1.424  0.1335 -1.7813 -0.8911
 6442TIP3   OH240740   4.956   6.712   5.407  0.0902 -0.4461 -0.2214
 6442TIP3    H140741   5.023   6.666   5.457  2.2720  1.0630 -1.6257
 6442TIP3    H240742   4.984   6.703   5.316 -1.3440  0.6686 -0.8040
 6443TIP3   OH240743   0.222   4.352   3.126 -0.2389  0.3799  0.1641
 6443TIP3    H140744   0.251   4.441   3.108  2.2400 -0.6293 -0.9542
 6443TIP3    H240745   0.128   4.353   3.105 -0.2653  2.7288  0.2851
 6444TIP3   OH240746   6.211   5.803  17.192 -0.3537  0.2648 -0.6492
 6444TIP3    H140747   6.228   5.877  17.250  0.4746  0.5206 -1.2153
 6444TIP3    H240748   6.298   5.773  17.165 -0.7623  1.0490 -2.9023
 6445TIP3   OH240749   3.832   3.551  13.806  0.3794  0.5421 -0.2941
 6445TIP3    H140750   3.863   3.530  13.718 -0.2642 -1.9339  0.0533
 6445TIP3    H240751   3.752   3.602  13.792  1.3909  1.9190 -1.1426
 6446TIP3   OH240752   4.632   4.185  13.469  0.0268 -0.2355  0.0621
 6446TIP3    H140753   4.693   4.251  13.502 -0.3005 -0.5647  1.3483
 6446TIP3    H240754   4.578   4.232  13.405  0.2158  0.5759  0.4956
 6447TIP3   OH240755   3.049   3.768  15.312  0.2053  0.1732  0.0096
 6447TIP3    H140756   3.019   3.678  15.326  0.2822  0.4526  2.2062
 6447TIP3    H240757   2.970   3.822  15.326  0.6647  0.5831  1.1329
 6448TIP3   OH240758   3.033   1.445  13.305  0.4893  0.1589  0.1055
 6448TIP3    H140759   3.118   1.429  13.347  0.3163  1.2046  0.8648
 6448TIP3    H240760   3.054   1.454  13.212  1.4431  2.0327  0.4838
 6449TIP3   OH240761   1.274   3.699  17.064  0.2305  0.1014 -0.1862
 6449TIP3    H140762   1.304   3.734  17.148 -1.8456  2.0311 -0.2131
 6449TIP3    H240763   1.334   3.737  17.000  1.8303 -1.3917  0.3810
 6450TIP3   OH240764   2.555   0.616   2.975  0.3869 -0.2442  0.1964
 6450TIP3    H140765   2.621   0.596   2.908  0.5522 -0.2022  0.3468
 6450TIP3    H240766   2.489   0.547   2.964 -0.8988  1.2386 -1.7467
 6451TIP3   OH240767   2.627   6.625  12.933  0.2791 -0.8714  0.0243
 6451TIP3    H140768   2.564   6.622  13.005  0.6042  0.0938  0.3519
 6451TIP3    H240769   2.578   6.592  12.857 -0.3452 -0.9945  0.4789
 6452TIP3   OH240770   4.270   3.853   3.801 -0.2725  0.4406 -0.0169
 6452TIP3    H140771   4.226   3.938   3.801 -0.7021  0.2173  1.0329
 6452TIP3    H240772   4.221   3.800   3.864 -0.1791 -0.6806 -0.8733
 6453TIP3   OH240773   1.931   1.627  13.854 -0.5396 -0.4004 -0.3852
 6453TIP3    H140774   1.912   1.721  13.850  0.8392 -0.0316  0.8918
 6453TIP3    H240775   1.865   1.586  13.799 -2.5791  1.1345  0.8478
 6454TIP3   OH240776   6.610   1.982  15.084  0.1063  0.3889 -0.2171
 6454TIP3    H140777   6.567   1.903  15.052  0.8605  0.1150 -0.5675
 6454TIP3    H240778   6.677   2.002  15.018  1.0067  0.3911  0.6820
 6455TIP3   OH240779   0.739   4.646  14.628  0.1466  0.2406  0.4206
 6455TIP3    H140780   0.731   4.738  14.652  3.4525  1.3012 -2.2276
 6455TIP3    H240781   0.825   4.620  14.661  0.3200 -1.1784 -1.1186
 6456TIP3   OH240782   0.720   3.435  16.552 -0.3976  0.4938  0.0158
 6456TIP3    H140783   0.687   3.460  16.466  0.0354 -0.6919 -0.5170
 6456TIP3    H240784   0.781   3.363  16.534 -1.3108 -0.6696  1.4300
 6457TIP3   OH240785   1.380   5.991   4.381 -0.6578  0.2778 -0.7060
 6457TIP3    H140786   1.470   5.961   4.396 -0.6761  1.0233  0.9085
 6457TIP3    H240787   1.385   6.086   4.390 -1.5299  0.3645 -1.1036
 6458TIP3   OH240788   2.462   0.359  11.164 -0.3459 -0.3405  0.0698
 6458TIP3    H140789   2.482   0.312  11.083  0.2207 -1.3396  0.7752
 6458TIP3    H240790   2.415   0.437  11.136  2.3249  0.7832 -1.4630
 6459TIP3   OH240791   6.329   3.664  10.244 -0.1932 -0.7615  0.3297
 6459TIP3    H140792   6.381   3.626  10.314 -0.0561  1.2098  1.3010
 6459TIP3    H240793   6.389   3.720  10.196 -0.3806 -1.7931 -1.1423
 6460TIP3   OH240794   4.110   6.154   6.321 -0.6922  0.0588 -0.2575
 6460TIP3    H140795   4.064   6.107   6.252 -2.2740 -0.7653  1.3087
 6460TIP3    H240796   4.194   6.178   6.283 -1.2421 -1.0450 -2.1998
 6461TIP3   OH240797   1.769   4.432   3.374  0.5634 -0.2093 -0.0775
 6461TIP3    H140798   1.841   4.399   3.428 -0.1061  0.3030  1.1435
 6461TIP3    H240799   1.710   4.358   3.364 -0.2901  0.2461  1.5609
 6462TIP3   OH240800   4.275   2.844   1.569 -0.5419 -0.2723 -0.2961
 6462TIP3    H140801   4.337   2.892   1.514  0.5807 -2.7085 -1.2318
 6462TIP3    H240802   4.290   2.752   1.547 -1.7544 -1.1472  2.3666
 6463TIP3   OH240803   4.504   1.297  16.061  0.6695  0.0688 -0.2659
 6463TIP3    H140804   4.593   1.288  16.094  0.5331 -0.3710 -0.0151
 6463TIP3    H240805   4.500   1.385  16.025  0.1815  1.3399  2.7690
 6464TIP3   OH240806   2.577   0.346   5.180  0.0714 -0.5718 -0.7484
 6464TIP3    H140807   2.529   0.421   5.146 -0.8791 -0.9585 -0.2652
 6464TIP3    H240808   2.601   0.371   5.269  3.1244  0.7007 -1.8667
 6465TIP3   OH240809   1.603   1.013   1.800  0.2250  0.0854 -0.6748
 6465TIP3    H140810   1.569   1.032   1.887  0.4538  0.5940 -0.6901
 6465TIP3    H240811   1.527   1.020   1.742  0.0379 -0.4349 -0.4942
 6466TIP3   OH240812   2.937   5.981  13.093 -0.4092 -0.2145 -0.2484
 6466TIP3    H140813   3.013   6.036  13.076 -0.0931 -0.3394  0.7076
 6466TIP3    H240814   2.870   6.041  13.124 -0.7567 -0.0833 -1.2425
 6467TIP3   OH240815   6.361   4.979  13.535  0.3615  0.0680  0.3230
 6467TIP3    H140816   6.329   4.892  13.559 -1.2228  0.6182  0.2386
 6467TIP3    H240817   6.386   5.020  13.618 -1.7934  0.6633  0.6975
 6468TIP3   OH240818   3.319   3.645  14.109 -0.4343 -0.6178 -0.0159
 6468TIP3    H140819   3.296   3.734  14.083  1.3500  0.5812  2.2678
 6468TIP3    H240820   3.273   3.589  14.047 -0.3944  1.9204 -2.4599
 6469TIP3   OH240821   5.313   2.868   5.975 -1.0725 -0.1127 -0.0206
 6469TIP3    H140822   5.386   2.851   6.033 -1.0209  2.0647  0.6090
 6469TIP3    H240823   5.292   2.961   5.989 -3.6003 -0.5562 -0.5680
 6470TIP3   OH240824   0.071   0.687  15.898  0.0546 -0.1164 -0.4196
 6470TIP3    H140825   0.074   0.593  15.882 -0.5453 -0.5267  1.6422
 6470TIP3    H240826   0.080   0.727  15.812 -0.0209 -2.0669 -1.3584
 6471TIP3   OH240827   4.624   2.356   3.413  0.4104 -0.6462 -0.5119
 6471TIP3    H140828   4.530   2.372   3.419 -0.0588 -3.5706  0.6795
 6471TIP3    H240829   4.657   2.429   3.361 -2.4623  0.5851 -0.7098
 6472TIP3   OH240830   3.177   3.237   1.075  0.0100 -0.4166  0.4320
 6472TIP3    H140831   3.132   3.317   1.050  1.5718  0.2934 -0.1688
 6472TIP3    H240832   3.149   3.221   1.165 -0.0257  1.0080  0.6793
 6473TIP3   OH240833   6.372   6.246   4.371 -0.2474  0.1741  0.4067
 6473TIP3    H140834   6.318   6.248   4.449  0.9604  0.8568  1.2300
 6473TIP3    H240835   6.369   6.335   4.337 -1.6725 -0.3700 -0.9711
 6474TIP3   OH240836   1.714   4.552   4.689  0.4220 -0.8710  0.1860
 6474TIP3    H140837   1.666   4.632   4.667  1.4860  0.2598  1.8517
 6474TIP3    H240838   1.701   4.494   4.614 -1.3485  0.4153 -0.5188
 6475TIP3   OH240839   6.686   3.074   5.848 -0.6558 -0.3751  0.1229
 6475TIP3    H140840   6.666   3.148   5.906  0.4323 -1.2318  1.6483
 6475TIP3    H240841   6.609   3.066   5.792 -2.8034 -0.9806  3.0203
 6476TIP3   OH240842   6.766   0.129  13.184  0.0861 -0.0447 -0.1702
 6476TIP3    H140843   6.807   0.191  13.244 -1.3369 -0.8440  1.7025
 6476TIP3    H240844   6.689   0.175  13.151  0.7828  0.3366 -1.2745
 6477TIP3   OH240845   1.347   1.106  12.567  0.4244 -0.3538 -0.1268
 6477TIP3    H140846   1.345   1.168  12.494 -0.8395  0.1344  0.3169
 6477TIP3    H240847   1.367   1.022  12.525 -0.8646 -0.1834 -1.1308
 6478TIP3   OH240848   3.706   5.432   3.708 -0.0470  0.1240 -0.4277
 6478TIP3    H140849   3.714   5.524   3.681  0.9489  0.1918  0.0887
 6478TIP3    H240850   3.617   5.425   3.744 -0.5523  0.5975 -1.5520
 6479TIP3   OH240851   6.482   4.727  12.921 -0.1962 -0.0865 -0.4925
 6479TIP3    H140852   6.440   4.808  12.949 -2.3826 -1.6605  0.8992
 6479TIP3    H240853   6.519   4.749  12.835 -0.8302  2.3455 -0.2047
 6480TIP3   OH240854   0.869   4.098  16.278  0.1574 -0.0639  0.1773
 6480TIP3    H140855   0.845   4.125  16.367  0.1062  1.3310 -0.2418
 6480TIP3    H240856   0.963   4.079  16.283  0.0280 -0.5771  0.6655
 6481TIP3   OH240857   5.932   6.474  13.669 -0.3930 -0.1375  0.0503
 6481TIP3    H140858   5.840   6.498  13.661 -0.3076 -0.1085 -0.8642
 6481TIP3    H240859   5.931   6.387  13.709 -0.8796 -0.9317 -1.6593
 6482TIP3   OH240860   4.254   0.745   3.396  0.0351  0.2853 -0.2426
 6482TIP3    H140861   4.333   0.752   3.343 -0.5356  0.5246 -1.0775
 6482TIP3    H240862   4.261   0.660   3.439 -1.0246 -1.4086 -3.2485
 6483TIP3   OH240863   2.735   4.396   6.224  0.2456  0.0894  0.1868
 6483TIP3    H140864   2.726   4.456   6.298  0.9945  0.7686 -0.2667
 6483TIP3    H240865   2.648   4.395   6.184  0.9036  3.2128 -1.5609
 6484TIP3   OH240866   1.757   1.486  16.964 -0.2437  0.0288 -0.0908
 6484TIP3    H140867   1.852   1.480  16.967 -0.3688 -1.4344  1.9155
 6484TIP3    H240868   1.733   1.438  16.885  0.6041 -1.1129  0.3296
 6485TIP3   OH240869   6.652   0.597   0.327  0.1117  0.0858 -0.0903
 6485TIP3    H140870   6.622   0.598   0.236 -0.9952  0.4507  0.2653
 6485TIP3    H240871   6.699   0.514   0.335  1.1172  0.5265 -1.2639
 6486TIP3   OH240872   4.047   1.179  12.472 -0.2199  0.0623  0.2398
 6486TIP3    H140873   4.095   1.178  12.555  0.1683  3.2012  0.1320
 6486TIP3    H240874   3.957   1.157  12.496  0.2442 -0.8348  1.2093
 6487TIP3   OH240875   0.600   1.517  11.480 -0.0959 -0.4331  0.1173
 6487TIP3    H140876   0.533   1.502  11.547 -0.6775 -0.1151 -0.3871
 6487TIP3    H240877   0.680   1.484  11.520 -0.6772 -1.4995  0.4430
 6488TIP3   OH240878   6.238   0.163   2.378 -0.4428  0.0890  0.3104
 6488TIP3    H140879   6.247   0.072   2.407  2.7485 -0.3830 -1.8417
 6488TIP3    H240880   6.246   0.159   2.283 -1.4691  2.5074  0.0759
 6489TIP3   OH240881   0.393   3.726  12.864 -0.2278  0.0638 -0.1460
 6489TIP3    H140882   0.404   3.786  12.791  0.0281  0.3012  0.0825
 6489TIP3    H240883   0.422   3.642  12.830  0.1925  0.2372 -0.2250
 6490TIP3   OH240884   1.624   4.410   0.094 -0.0071 -0.0418 -0.5307
 6490TIP3    H140885   1.578   4.488   0.124 -0.3404 -0.3599 -0.2092
 6490TIP3    H240886   1.556   4.343   0.087  0.0380  0.0334 -2.0514
 6491TIP3   OH240887   5.668   6.485  12.364 -0.2020  0.3785  0.0336
 6491TIP3    H140888   5.589   6.501  12.415  0.1552  0.2714  0.6325
 6491TIP3    H240889   5.648   6.408  12.311 -0.5111  0.3806  0.1516
 6492TIP3   OH240890   6.189   3.875   1.804 -0.1469  0.2188 -0.5824
 6492TIP3    H140891   6.283   3.890   1.815 -0.0359 -0.3129 -0.7840
 6492TIP3    H240892   6.150   3.962   1.811  0.3205  0.3957 -0.0947
 6493TIP3   OH240893   3.967   0.468  14.123 -0.4330  0.3267  0.5605
 6493TIP3    H140894   3.929   0.548  14.086  0.6930  1.1097  1.0777
 6493TIP3    H240895   3.931   0.398  14.069  0.0346  1.3209 -1.0906
 6494TIP3   OH240896   6.181   4.195  11.442  0.0079 -0.2916 -0.1377
 6494TIP3    H140897   6.093   4.158  11.437  0.3933 -1.0660 -1.6466
 6494TIP3    H240898   6.233   4.140  11.383  0.9941  1.6035 -1.0630
 6495TIP3   OH240899   4.611   6.389  13.586  0.0864 -0.4788 -0.4943
 6495TIP3    H140900   4.648   6.394  13.674 -0.7269  0.8352 -0.2166
 6495TIP3    H240901   4.587   6.479  13.565  0.5454 -0.7343 -2.1833
 6496TIP3   OH240902   4.686   5.465  17.157  0.5602  0.0390 -0.1066
 6496TIP3    H140903   4.676   5.555  17.125 -1.0228  0.3265  1.1219
 6496TIP3    H240904   4.674   5.410  17.079 -0.7781  0.8232 -0.4714
 6497TIP3   OH240905   4.677   3.255  14.847 -0.3181  0.3202 -0.4163
 6497TIP3    H140906   4.726   3.183  14.886  2.0323  1.9795 -0.1931
 6497TIP3    H240907   4.647   3.307  14.921  2.0632  2.1379 -0.6772
 6498TIP3   OH240908   2.706   3.513   5.823  0.6048 -0.1061 -0.2938
 6498TIP3    H140909   2.747   3.428   5.811  1.7817  0.3616  0.2972
 6498TIP3    H240910   2.761   3.574   5.775  0.9238  0.6080  0.9371
 6499TIP3   OH240911   5.736   2.709  14.651 -0.3554  0.4936 -0.0789
 6499TIP3    H140912   5.742   2.640  14.717 -1.4337  1.4312  1.0406
 6499TIP3    H240913   5.709   2.664  14.571 -0.6718 -0.4399  0.5455
 6500TIP3   OH240914   2.111   0.215   4.866 -0.2306 -0.2606 -0.3405
 6500TIP3    H140915   2.100   0.254   4.953 -0.6034  0.3015 -0.6361
 6500TIP3    H240916   2.061   0.272   4.807 -0.1348 -0.7398 -0.8987
 6501TIP3   OH240917   2.677   6.599   0.221 -0.3764  0.0459  0.2609
 6501TIP3    H140918   2.749   6.620   0.280  0.4448 -2.8325  0.3893
 6501TIP3    H240919   2.714   6.611   0.133  0.6124 -2.3226  0.3153
 6502TIP3   OH240920   4.532   3.880  12.821  0.3118 -0.9515  0.2088
 6502TIP3    H140921   4.549   3.957  12.876 -3.1523 -0.6798  1.0151
 6502TIP3    H240922   4.571   3.903  12.737  1.4100  0.6923  1.1213
 6503TIP3   OH240923   3.759   2.781  15.401  0.3609 -0.5553 -0.5411
 6503TIP3    H140924   3.818   2.723  15.354  1.2176 -0.3265  0.2316
 6503TIP3    H240925   3.813   2.855  15.426 -0.9344  1.0243 -2.2818
 6504TIP3   OH240926   2.871   3.037   0.457  0.1380 -0.1769  0.4267
 6504TIP3    H140927   2.920   3.065   0.380 -0.4867 -3.4267 -1.2993
 6504TIP3    H240928   2.924   2.966   0.495  0.0835  0.9085  2.5857
 6505TIP3   OH240929   5.286   2.474  15.533  0.0781 -0.0195 -0.0444
 6505TIP3    H140930   5.275   2.423  15.452 -0.6458  0.4358 -0.2444
 6505TIP3    H240931   5.289   2.409  15.602  0.1761 -0.3896 -0.3953
 6506TIP3   OH240932   3.864   2.207  15.093 -0.1850 -0.7121  0.3196
 6506TIP3    H140933   3.909   2.158  15.024  0.4960  2.0007 -1.2548
 6506TIP3    H240934   3.925   2.206  15.167  1.2169  0.4048 -0.7855
 6507TIP3   OH240935   1.382   1.163  11.515  0.1631  0.3812  0.8324
 6507TIP3    H140936   1.464   1.152  11.564  1.3421 -0.3455 -1.2489
 6507TIP3    H240937   1.369   1.079  11.471 -0.3202  1.3556 -0.9370
 6508TIP3   OH240938   1.334   5.185   0.576 -0.5532  0.8905  0.4324
 6508TIP3    H140939   1.256   5.130   0.585  0.2215 -0.1554  0.9263
 6508TIP3    H240940   1.355   5.212   0.665  0.0778  0.5470  0.3909
 6509TIP3   OH240941   1.088   6.724  13.823  0.2670  0.6654  0.2632
 6509TIP3    H140942   1.015   6.776  13.789 -0.0251 -0.5802 -1.0998
 6509TIP3    H240943   1.121   6.774  13.897 -0.7109  2.2259 -0.3260
 6510TIP3   OH240944   4.528   1.838  17.027 -0.0388  0.2018  0.4761
 6510TIP3    H140945   4.543   1.746  17.005 -1.6175 -0.6370  2.7643
 6510TIP3    H240946   4.435   1.852  17.010  0.3039  1.5611 -0.4037
 6511TIP3   OH240947   4.678   4.715   3.857  0.2217  0.1726  0.4594
 6511TIP3    H140948   4.647   4.678   3.774  1.1300 -0.1245  0.2467
 6511TIP3    H240949   4.600   4.723   3.911 -0.6356  1.6927 -0.9385
 6512TIP3   OH240950   5.199   1.658   0.494  0.2800  0.6781  0.7096
 6512TIP3    H140951   5.131   1.686   0.556 -0.0936  1.0602  0.1296
 6512TIP3    H240952   5.156   1.592   0.440  0.2647  1.1860  0.1044
 6513TIP3   OH240953   3.780   5.929  13.321 -0.4157 -0.8765  0.0740
 6513TIP3    H140954   3.806   5.974  13.241 -0.5279  0.3037  0.6826
 6513TIP3    H240955   3.694   5.965  13.342  0.1478 -0.2528  1.3955
 6514TIP3   OH240956   0.055   0.628  14.623  0.4439 -0.7012  0.2276
 6514TIP3    H140957   0.095   0.715  14.617  2.1441 -1.4691  0.1272
 6514TIP3    H240958   0.098   0.577  14.554 -1.0488 -1.4505 -0.1885
 6515TIP3   OH240959   3.052   5.361   0.580 -0.1152  0.0319 -0.5381
 6515TIP3    H140960   3.025   5.351   0.489  0.0482 -1.3852 -0.4319
 6515TIP3    H240961   3.123   5.298   0.592 -1.7156 -1.5084  1.2085
 6516TIP3   OH240962   2.968   0.019   2.647 -0.1770  0.1074  0.2537
 6516TIP3    H140963   2.999   0.034   2.558  0.0851 -0.8069  0.1828
 6516TIP3    H240964   2.937   0.105   2.677 -2.0952  0.0527 -1.4297
 6517TIP3   OH240965   0.404   3.236   1.508 -0.3858 -0.3392 -0.2316
 6517TIP3    H140966   0.403   3.157   1.453  0.4237 -0.7395  0.3324
 6517TIP3    H240967   0.404   3.309   1.445 -2.9925 -0.7349 -0.7776
 6518TIP3   OH240968   0.375   1.199   3.690 -0.4861  0.4227  0.1956
 6518TIP3    H140969   0.324   1.118   3.690  0.7345 -0.3598  1.2911
 6518TIP3    H240970   0.435   1.190   3.765 -0.4509  2.3992  0.4368
 6519TIP3   OH240971   5.972   5.395  14.728 -0.3626  0.5217 -0.1184
 6519TIP3    H140972   5.969   5.447  14.648  2.4722 -0.6559 -1.0487
 6519TIP3    H240973   5.995   5.307  14.699  0.0278 -0.0888  1.9245
 6520TIP3   OH240974   5.667   3.714   4.821  0.1940 -0.6698 -0.2298
 6520TIP3    H140975   5.579   3.685   4.846 -0.0692  0.6141  0.3528
 6520TIP3    H240976   5.652   3.781   4.754  0.6706  0.4739  0.7939
 6521TIP3   OH240977   0.422   4.800  15.415 -0.0379  0.0088  0.2982
 6521TIP3    H140978   0.514   4.805  15.389 -0.1535 -0.6827 -0.2613
 6521TIP3    H240979   0.410   4.710  15.447 -0.7326 -0.1879 -0.4829
 6522TIP3   OH240980   3.495   2.053  15.045  0.5060 -0.7833 -0.5799
 6522TIP3    H140981   3.416   2.019  15.088  0.5292 -0.1950 -0.0565
 6522TIP3    H240982   3.546   2.092  15.116  0.4146  0.4503 -1.1765
 6523TIP3   OH240983   6.740   0.687   4.217  0.0215 -0.4333  0.4304
 6523TIP3    H140984   6.674   0.720   4.156  1.0893 -0.4313 -0.7297
 6523TIP3    H240985   6.822   0.690   4.169  0.7760 -1.0811  1.6365
 6524TIP3   OH240986   6.263   2.460   1.625  0.8933 -0.2322 -0.3322
 6524TIP3    H140987   6.225   2.379   1.592  0.7060 -0.5526  0.6573
 6524TIP3    H240988   6.297   2.437   1.712  0.8418  0.7462 -0.0496
 6525TIP3   OH240989   6.639   0.996   2.249 -0.0373 -0.3519  0.6372
 6525TIP3    H140990   6.625   0.902   2.265 -0.4752 -0.4915 -0.4945
 6525TIP3    H240991   6.701   0.999   2.176  0.4983  0.2488  1.1120
 6526TIP3   OH240992   2.676   1.956   3.006 -0.3501  0.2255  0.0259
 6526TIP3    H140993   2.609   1.921   3.065 -1.3358  0.0751 -1.1680
 6526TIP3    H240994   2.715   2.029   3.054 -1.8731  0.7777  0.4348
 6527TIP3   OH240995   0.785   1.493  14.775 -0.3585  0.5574  0.0381
 6527TIP3    H140996   0.816   1.579  14.745 -0.8503  1.1532  1.1944
 6527TIP3    H240997   0.697   1.510  14.808 -0.0656 -0.1899  1.2396
 6528TIP3   OH240998   4.647   6.112  13.476 -0.5285  0.2586  0.0018
 6528TIP3    H140999   4.620   6.048  13.543 -2.2125  0.9077 -0.0276
 6528TIP3    H241000   4.652   6.195  13.523  0.4237  0.3389 -0.2321
 6529TIP3   OH241001   0.050   2.938  10.713  0.2062  0.0055 -0.4105
 6529TIP3    H141002   0.117   3.006  10.707  0.8900 -0.5020  1.1346
 6529TIP3    H241003   0.098   2.856  10.696  0.0140 -0.3637  0.7448
 6530TIP3   OH241004   1.823   0.687   3.561 -0.0204 -0.7739  0.2891
 6530TIP3    H141005   1.813   0.651   3.649  0.5468 -1.4096  0.0980
 6530TIP3    H241006   1.918   0.688   3.546 -0.0590  0.1901  0.0367
 6531TIP3   OH241007   5.500   6.361  16.292  0.0439  0.1193  0.5179
 6531TIP3    H141008   5.576   6.306  16.309  0.5544  0.2180 -1.3617
 6531TIP3    H241009   5.525   6.448  16.322  0.5629  0.0884  0.1676
 6532TIP3   OH241010   1.752   1.953   2.270  0.0231 -0.4615  0.3647
 6532TIP3    H141011   1.736   1.935   2.177  0.5881 -0.7343  0.3175
 6532TIP3    H241012   1.847   1.964   2.276  0.0587 -1.0655  1.0178
 6533TIP3   OH241013   3.175   3.532  13.911  0.3587 -0.4209  0.3838
 6533TIP3    H141014   3.189   3.601  13.846  2.3119 -0.9834  0.1825
 6533TIP3    H241015   3.140   3.458  13.861  0.3680 -0.3308  0.2441
 6534TIP3   OH241016   1.906   0.396  12.373 -0.2713  0.0512  0.1437
 6534TIP3    H141017   1.827   0.438  12.405 -0.5530  0.3516 -0.9076
 6534TIP3    H241018   1.970   0.407  12.443 -1.6968 -1.8705  1.7986
 6535TIP3   OH241019   5.479   6.351  13.796  0.2060 -0.0426  0.0475
 6535TIP3    H141020   5.465   6.258  13.816 -0.4476 -0.2498 -1.3476
 6535TIP3    H241021   5.429   6.398  13.863 -3.0944 -0.7354 -1.8411
 6536TIP3   OH241022   5.947   0.233   0.175 -0.5457  0.2338 -0.2667
 6536TIP3    H141023   5.950   0.195   0.263 -0.6395  0.1043 -0.3187
 6536TIP3    H241024   5.877   0.297   0.179 -2.0314 -1.3213 -0.8556
 6537TIP3   OH241025   2.284   6.358  11.697  0.3704 -0.6630  0.3651
 6537TIP3    H141026   2.225   6.390  11.766 -0.7388 -1.6774 -0.0899
 6537TIP3    H241027   2.263   6.411  11.620 -1.0384 -2.0370 -0.2208
 6538TIP3   OH241028   4.977   3.653  16.701  0.6673  0.0887  0.1856
 6538TIP3    H141029   5.035   3.712  16.749  0.5142 -0.2914  0.8480
 6538TIP3    H241030   4.961   3.697  16.618  1.8071  0.2584  0.0500
 6539TIP3   OH241031   2.053   2.622  11.694 -0.0885  0.1857  0.6422
 6539TIP3    H141032   2.010   2.543  11.727 -0.9642  1.2015  1.9985
 6539TIP3    H241033   2.054   2.681  11.769  1.3217  1.1473 -0.1269
 6540TIP3   OH241034   0.098   2.532  16.586 -0.2892  1.0886 -0.1358
 6540TIP3    H141035   0.125   2.504  16.499 -1.3485  2.3899 -0.8911
 6540TIP3    H241036   0.161   2.491  16.645 -1.0039 -1.8174 -1.3043
 6541TIP3   OH241037   0.770   4.642   1.677 -0.5213 -0.1076 -0.5199
 6541TIP3    H141038   0.744   4.586   1.750  0.5872  0.7168  0.5259
 6541TIP3    H241039   0.790   4.581   1.606  0.3434 -1.0141  0.4932
 6542TIP3   OH241040   1.386   5.266  13.629 -0.1699  0.0564 -0.0869
 6542TIP3    H141041   1.394   5.360  13.648  0.2221 -0.2898  1.5509
 6542TIP3    H241042   1.293   5.247  13.642 -0.0957  0.0511  0.4767
 6543TIP3   OH241043   6.501   5.926   3.063 -0.0594  0.4413  0.1650
 6543TIP3    H141044   6.450   5.998   3.100 -0.7749 -0.4774  1.0034
 6543TIP3    H241045   6.494   5.937   2.968 -2.6738 -0.2773  0.2534
 6544TIP3   OH241046   2.331   0.817   5.620 -0.0758  0.2003  0.1933
 6544TIP3    H141047   2.375   0.812   5.535  0.9895  1.1297  0.6827
 6544TIP3    H241048   2.240   0.791   5.601  0.6418 -1.6994 -0.8368
 6545TIP3   OH241049   0.623   3.555   1.269  0.2130  0.0885 -0.4138
 6545TIP3    H141050   0.536   3.521   1.247  0.1523 -0.9005  1.2852
 6545TIP3    H241051   0.629   3.638   1.221 -1.3941 -0.1606 -1.0826
 6546TIP3   OH241052   2.094   1.232  12.745  0.3015 -0.1704  0.1998
 6546TIP3    H141053   2.032   1.277  12.802  0.6219  1.4490 -0.7144
 6546TIP3    H241054   2.058   1.241  12.657  1.6488  0.5015 -0.3050
 6547TIP3   OH241055   0.604   0.363   1.903  0.4322  0.1376  0.1094
 6547TIP3    H141056   0.690   0.405   1.907 -0.5536  2.4457 -1.8337
 6547TIP3    H241057   0.615   0.292   1.840  0.9964  0.2044  0.1264
 6548TIP3   OH241058   1.644   4.269  16.107  0.3874  0.1966  0.1713
 6548TIP3    H141059   1.587   4.211  16.057  1.6008 -3.0001  2.3210
 6548TIP3    H241060   1.596   4.352  16.111 -2.2139 -1.1491 -1.5242
 6549TIP3   OH241061   4.783   5.257  15.420  0.4109 -0.6544  0.1495
 6549TIP3    H141062   4.756   5.278  15.509  0.7065 -0.9477  0.3102
 6549TIP3    H241063   4.736   5.176  15.399 -0.6414  0.0964 -0.4272
 6550TIP3   OH241064   2.712   1.566  11.731 -0.1002 -0.8880 -0.3145
 6550TIP3    H141065   2.719   1.646  11.783  1.7594 -1.6627  0.6769
 6550TIP3    H241066   2.791   1.565  11.678 -1.3997 -0.7243 -2.3154
 6551TIP3   OH241067   1.898   1.397  13.977 -0.0179  0.0365  0.2537
 6551TIP3    H141068   1.951   1.472  13.948 -0.7031  0.0175 -1.0808
 6551TIP3    H241069   1.811   1.434  13.994  0.0506 -0.1812  1.1250
 6552TIP3   OH241070   4.989   6.049   1.348 -0.5226  0.0504 -0.0622
 6552TIP3    H141071   5.046   6.103   1.402 -0.5408 -1.4403  1.5108
 6552TIP3    H241072   4.908   6.098   1.341  0.3249  1.3643 -0.7896
 6553TIP3   OH241073   5.759   4.466   5.566  0.1048 -0.1283  0.1935
 6553TIP3    H141074   5.839   4.427   5.530  0.6704  2.2358 -1.2216
 6553TIP3    H241075   5.751   4.427   5.653  1.6004 -2.0184 -0.4667
 6554TIP3   OH241076   5.612   5.756   2.822 -0.6980  0.2054 -0.2165
 6554TIP3    H141077   5.599   5.824   2.888  0.5753 -0.8222  1.1263
 6554TIP3    H241078   5.614   5.803   2.739  2.1254  2.0479  0.8314
 6555TIP3   OH241079   5.529   6.552   1.517  0.1066  0.1314  0.0431
 6555TIP3    H141080   5.588   6.516   1.583 -1.0781  2.3859  2.4086
 6555TIP3    H241081   5.503   6.637   1.552 -0.3653  1.4987 -3.4816
 6556TIP3   OH241082   6.585   2.405  11.334  0.8707 -0.2292 -0.1340
 6556TIP3    H141083   6.577   2.487  11.286 -1.2667 -0.5679 -0.3926
 6556TIP3    H241084   6.591   2.337  11.267  1.5120 -0.3839  0.0759
 6557TIP3   OH241085   3.876   0.666  13.037  0.2088 -0.2679  0.1645
 6557TIP3    H141086   3.784   0.670  13.010  0.3335 -1.8098 -0.5027
 6557TIP3    H241087   3.920   0.728  12.977  0.0263 -1.5411 -1.3210
 6558TIP3   OH241088   3.342   6.486   3.285  0.7937  0.2173 -0.1463
 6558TIP3    H141089   3.262   6.463   3.238  0.0799 -0.3342  1.3103
 6558TIP3    H241090   3.391   6.541   3.224 -2.2817  3.4924  0.2004
 6559TIP3   OH241091   5.855   4.422   0.284  0.4137  0.1498  1.0429
 6559TIP3    H141092   5.782   4.473   0.250  0.7874 -0.2844 -0.4219
 6559TIP3    H241093   5.926   4.485   0.296  0.1008  0.4044  1.5898
 6560TIP3   OH241094   4.006   5.865   0.136  0.1949 -0.6301  0.1160
 6560TIP3    H141095   4.023   5.923   0.062  2.0308 -1.6501 -0.3119
 6560TIP3    H241096   3.959   5.790   0.098 -0.0200 -0.5475  0.2200
 6561TIP3   OH241097   5.845   5.709  15.976 -0.4384  0.9442  0.0279
 6561TIP3    H141098   5.769   5.746  16.022 -0.6809  0.9224 -0.3549
 6561TIP3    H241099   5.892   5.785  15.942  0.8089  1.0731  1.9717
 6562TIP3   OH241100   3.441   2.233  12.663 -0.2275 -0.3507 -0.9273
 6562TIP3    H141101   3.491   2.280  12.597  3.2689 -3.6302 -0.8120
 6562TIP3    H241102   3.376   2.183  12.613 -0.3626  0.3622 -1.4782
 6563TIP3   OH241103   1.881   5.103   0.147 -0.3507  0.1864 -0.0184
 6563TIP3    H141104   1.963   5.136   0.184 -0.5428 -0.1371  0.7053
 6563TIP3    H241105   1.869   5.017   0.189 -0.2177 -0.4842 -1.3506
 6564TIP3   OH241106   4.430   0.865  13.021  0.3715  0.0718 -0.9592
 6564TIP3    H141107   4.398   0.802  12.956 -0.2881 -0.0434 -0.5233
 6564TIP3    H241108   4.450   0.811  13.098 -0.3309  0.4229 -0.5385
 6565TIP3   OH241109   4.813   3.693   4.507 -0.7584  0.0005 -0.2662
 6565TIP3    H141110   4.834   3.606   4.540 -0.3867  0.4127  0.6098
 6565TIP3    H241111   4.857   3.697   4.422  1.9875  0.4860  1.1093
 6566TIP3   OH241112   3.799   6.478   3.326 -0.2122 -0.3169  0.2373
 6566TIP3    H141113   3.892   6.501   3.335 -0.5245  1.1968 -0.3115
 6566TIP3    H241114   3.778   6.496   3.235 -0.6088 -2.3940 -0.1142
 6567TIP3   OH241115   0.171   5.018  13.787 -0.2928 -0.4295  0.1271
 6567TIP3    H141116   0.239   4.952  13.794 -1.5237 -1.7228  0.1632
 6567TIP3    H241117   0.125   4.997  13.705  0.7969  1.8388 -1.1003
 6568TIP3   OH241118   3.037   5.182   4.650 -0.0793  0.4340  0.8725
 6568TIP3    H141119   3.044   5.257   4.710  1.7442 -0.6368  2.0460
 6568TIP3    H241120   3.111   5.126   4.673  0.6471 -0.0301 -2.4030
 6569TIP3   OH241121   3.393   2.452  16.311  0.5960 -0.5590  0.8389
 6569TIP3    H141122   3.463   2.483  16.254 -0.1013 -0.1096  0.2189
 6569TIP3    H241123   3.382   2.522  16.375 -1.5148  0.8900 -1.0317
 6570TIP3   OH241124   5.147   4.798  17.147  0.5303 -0.0103 -0.0248
 6570TIP3    H141125   5.169   4.875  17.201 -0.1003  0.2425 -0.1276
 6570TIP3    H241126   5.056   4.812  17.120  0.7998 -0.1996 -1.0556
 6571TIP3   OH241127   6.082   4.537  12.450 -0.4499  0.1842 -0.4143
 6571TIP3    H141128   6.044   4.518  12.364  0.5606  0.0666 -0.8405
 6571TIP3    H241129   6.128   4.457  12.474 -0.3777  0.3643  0.0406
 6572TIP3   OH241130   1.824   2.279   2.167  0.2588 -0.4008 -0.3692
 6572TIP3    H141131   1.748   2.232   2.201 -0.0538  0.2053 -0.2053
 6572TIP3    H241132   1.819   2.365   2.209  0.9367 -0.2999 -0.4970
 6573TIP3   OH241133   4.353   2.671  14.161  0.1932 -0.0565 -0.0735
 6573TIP3    H141134   4.263   2.669  14.192  0.1638 -0.1287 -0.1614
 6573TIP3    H241135   4.406   2.653  14.238  0.0374 -2.0092 -0.3911
 6574TIP3   OH241136   4.106   6.190   3.850  0.2385  0.5276  0.4419
 6574TIP3    H141137   4.086   6.112   3.798  0.2258  0.1909  0.9502
 6574TIP3    H241138   4.064   6.262   3.802  2.0723  0.5564 -1.1955
 6575TIP3   OH241139   5.861   0.540   2.415  0.3097 -0.0374 -0.1902
 6575TIP3    H141140   5.783   0.593   2.431  0.5856 -0.2840  2.1282
 6575TIP3    H241141   5.854   0.467   2.476  2.0866 -0.3572 -0.3254
 6576TIP3   OH241142   3.965   5.278   3.076  0.4348 -0.0898  0.1212
 6576TIP3    H141143   4.040   5.297   3.020 -0.2777  1.6055 -0.2958
 6576TIP3    H241144   3.889   5.290   3.019 -0.2273  0.0779  1.0219
 6577TIP3   OH241145   5.053   0.031  15.257  0.3334  0.0294 -0.2935
 6577TIP3    H141146   5.109   0.079  15.196  1.0705 -0.9450 -0.3883
 6577TIP3    H241147   5.094  -0.055  15.265 -0.4887 -0.2885  0.5643
 6578TIP3   OH241148   6.703   1.113  16.996  0.0637  0.2387 -0.5918
 6578TIP3    H141149   6.648   1.068  16.932 -1.6337 -0.5156  1.3586
 6578TIP3    H241150   6.652   1.189  17.022  0.8455  0.6663 -0.2991
 6579TIP3   OH241151   5.211   4.459   1.327 -0.1586 -0.5192 -0.5139
 6579TIP3    H141152   5.233   4.454   1.234  0.4973 -0.8469 -0.3428
 6579TIP3    H241153   5.286   4.502   1.367 -1.4315  1.7692 -0.4759
 6580TIP3   OH241154   6.674   4.268   4.850  0.1002  0.5015 -0.3515
 6580TIP3    H141155   6.645   4.184   4.817 -0.3874  0.9857 -1.1706
 6580TIP3    H241156   6.769   4.266   4.845  0.0391  0.5166 -1.6636
 6581TIP3   OH241157   1.223   3.974  15.188  0.3329  0.6326  0.2766
 6581TIP3    H141158   1.249   3.893  15.231  1.6528  1.0609  0.3108
 6581TIP3    H241159   1.295   3.993  15.127  0.5266  2.3270  1.0149
 6582TIP3   OH241160   2.318   6.709   1.901 -0.4378  0.2436  0.0265
 6582TIP3    H141161   2.322   6.794   1.856 -0.6082  0.0248 -0.4053
 6582TIP3    H241162   2.325   6.731   1.994 -1.2624  0.7974 -0.0369
 6583TIP3   OH241163   3.446   4.880   2.569 -0.5220 -0.1059 -0.1423
 6583TIP3    H141164   3.541   4.882   2.571 -0.5338  0.9299 -0.2959
 6583TIP3    H241165   3.419   4.970   2.591 -1.4698 -0.5614  0.6088
 6584TIP3   OH241166   6.140   5.419  15.652  0.3281  0.1356 -0.0941
 6584TIP3    H141167   6.174   5.348  15.707  1.4698  0.4852 -0.3413
 6584TIP3    H241168   6.068   5.456  15.703 -1.4169 -2.2898 -0.6877
 6585TIP3   OH241169   3.029   4.977  12.825  0.2656  0.2695  0.3103
 6585TIP3    H141170   3.089   4.976  12.899  2.1731  4.1826 -1.0635
 6585TIP3    H241171   3.042   4.891  12.783  4.4396  0.7239  0.4572
 6586TIP3   OH241172   2.070   2.342   3.333 -0.0290  0.5506  0.1080
 6586TIP3    H141173   1.980   2.369   3.352 -0.2463 -0.1805  0.1196
 6586TIP3    H241174   2.122   2.390   3.397 -0.7073 -1.3732  2.1619
 6587TIP3   OH241175   4.194   4.344  11.705 -0.2848 -0.3390 -0.5055
 6587TIP3    H141176   4.141   4.266  11.696 -1.6918  0.8009 -2.3141
 6587TIP3    H241177   4.252   4.344  11.629  1.7539 -1.0990  0.9808
 6588TIP3   OH241178   6.689   3.143   4.316 -0.5051  0.0798  0.0187
 6588TIP3    H141179   6.691   3.170   4.224 -0.1877 -0.7172 -0.2187
 6588TIP3    H241180   6.759   3.192   4.358  1.4570 -1.8689 -0.8448
 6589TIP3   OH241181   5.098   1.973  11.724  0.8363  0.5414 -0.2237
 6589TIP3    H141182   5.146   2.033  11.781  1.0698 -0.1100  0.2771
 6589TIP3    H241183   5.077   2.025  11.646  0.4403  1.4614  0.4872
 6590TIP3   OH241184   5.114   5.605   2.525  0.4177 -0.3156  0.0193
 6590TIP3    H141185   5.120   5.545   2.600 -0.5007 -1.1000 -0.5159
 6590TIP3    H241186   5.032   5.652   2.540 -0.3387 -1.2676 -1.0545
 6591TIP3   OH241187   4.239   3.188  14.802  0.2621  0.0601 -0.0418
 6591TIP3    H141188   4.305   3.215  14.738  0.5045 -0.8101 -0.1501
 6591TIP3    H241189   4.178   3.263  14.805  0.4548  0.2664 -1.0060
 6592TIP3   OH241190   3.288   6.342  17.186  0.0232  0.0913 -0.3780
 6592TIP3    H141191   3.244   6.400  17.249  1.3995 -0.1623  0.8443
 6592TIP3    H241192   3.381   6.362  17.196  0.4209 -1.4473 -0.8464
 6593TIP3   OH241193   4.390   3.602   5.995  0.7442  0.3340 -0.5728
 6593TIP3    H141194   4.331   3.598   5.921  0.7436  1.2374 -0.6327
 6593TIP3    H241195   4.447   3.525   5.986 -0.6661 -0.7496 -0.2928
 6594TIP3   OH241196   3.030   5.492  16.218  0.3533  0.2401  0.9316
 6594TIP3    H141197   3.099   5.548  16.252  0.2967  0.6497  0.3794
 6594TIP3    H241198   3.001   5.535  16.137 -1.4526  0.7840  1.8405
 6595TIP3   OH241199   0.193   4.454  14.282  0.7470 -0.5530  0.5239
 6595TIP3    H141200   0.115   4.474  14.229  1.3747 -1.6259 -0.8162
 6595TIP3    H241201   0.209   4.535  14.331 -1.8081 -0.6260  1.6191
 6596TIP3   OH241202   1.310   0.626  16.028 -0.2345 -0.0712  0.0278
 6596TIP3    H141203   1.288   0.535  16.012 -0.4411 -0.4887  2.4368
 6596TIP3    H241204   1.390   0.622  16.081  1.1229  1.2229 -1.8381
 6597TIP3   OH241205   2.622   1.835   4.781  0.0394 -0.1709  0.5999
 6597TIP3    H141206   2.642   1.925   4.806  0.5806 -0.3454  0.7901
 6597TIP3    H241207   2.696   1.784   4.812  0.7593 -0.3929 -1.4302
 6598TIP3   OH241208   4.257   3.911   3.219 -0.6390  0.2206  0.0514
 6598TIP3    H141209   4.250   3.899   3.125  1.0149  0.9986 -0.1936
 6598TIP3    H241210   4.192   3.852   3.256 -1.0605 -0.3438 -1.5639
 6599TIP3   OH241211   3.853   2.294   2.907 -0.3782  0.5439  0.1372
 6599TIP3    H141212   3.869   2.200   2.898  0.2021  0.5357  1.1836
 6599TIP3    H241213   3.828   2.306   2.999  3.6738  1.9737  1.1765
 6600TIP3   OH241214   5.660   1.253  11.440  0.1632 -0.1287 -0.1720
 6600TIP3    H141215   5.683   1.300  11.520 -2.0747  0.4456  0.1575
 6600TIP3    H241216   5.627   1.320  11.381  0.4633 -0.7573 -1.0651
 6601TIP3   OH241217   1.156   1.780   0.901  0.0086  0.5811 -0.2870
 6601TIP3    H141218   1.183   1.746   0.815  1.0209  0.9440 -0.1102
 6601TIP3    H241219   1.106   1.859   0.881  2.0176  1.8477 -0.4652
 6602TIP3   OH241220   6.100   5.062   4.343 -0.3415 -0.7663  0.1865
 6602TIP3    H141221   6.062   5.141   4.382  0.2698 -0.0324 -0.6895
 6602TIP3    H241222   6.175   5.094   4.293 -1.1200 -1.6604 -1.6173
 6603TIP3   OH241223   4.984   6.599  11.228 -0.4418 -0.4314  0.1100
 6603TIP3    H141224   5.031   6.564  11.152 -0.6609 -1.1489  0.3061
 6603TIP3    H241225   5.019   6.687  11.239  0.9462 -0.9949  0.3178
 6604TIP3   OH241226   6.473   5.049   2.403  0.8802 -0.4573 -0.1795
 6604TIP3    H141227   6.475   4.953   2.410  0.9705 -0.2718  3.2025
 6604TIP3    H241228   6.554   5.078   2.444 -0.2611  1.1381  1.0075
 6605TIP3   OH241229   2.051   2.784  15.209  0.2601  0.1930  0.5405
 6605TIP3    H141230   2.118   2.758  15.146 -0.3836  1.2320 -0.5924
 6605TIP3    H241231   2.050   2.714  15.274  1.9359 -0.1784  0.1730
 6606TIP3   OH241232   0.285   5.471  10.819  0.5146  0.1292 -0.1846
 6606TIP3    H141233   0.203   5.490  10.774  0.0727  1.2612  1.0773
 6606TIP3    H241234   0.328   5.405  10.764 -1.4506 -0.8262 -0.6024
 6607TIP3   OH241235   0.597   0.034  16.716  0.5798  0.2065  0.9268
 6607TIP3    H141236   0.634   0.073  16.795  2.0882  1.6691 -0.4471
 6607TIP3    H241237   0.597   0.106  16.652  1.0358 -1.3853 -0.8999
 6608TIP3   OH241238   5.329   1.023   5.702  0.2828  0.0848 -0.2933
 6608TIP3    H141239   5.343   1.016   5.797 -0.4611  0.3829 -0.1580
 6608TIP3    H241240   5.415   1.004   5.664  0.6872  0.3787  0.4583
 6609TIP3   OH241241   5.087   0.155   0.177 -0.4895  0.0602 -0.0202
 6609TIP3    H141242   5.089   0.251   0.184 -0.9109 -0.0200  1.4841
 6609TIP3    H241243   5.168   0.133   0.131  0.0510  1.0856  0.4117
 6610TIP3   OH241244   2.114   5.490  13.288  0.1112  0.3882 -0.3715
 6610TIP3    H141245   2.092   5.467  13.378 -1.7358  1.6581 -0.4652
 6610TIP3    H241246   2.063   5.430  13.234 -0.9920  1.4719 -0.5689
 6611TIP3   OH241247   6.502   3.507   2.668 -0.3544 -0.6164 -0.1400
 6611TIP3    H141248   6.419   3.551   2.684  0.1783  1.4013 -2.5832
 6611TIP3    H241249   6.486   3.456   2.588  1.3657  1.6463 -2.0062
 6612TIP3   OH241250   4.461   4.708  13.470  0.1804  0.0474  0.0022
 6612TIP3    H141251   4.493   4.704  13.379 -0.7808 -0.0317 -0.3396
 6612TIP3    H241252   4.522   4.653  13.519  1.2455  0.8078 -0.4366
 6613TIP3   OH241253   3.054   4.745   1.909  0.0839 -0.0643 -0.6683
 6613TIP3    H141254   3.109   4.767   1.834  1.3634  1.0373  0.5626
 6613TIP3    H241255   3.116   4.736   1.982 -0.9675 -2.5441 -0.0105
 6614TIP3   OH241256   4.407   4.420  10.683  0.0141 -0.0568 -0.1125
 6614TIP3    H141257   4.392   4.502  10.730  1.5703 -0.3148  0.8589
 6614TIP3    H241258   4.500   4.403  10.693  0.2901 -0.3827 -2.8780
 6615TIP3   OH241259   1.415   5.778  14.722 -0.0714 -0.2900 -0.0288
 6615TIP3    H141260   1.491   5.750  14.772 -0.6997 -1.4340  0.2969
 6615TIP3    H241261   1.342   5.770  14.784 -0.5461  0.2503 -0.5126
 6616TIP3   OH241262   5.054   3.718  12.290  0.4999  0.5568  0.4087
 6616TIP3    H141263   4.994   3.662  12.240  1.4740  0.5301 -0.7486
 6616TIP3    H241264   5.062   3.674  12.375 -0.8418  0.3784  0.4592
 6617TIP3   OH241265   6.714   2.228  15.034  0.3671 -0.5749 -0.2376
 6617TIP3    H141266   6.689   2.321  15.033  1.5120 -0.2740 -1.4417
 6617TIP3    H241267   6.638   2.184  15.072  0.1090  0.9417  1.0652
 6618TIP3   OH241268   6.749   4.449   3.056 -0.5726  0.1482  0.6203
 6618TIP3    H141269   6.694   4.524   3.032 -1.9925 -1.4135 -1.1819
 6618TIP3    H241270   6.707   4.413   3.134 -0.8522  0.2552  0.5228
 6619TIP3   OH241271   5.821   4.137  10.945  0.4096 -0.0894 -0.5152
 6619TIP3    H141272   5.743   4.179  10.909 -0.1965 -1.8581 -1.3494
 6619TIP3    H241273   5.887   4.144  10.876  0.1731 -0.8755 -0.8248
 6620TIP3   OH241274   2.485   3.190  15.303 -0.2901 -0.4195 -0.6077
 6620TIP3    H141275   2.502   3.248  15.377 -2.6768  0.2093 -0.5082
 6620TIP3    H241276   2.465   3.105  15.342  0.4712 -0.6208 -0.6396
 6621TIP3   OH241277   5.309   3.147  13.839  0.0864  0.1232 -0.2261
 6621TIP3    H141278   5.399   3.143  13.871 -0.2644 -4.1994  0.5357
 6621TIP3    H241279   5.256   3.157  13.918 -0.3087 -1.4891 -0.2787
 6622TIP3   OH241280   5.681   0.850   5.338 -0.2174  0.4773  0.1213
 6622TIP3    H141281   5.646   0.837   5.427 -2.9884  0.6270 -0.8826
 6622TIP3    H241282   5.630   0.790   5.284  1.9582 -0.1266 -1.2743
 6623TIP3   OH241283   4.754   3.068  16.493 -0.5231  0.3735 -0.0868
 6623TIP3    H141284   4.718   3.152  16.523  0.9941  1.0918 -0.2647
 6623TIP3    H241285   4.806   3.037  16.567  0.2425  0.3773 -0.6201
 6624TIP3   OH241286   2.847   0.819  12.997 -0.0934 -0.5515  0.4308
 6624TIP3    H141287   2.915   0.752  13.002  0.1597 -0.3140  0.1858
 6624TIP3    H241288   2.869   0.880  13.067  0.4906  0.0251 -0.2404
 6625TIP3   OH241289   1.451   3.289   4.196  0.3950 -0.0208 -0.2758
 6625TIP3    H141290   1.403   3.220   4.151  0.3383  0.5923 -1.1529
 6625TIP3    H241291   1.541   3.257   4.201  0.0857 -0.7973  0.6227
 6626TIP3   OH241292   4.949   4.321  15.146 -0.3566  0.2512 -0.1422
 6626TIP3    H141293   4.894   4.246  15.121 -1.3057  1.1977 -0.9927
 6626TIP3    H241294   5.025   4.315  15.089  0.4234 -1.0680  1.0344
 6627TIP3   OH241295   4.955   0.149  13.153  0.2718  0.0102  0.2378
 6627TIP3    H141296   4.918   0.062  13.168  1.9347 -0.6982  0.3812
 6627TIP3    H241297   4.892   0.210  13.191 -1.9286 -0.9948 -1.6857
 6628TIP3   OH241298   3.158   3.666   1.941  0.6831 -0.6671  0.6902
 6628TIP3    H141299   3.159   3.635   1.851  1.1818  1.1910  0.0202
 6628TIP3    H241300   3.125   3.593   1.992  3.1254 -2.7507 -0.6098
 6629TIP3   OH241301   6.592   6.638  17.040 -0.1498 -0.3919  0.2809
 6629TIP3    H141302   6.671   6.607  17.083  0.1437  0.1989  0.1717
 6629TIP3    H241303   6.594   6.596  16.954 -0.0638 -0.5340  0.3519
 6630TIP3   OH241304   3.997   1.503   2.766  0.7548  0.2622 -0.1250
 6630TIP3    H141305   3.912   1.498   2.810  0.4675  1.5063 -0.5416
 6630TIP3    H241306   3.998   1.589   2.724  1.1430 -0.7577 -2.2963
 6631TIP3   OH241307   6.761   4.436   4.039  0.3124  0.3527 -0.6013
 6631TIP3    H141308   6.785   4.350   4.074 -1.5303 -0.1260 -0.4560
 6631TIP3    H241309   6.666   4.439   4.046  0.2912  2.1055 -1.3317
 6632TIP3   OH241310   2.798   2.894  12.705  0.0215 -0.0289  0.5815
 6632TIP3    H141311   2.761   2.897  12.793 -1.1829 -0.4544  0.0923
 6632TIP3    H241312   2.885   2.854  12.717 -0.4455 -0.7862  1.4771
 6633TIP3   OH241313   4.857   5.595  11.769 -0.7254 -0.1028  0.1363
 6633TIP3    H141314   4.762   5.596  11.757 -0.6755 -1.8902 -0.3911
 6633TIP3    H241315   4.893   5.585  11.681 -0.0033  1.1662  0.2627
 6634TIP3   OH241316   4.481   4.618   3.664 -0.2280  0.5013  0.2425
 6634TIP3    H141317   4.503   4.534   3.622 -0.3988 -0.3450  1.8156
 6634TIP3    H241318   4.422   4.660   3.603 -1.1999 -1.1276  0.0256
 6635TIP3   OH241319   5.757   4.451  13.498 -0.1708 -0.4850  0.0209
 6635TIP3    H141320   5.662   4.447  13.502 -0.1763  0.8708  2.8062
 6635TIP3    H241321   5.786   4.375  13.548  0.2189 -1.0068 -0.9927
 6636TIP3   OH241322   3.799   3.667  14.530 -0.1768  0.0344  0.3440
 6636TIP3    H141323   3.893   3.662  14.545 -0.3902 -2.0136  1.1660
 6636TIP3    H241324   3.760   3.673  14.617 -0.7841  1.7878 -0.0287
 6637TIP3   OH241325   3.332   1.281   0.689  0.4738 -0.1657  0.6416
 6637TIP3    H141326   3.327   1.303   0.782 -0.1297 -0.7279  0.7488
 6637TIP3    H241327   3.330   1.365   0.644 -0.5765  0.0507  1.0848
 6638TIP3   OH241328   3.028   0.125  16.664 -0.3823  0.5084 -0.7770
 6638TIP3    H141329   2.999   0.067  16.734  1.7237  1.3476  0.8816
 6638TIP3    H241330   2.986   0.092  16.585 -1.5980 -1.4066  0.6329
 6639TIP3   OH241331   1.105   4.545  11.019  0.4241  0.3754  0.0253
 6639TIP3    H141332   1.065   4.511  10.940 -0.1884  1.6387 -0.2269
 6639TIP3    H241333   1.150   4.471  11.058  0.7268 -0.2418 -1.5061
 6640TIP3   OH241334   0.072   1.584  14.184  0.1614  0.0012 -0.7080
 6640TIP3    H141335   0.020   1.641  14.128  1.4421  1.0156 -0.8732
 6640TIP3    H241336   0.150   1.635  14.206  1.5693 -1.8463 -1.2659
 6641TIP3   OH241337   4.289   4.783  12.374 -0.6060 -0.3415 -0.4054
 6641TIP3    H141338   4.218   4.830  12.331 -1.2822  0.4899  1.5386
 6641TIP3    H241339   4.368   4.834  12.354 -0.8479 -0.2134 -1.0150
 6642TIP3   OH241340   3.455   1.222   3.874  0.0275 -0.1160 -0.3309
 6642TIP3    H141341   3.474   1.129   3.858  1.6747 -0.0262  0.8512
 6642TIP3    H241342   3.377   1.221   3.929  0.4760 -0.8432  0.3084
 6643TIP3   OH241343   5.678   5.861   1.544 -0.6593 -0.1419 -0.2215
 6643TIP3    H141344   5.704   5.856   1.452 -0.0652  1.1790 -0.1422
 6643TIP3    H241345   5.680   5.955   1.564 -0.6303 -0.4282  1.1746
 6644TIP3   OH241346   5.209   1.456  14.649  0.1519  0.6765  0.0942
 6644TIP3    H141347   5.294   1.460  14.606 -1.4865  2.4358 -3.1391
 6644TIP3    H241348   5.216   1.518  14.722  1.6220  0.7944 -0.1333
 6645TIP3   OH241349   2.942   0.109   5.271 -0.0062  0.0997 -0.0031
 6645TIP3    H141350   2.849   0.085   5.263  0.2204 -0.4739 -1.0624
 6645TIP3    H241351   2.979   0.042   5.328 -0.5432  1.2027  1.6992
 6646TIP3   OH241352   4.873   0.062  11.768 -0.0610 -0.3802 -0.3943
 6646TIP3    H141353   4.777   0.052  11.772 -0.0561 -0.0620  0.6935
 6646TIP3    H241354   4.906   0.004  11.837  0.3912  1.2304  0.7809
 6647TIP3   OH241355   5.211   1.591  12.513  0.3141 -0.3438 -0.5742
 6647TIP3    H141356   5.123   1.617  12.485 -0.0891 -1.8025 -0.7143
 6647TIP3    H241357   5.200   1.562  12.604  0.9801  1.0780 -0.0225
 6648TIP3   OH241358   2.121   4.820  16.176 -0.2696  0.3452 -0.6574
 6648TIP3    H141359   2.189   4.770  16.222 -1.4796 -0.1584  0.6304
 6648TIP3    H241360   2.146   4.911  16.189 -0.2836  0.1925  0.5437
 6649TIP3   OH241361   3.503   0.959   2.452 -0.2626 -0.5562  0.0095
 6649TIP3    H141362   3.525   1.044   2.414  0.9957 -0.0633  1.7751
 6649TIP3    H241363   3.436   0.923   2.393  1.8774 -0.0193 -2.8721
 6650TIP3   OH241364   4.243   3.998  12.227  0.3676  0.2552 -0.1319
 6650TIP3    H141365   4.291   4.053  12.165 -0.8272  1.8673  0.3475
 6650TIP3    H241366   4.175   3.957  12.174  0.0311  0.7737 -0.1004
 6651TIP3   OH241367   2.143   4.285   2.074  0.0860  0.1366  0.0710
 6651TIP3    H141368   2.203   4.218   2.105  0.9684  0.7611 -0.2501
 6651TIP3    H241369   2.092   4.309   2.151 -0.8093 -1.4745  0.0002
 6652TIP3   OH241370   4.064   2.513  13.953  0.4632 -0.1111  0.0056
 6652TIP3    H141371   4.036   2.426  13.981  0.8515 -0.2187  0.0570
 6652TIP3    H241372   4.126   2.542  14.020  0.4354  0.1511 -0.0788
 6653TIP3   OH241373   2.527   2.779   2.655  0.3467  0.0195  0.1682
 6653TIP3    H141374   2.526   2.789   2.750 -1.2719  0.1161  0.1641
 6653TIP3    H241375   2.445   2.732   2.636  1.0420 -0.6957 -1.1001
 6654TIP3   OH241376   5.262   6.130   5.419  0.2122  0.2134 -0.7194
 6654TIP3    H141377   5.256   6.038   5.446 -2.1128  0.4740 -0.2291
 6654TIP3    H241378   5.268   6.179   5.501 -0.2061  0.5811 -0.9022
 6655TIP3   OH241379   3.045   4.410   2.060 -0.0969  0.4202  0.5098
 6655TIP3    H141380   3.064   4.460   2.138  1.8634  0.0394  0.3086
 6655TIP3    H241381   3.078   4.322   2.079  0.1741  0.2607 -0.6404
 6656TIP3   OH241382   5.843   3.152  13.147  0.1977  0.2594 -0.0972
 6656TIP3    H141383   5.761   3.127  13.106 -0.8158 -0.3262  2.2362
 6656TIP3    H241384   5.898   3.073  13.141  0.6768  0.6923 -1.7697
 6657TIP3   OH241385   1.550   5.079  16.642  0.1579 -0.2147  0.2775
 6657TIP3    H141386   1.529   5.108  16.731 -0.7141  2.6960 -0.8355
 6657TIP3    H241387   1.645   5.075  16.640  0.2965  2.0983  0.6529
 6658TIP3   OH241388   0.873   5.049  11.637  0.0881 -0.1143  0.1886
 6658TIP3    H141389   0.959   5.082  11.613 -0.8151  2.1665 -0.0736
 6658TIP3    H241390   0.834   5.120  11.689 -2.0471 -0.6519 -0.6237
 6659TIP3   OH241391   1.815   5.205  14.178 -0.1143 -0.4162 -0.2428
 6659TIP3    H141392   1.895   5.251  14.152  0.2204 -0.2907  0.9632
 6659TIP3    H241393   1.745   5.268  14.160  0.1061 -0.3350 -0.8296
 6660TIP3   OH241394   2.009   4.707   1.055 -0.1456 -0.1930  0.0216
 6660TIP3    H141395   2.053   4.638   1.005  1.2976  0.1321  0.8281
 6660TIP3    H241396   1.943   4.660   1.107  1.3321 -1.0810  1.1357
 6661TIP3   OH241397   3.125   3.398   0.706 -0.0739 -0.4527  0.3493
 6661TIP3    H141398   3.154   3.317   0.748  0.0217 -0.3186  0.5386
 6661TIP3    H241399   3.149   3.387   0.614  0.3515 -0.4453  0.4604
 6662TIP3   OH241400   6.295   1.277   4.393 -0.1790 -0.3070  0.2770
 6662TIP3    H141401   6.297   1.256   4.300  0.0700  1.1284 -0.0415
 6662TIP3    H241402   6.303   1.372   4.397  0.8795 -0.4392  1.8025
 6663TIP3   OH241403   6.474   5.815   5.433  0.2405 -0.4391 -0.5758
 6663TIP3    H141404   6.448   5.788   5.345  1.4237 -0.7406 -0.8519
 6663TIP3    H241405   6.559   5.858   5.420  0.5923 -0.8052  0.4667
 6664TIP3   OH241406   0.667   5.773   0.816  0.1485 -0.3471 -0.0615
 6664TIP3    H141407   0.663   5.703   0.882 -0.9011 -1.3005 -1.0986
 6664TIP3    H241408   0.747   5.821   0.837 -0.1039 -0.6824  1.8377
 6665TIP3   OH241409   1.527   3.097   1.926  0.4929  0.3193  0.2253
 6665TIP3    H141410   1.469   3.105   1.851  1.4080 -1.2249 -0.6918
 6665TIP3    H241411   1.469   3.086   2.001 -0.4132  0.9628 -0.3775
 6666TIP3   OH241412   3.365   0.090   3.031  0.5128  0.2734  0.0821
 6666TIP3    H141413   3.325   0.020   2.979  1.0623 -1.3343  1.7418
 6666TIP3    H241414   3.291   0.141   3.064 -0.1753 -1.8838  2.0309
 6667TIP3   OH241415   1.178   3.440  10.614  0.0435 -0.0518  0.6196
 6667TIP3    H141416   1.197   3.523  10.571  0.5625 -0.9048 -0.8091
 6667TIP3    H241417   1.198   3.374  10.549 -0.9493 -1.2850  1.5467
 6668TIP3   OH241418   4.513   2.918  16.479  0.0824  0.1311 -0.4077
 6668TIP3    H141419   4.603   2.949  16.484  0.9095 -2.4322  1.4331
 6668TIP3    H241420   4.466   2.971  16.545  0.2553  1.3412 -1.2440
 6669TIP3   OH241421   4.520   2.581  14.704 -0.1640 -0.5439 -0.9790
 6669TIP3    H141422   4.457   2.511  14.721 -0.1224 -0.0349  1.5461
 6669TIP3    H241423   4.473   2.661  14.728  0.2717  0.1841 -2.4715
 6670TIP3   OH241424   2.156   1.948   1.657 -0.3350  0.4855  0.0851
 6670TIP3    H141425   2.120   1.899   1.731 -0.6946  2.6889  1.4416
 6670TIP3    H241426   2.082   1.958   1.597 -0.7342  0.8305  0.6192
 6671TIP3   OH241427   2.188   3.797  13.747  0.5693  0.5618 -0.1427
 6671TIP3    H141428   2.204   3.703  13.739  0.5830  0.2332  3.0998
 6671TIP3    H241429   2.119   3.815  13.682 -0.0773 -1.8530 -0.1870
 6672TIP3   OH241430   4.056   2.369   4.043 -0.1302  0.2471 -0.4072
 6672TIP3    H141431   4.052   2.458   4.009 -0.8154  0.5163  0.3544
 6672TIP3    H241432   4.119   2.373   4.115 -0.3759  0.1920 -0.1847
 6673TIP3   OH241433   4.443   1.731   6.505  0.4727 -0.2344 -0.2368
 6673TIP3    H141434   4.375   1.664   6.496  0.8174 -0.3539 -2.3654
 6673TIP3    H241435   4.512   1.703   6.445  1.7551  0.6767  0.7838
 6674TIP3   OH241436   2.725   6.661   3.428  0.9154  0.5143 -0.1018
 6674TIP3    H141437   2.655   6.623   3.374 -0.0947 -1.2712  2.3616
 6674TIP3    H241438   2.771   6.721   3.369 -3.9603  3.3525 -1.3030
 6675TIP3   OH241439   1.457   2.734   1.894 -0.1094  0.4498 -0.6084
 6675TIP3    H141440   1.416   2.787   1.825 -0.0615  1.6585  0.2599
 6675TIP3    H241441   1.549   2.728   1.868  0.2930  2.4155  0.2131
 6676TIP3   OH241442   0.516   2.769   2.977 -0.0929  0.1229 -0.3301
 6676TIP3    H141443   0.480   2.710   3.042 -1.6276 -0.1993 -1.4514
 6676TIP3    H241444   0.538   2.849   3.026 -2.4034  0.3538  0.3588
 6677TIP3   OH241445   3.231   1.816   3.943  0.0985 -0.3392  0.4076
 6677TIP3    H141446   3.143   1.853   3.950  0.7185  1.4886 -1.1048
 6677TIP3    H241447   3.229   1.762   3.864  0.0615 -1.1654  0.9564
 6678TIP3   OH241448   2.741   5.413   3.459  0.5525 -0.6097  0.1857
 6678TIP3    H141449   2.750   5.494   3.409 -0.4752  0.8295  2.2577
 6678TIP3    H241450   2.695   5.353   3.400  0.1499  0.7459 -0.9037
 6679TIP3   OH241451   2.679   1.549   3.250  0.2381 -0.0349  0.6096
 6679TIP3    H141452   2.768   1.531   3.222  0.4608 -0.0384  1.3205
 6679TIP3    H241453   2.632   1.467   3.234  0.5620 -0.3060  1.0348
 6680TIP3   OH241454   2.857   0.617  16.264  0.3370 -0.2910  0.0221
 6680TIP3    H141455   2.775   0.640  16.220  0.6949  2.1845  0.6015
 6680TIP3    H241456   2.887   0.539  16.217 -0.5501  0.8397 -2.5207
 6681TIP3   OH241457   2.472   1.486   1.822 -0.0395 -0.5417 -0.4079
 6681TIP3    H141458   2.567   1.493   1.834 -0.1977  0.2055  0.4422
 6681TIP3    H241459   2.461   1.419   1.755  0.9804 -2.5349  1.3916
 6682TIP3   OH241460   0.703   3.432  16.845 -0.2634 -0.6793 -0.5300
 6682TIP3    H141461   0.772   3.368  16.829 -0.0357 -0.2148 -1.4407
 6682TIP3    H241462   0.662   3.445  16.759 -0.2467  0.4566 -0.3721
 6683TIP3   OH241463   6.059   2.642   4.828 -0.4234  0.6293  0.4248
 6683TIP3    H141464   6.062   2.642   4.733  0.2787  2.1462  0.4404
 6683TIP3    H241465   6.018   2.558   4.851 -1.2971  0.5981 -1.2238
 6684TIP3   OH241466   4.699   0.822  15.237  0.7055 -0.1924  0.5018
 6684TIP3    H141467   4.640   0.895  15.257  2.4688  0.8886  1.9117
 6684TIP3    H241468   4.702   0.819  15.142 -0.4369  0.7200  0.4268
 6685TIP3   OH241469   0.629   1.199   0.676 -0.8960 -0.1297  0.0512
 6685TIP3    H141470   0.623   1.279   0.624 -0.8313 -0.8340 -1.0503
 6685TIP3    H241471   0.543   1.158   0.667 -0.9215 -0.1943  0.5957
 6686TIP3   OH241472   0.138   1.188   5.613 -0.0553  0.2957 -0.7292
 6686TIP3    H141473   0.059   1.197   5.665 -0.1214  0.3827 -0.8449
 6686TIP3    H241474   0.158   1.277   5.584 -0.3458  0.1584 -1.3375
 6687TIP3   OH241475   0.660   5.703   5.199 -0.4760  0.1483 -0.5288
 6687TIP3    H141476   0.634   5.720   5.289  0.1845  0.5480 -0.4049
 6687TIP3    H241477   0.756   5.711   5.200 -0.6469  3.0104 -1.8454
 6688TIP3   OH241478   5.841   5.398   2.027  0.5603  0.2309  0.2391
 6688TIP3    H141479   5.905   5.344   2.074  1.4328  0.1481 -1.0139
 6688TIP3    H241480   5.855   5.487   2.061  3.3039  0.7254 -2.0002
 6689TIP3   OH241481   4.373   2.539   3.545 -0.3483  1.0355 -0.1533
 6689TIP3    H141482   4.395   2.482   3.619 -1.1597  0.7744 -0.1168
 6689TIP3    H241483   4.344   2.480   3.476  0.2693  1.2917 -0.6415
 6690TIP3   OH241484   0.554   0.029   4.861 -0.1497  0.0357 -0.5058
 6690TIP3    H141485   0.535  -0.048   4.808 -0.2415  0.5697 -1.2475
 6690TIP3    H241486   0.483   0.032   4.925  0.0331 -0.6797 -0.2512
 6691TIP3   OH241487   3.034   6.212  15.888 -0.1011  0.1233 -0.2423
 6691TIP3    H141488   3.069   6.277  15.950 -0.5417 -0.1427  0.2943
 6691TIP3    H241489   2.941   6.208  15.908  0.4282 -2.9777  1.9258
 6692TIP3   OH241490   5.677   5.637  12.377  0.6230 -0.6602  0.3945
 6692TIP3    H141491   5.649   5.710  12.432 -0.6395 -2.3474  2.0266
 6692TIP3    H241492   5.754   5.602  12.422  0.7549 -0.8539  0.0202
 6693TIP3   OH241493   5.398   5.939   5.023  0.0601 -0.0172 -0.6911
 6693TIP3    H141494   5.315   5.973   5.055  0.3464 -0.9598  1.1840
 6693TIP3    H241495   5.462   5.971   5.087  0.7768 -1.3070 -0.7433
 6694TIP3   OH241496   4.479   4.257  12.587 -0.4081 -0.0755 -0.1975
 6694TIP3    H141497   4.433   4.338  12.608  0.9692  0.3665  1.2499
 6694TIP3    H241498   4.410   4.195  12.562 -1.8558  0.4306  2.3774
 6695TIP3   OH241499   6.521   5.428  14.997 -0.8179  0.1785 -0.3569
 6695TIP3    H141500   6.534   5.520  15.018 -0.8384 -0.0589  0.7349
 6695TIP3    H241501   6.445   5.402  15.048 -1.5581 -0.1460 -1.5904
 6696TIP3   OH241502   1.323   3.806  13.884  0.3563  0.7800 -0.0025
 6696TIP3    H141503   1.268   3.728  13.878  1.7080 -0.2841  0.9673
 6696TIP3    H241504   1.373   3.806  13.802 -0.3301  1.1494 -0.4173
 6697TIP3   OH241505   1.735   4.389  12.405  1.0870  0.1357 -0.0077
 6697TIP3    H141506   1.782   4.472  12.398  0.2827  0.6293  0.3649
 6697TIP3    H241507   1.686   4.383  12.323 -1.9055  1.9355  1.5807
 6698TIP3   OH241508   4.797   3.921  11.521  0.0769  0.0860  0.8054
 6698TIP3    H141509   4.818   3.916  11.614 -0.9597  0.0912  1.0442
 6698TIP3    H241510   4.752   3.839  11.502  2.2230 -0.8856 -0.2007
 6699TIP3   OH241511   0.811   6.754  13.004  0.9439  0.1780 -0.4065
 6699TIP3    H141512   0.839   6.703  12.928  2.9060 -1.8193  1.5514
 6699TIP3    H241513   0.748   6.697  13.049  1.3566  0.4508  0.5373
 6700TIP3   OH241514   3.423   6.736  14.421  0.3954  0.1593  0.1282
 6700TIP3    H141515   3.430   6.665  14.485  4.8827 -1.6529 -2.1532
 6700TIP3    H241516   3.364   6.702  14.354  0.6019 -0.4794  0.2631
 6701TIP3   OH241517   5.871   3.458  15.889  0.2399  0.3354  0.4104
 6701TIP3    H141518   5.777   3.460  15.906  0.4099  0.5909  1.3571
 6701TIP3    H241519   5.905   3.392  15.949  0.7461  0.6826  0.5128
 6702TIP3   OH241520   1.275   2.080   4.524 -0.1582 -0.3027 -0.8715
 6702TIP3    H141521   1.355   2.079   4.577  1.3050 -0.7291 -3.0096
 6702TIP3    H241522   1.281   2.000   4.470 -0.2361  1.4339 -3.5696
 6703TIP3   OH241523   6.589   1.133  12.214 -0.4301  0.1100  0.4961
 6703TIP3    H141524   6.644   1.168  12.283  2.1760 -1.8509 -0.5207
 6703TIP3    H241525   6.614   1.183  12.136 -0.9211  0.0054  0.2710
 6704TIP3   OH241526   1.717   6.278   6.586 -0.1448  0.1602  0.0328
 6704TIP3    H141527   1.782   6.313   6.647 -1.6810  0.4824  1.5380
 6704TIP3    H241528   1.762   6.274   6.502  1.7546  0.5377  1.0124
 6705TIP3   OH241529   6.049   6.717  16.956 -0.0911  0.5508 -0.8114
 6705TIP3    H141530   6.064   6.721  17.050 -2.7237 -1.4892 -0.2484
 6705TIP3    H241531   5.968   6.768  16.943 -0.5677 -0.4114 -1.7325
 6706TIP3   OH241532   2.453   6.041  15.567 -0.1573  0.1970 -0.4621
 6706TIP3    H141533   2.370   6.084  15.549 -0.6222 -0.0899  0.8863
 6706TIP3    H241534   2.453   5.963  15.511 -0.4829  0.5637 -0.9738
 6707TIP3   OH241535   1.817   2.171   6.734 -0.6184 -0.4325 -0.1129
 6707TIP3    H141536   1.785   2.089   6.697 -1.8460 -0.5623  1.2084
 6707TIP3    H241537   1.834   2.151   6.826 -0.2992  0.6180  0.0632
 6708TIP3   OH241538   5.205   5.979  14.827 -0.0870 -0.0744  0.2816
 6708TIP3    H141539   5.269   5.911  14.807  0.1498  0.3813 -0.5446
 6708TIP3    H241540   5.120   5.940  14.805 -0.0744 -0.5588  1.0618
 6709TIP3   OH241541   3.568   1.536  16.752  0.2512  0.2403  0.4076
 6709TIP3    H141542   3.479   1.541  16.717  0.1904  0.8488  0.6324
 6709TIP3    H241543   3.621   1.506  16.678 -0.3068 -1.1731  0.5753
 6710TIP3   OH241544   2.487   3.634  13.565  0.1632  0.4449 -0.4375
 6710TIP3    H141545   2.482   3.538  13.560 -0.8589  0.5418 -1.7597
 6710TIP3    H241546   2.420   3.664  13.503 -0.0411  2.0172  0.5246
 6711TIP3   OH241547   3.793   0.051   4.799  0.0888 -0.8874  0.2490
 6711TIP3    H141548   3.794  -0.026   4.743 -2.3434  0.1687 -1.3075
 6711TIP3    H241549   3.743   0.116   4.751  0.0980  0.9177  2.5503
 6712TIP3   OH241550   5.250   0.407  12.802 -0.1435 -0.2196  0.6724
 6712TIP3    H141551   5.211   0.405  12.715  0.1943 -0.0399  0.5122
 6712TIP3    H241552   5.307   0.330  12.805  1.0507  0.6378  0.1586
 6713TIP3   OH241553   1.390   4.915   0.389  0.0171  0.0371 -0.1338
 6713TIP3    H141554   1.380   4.921   0.294 -0.6006  0.4154 -0.0452
 6713TIP3    H241555   1.302   4.896   0.421  0.6032 -2.4164  0.1803
 6714TIP3   OH241556   3.586   3.794  16.937 -0.9692 -0.3284  0.4031
 6714TIP3    H141557   3.521   3.839  16.991 -1.1931 -0.0451 -0.0980
 6714TIP3    H241558   3.553   3.803  16.847  0.0989  0.3861  0.0792
 6715TIP3   OH241559   0.578   3.001   3.112 -0.1046  0.1482  0.1142
 6715TIP3    H141560   0.548   3.092   3.112  0.2795  0.2770 -0.5980
 6715TIP3    H241561   0.670   3.006   3.138 -0.0504 -0.0276 -0.0424
 6716TIP3   OH241562   1.682   5.247   1.380  0.1562  0.0676 -0.1703
 6716TIP3    H141563   1.690   5.156   1.406  0.9922 -0.2679 -1.5307
 6716TIP3    H241564   1.767   5.285   1.399  0.1838  0.2665 -0.6674
 6717TIP3   OH241565   0.392   0.796   4.571  0.1742  0.2835 -0.9005
 6717TIP3    H141566   0.473   0.828   4.531 -0.2417  1.6875 -0.6545
 6717TIP3    H241567   0.333   0.871   4.569 -0.6823 -0.3476  0.0960
 6718TIP3   OH241568   4.943   0.731  16.548 -0.4974 -0.1852  0.0106
 6718TIP3    H141569   5.034   0.704  16.560 -0.5842 -0.6413 -0.3278
 6718TIP3    H241570   4.913   0.755  16.636 -0.3991 -1.1541  0.3239
 6719TIP3   OH241571   1.311   6.598   5.856 -0.1513 -0.3524 -0.2822
 6719TIP3    H141572   1.345   6.573   5.770  1.4535  2.6159 -0.6099
 6719TIP3    H241573   1.315   6.518   5.908 -0.9996 -2.1565 -2.9153
 6720TIP3   OH241574   4.355   2.529   0.738  0.4986 -1.0805 -0.4692
 6720TIP3    H141575   4.412   2.558   0.667 -0.6947  0.3490 -0.8653
 6720TIP3    H241576   4.409   2.469   0.790  1.7746 -1.1407 -1.8498
 6721TIP3   OH241577   1.471   4.509  14.426  0.0680  0.4741  0.3081
 6721TIP3    H141578   1.517   4.440  14.474 -0.6515 -0.0464  0.2480
 6721TIP3    H241579   1.531   4.583  14.429  2.2875 -1.1202 -2.4400
 6722TIP3   OH241580   3.033   1.591   5.245 -0.7179  0.2703 -0.1842
 6722TIP3    H141581   2.973   1.529   5.204  0.3164 -0.9220  0.0493
 6722TIP3    H241582   3.081   1.539   5.310  1.5312  0.8257 -1.3285
 6723TIP3   OH241583   0.272   3.860  11.298  0.2734 -0.3170 -0.1953
 6723TIP3    H141584   0.294   3.940  11.251  0.2165 -0.4547 -0.4583
 6723TIP3    H241585   0.218   3.810  11.237  1.7086 -1.3125 -0.6704
 6724TIP3   OH241586   6.184   0.400   3.496 -0.4502 -0.1065 -0.0215
 6724TIP3    H141587   6.132   0.481   3.499 -2.3943 -1.2905 -0.4249
 6724TIP3    H241588   6.118   0.330   3.498  1.1554 -1.6648 -0.5340
 6725TIP3   OH241589   4.757   0.479  11.980  0.0528  0.3211 -0.3589
 6725TIP3    H141590   4.799   0.482  12.065 -0.7352  1.0879  0.0088
 6725TIP3    H241591   4.663   0.474  11.999  0.0430 -4.2694 -1.1288
 6726TIP3   OH241592   3.746   3.775  12.943 -0.1797 -0.3980  0.3334
 6726TIP3    H141593   3.707   3.688  12.939  2.1192 -1.5888  2.4971
 6726TIP3    H241594   3.686   3.826  12.997 -0.7891 -1.0562  0.2761
 6727TIP3   OH241595   1.954   4.991   0.510 -0.5770  0.0334 -0.4989
 6727TIP3    H141596   1.870   4.954   0.537 -0.5635  0.0803 -0.3931
 6727TIP3    H241597   1.947   5.084   0.530 -0.5657  0.0665 -0.6524
 6728TIP3   OH241598   5.482   5.520   2.857 -0.6254 -0.0213 -0.3168
 6728TIP3    H141599   5.465   5.520   2.951  1.1245 -0.0539  0.0054
 6728TIP3    H241600   5.523   5.605   2.840  0.5345 -0.6602 -0.7655
 6729TIP3   OH241601   3.999   0.409   5.062  0.0368  0.4494  0.0179
 6729TIP3    H141602   3.910   0.391   5.091  0.3089  0.7780  1.0582
 6729TIP3    H241603   3.997   0.393   4.967 -0.9176 -0.3206  0.1682
 6730TIP3   OH241604   5.817   1.528   2.448  0.3093 -0.4774  0.5637
 6730TIP3    H141605   5.872   1.467   2.397  2.6217  1.5092  0.6066
 6730TIP3    H241606   5.817   1.609   2.397  0.3004  0.6487  2.3126
 6731TIP3   OH241607   1.221   2.803   5.088  0.0385 -0.2415 -0.2277
 6731TIP3    H141608   1.271   2.883   5.070 -0.3012 -0.2215 -1.1225
 6731TIP3    H241609   1.285   2.742   5.124  0.3799  0.3134  0.1023
 6732TIP3   OH241610   2.978   1.070  14.189 -0.1848  0.2935  0.1009
 6732TIP3    H141611   2.939   0.987  14.218  1.8107 -0.6419  0.1636
 6732TIP3    H241612   3.021   1.049  14.106  1.0015  1.0751  0.5040
 6733TIP3   OH241613   5.528   3.872  15.889  0.4062 -0.5239 -0.1742
 6733TIP3    H141614   5.566   3.960  15.899  0.2151 -0.6563  1.9450
 6733TIP3    H241615   5.595   3.813  15.924 -0.4935 -1.0031  0.7497
 6734TIP3   OH241616   4.892   5.644   4.014 -0.0942  0.1960 -0.7159
 6734TIP3    H141617   4.881   5.557   3.976  1.0682 -0.0393 -0.5176
 6734TIP3    H241618   4.923   5.627   4.103 -1.2673  0.7831 -0.1827
 6735TIP3   OH241619   3.741   2.785  14.934  0.0010  0.0699 -0.4182
 6735TIP3    H141620   3.714   2.795  15.025 -1.2345  0.1906 -0.7935
 6735TIP3    H241621   3.682   2.841  14.884  0.8063  0.1800 -1.2823
 6736TIP3   OH241622   3.272   3.931   2.332  0.9093  0.4298  0.0074
 6736TIP3    H141623   3.270   3.836   2.347  2.0405  0.6363  1.5678
 6736TIP3    H241624   3.246   3.941   2.240  0.5044 -1.3660 -0.1021
 6737TIP3   OH241625   6.030   4.642   2.451 -0.6931  0.5355 -0.7792
 6737TIP3    H141626   6.068   4.564   2.413  1.6697  1.3296 -0.1163
 6737TIP3    H241627   6.032   4.707   2.381 -2.3069  0.1384 -1.2148
 6738TIP3   OH241628   6.353   3.558  15.872 -0.0861  0.0022 -0.2981
 6738TIP3    H141629   6.263   3.583  15.851  0.2918  0.2850 -1.6649
 6738TIP3    H241630   6.382   3.505  15.797  0.6729 -0.6277  0.4235
 6739TIP3   OH241631   5.433   0.405   0.027 -0.2666  0.3448  0.1742
 6739TIP3    H141632   5.341   0.381   0.042 -0.3527  0.5441 -0.0267
 6739TIP3    H241633   5.452   0.470   0.096 -0.2257  0.1806  0.3187
 6740TIP3   OH241634   6.369   0.867   1.348 -0.0627  0.3310 -0.0672
 6740TIP3    H141635   6.298   0.930   1.352 -0.1028  0.2565  0.5015
 6740TIP3    H241636   6.387   0.856   1.255 -0.9314  0.1998 -0.2264
 6741TIP3   OH241637   3.945   3.411   3.247  0.2926  0.6046 -0.3075
 6741TIP3    H141638   3.876   3.357   3.287 -0.5528  0.8055 -1.4494
 6741TIP3    H241639   3.971   3.472   3.317  0.0708 -0.1837  0.4714
 6742TIP3   OH241640   2.078   1.314   1.418  0.5495 -0.3552 -0.0147
 6742TIP3    H141641   2.036   1.269   1.491 -1.2725  0.6078 -0.4194
 6742TIP3    H241642   2.108   1.397   1.455 -0.1423  0.0204 -0.2742
 6743TIP3   OH241643   2.223   3.026  15.300  0.2357  0.3642  0.6879
 6743TIP3    H141644   2.240   2.961  15.233 -0.9604 -0.2752  0.9804
 6743TIP3    H241645   2.220   3.110  15.253 -0.5605 -0.0744 -0.0578
 6744TIP3   OH241646   6.079   2.440  10.891 -0.6645 -0.2842  0.1305
 6744TIP3    H141647   6.157   2.424  10.943 -0.0627  3.0588  0.3719
 6744TIP3    H241648   6.111   2.447  10.801 -0.8837 -0.1479  0.0628
 6745TIP3   OH241649   4.726   4.264   5.911 -0.0655  0.7008  0.4163
 6745TIP3    H141650   4.719   4.200   5.982  0.7053 -0.6407 -0.6880
 6745TIP3    H241651   4.729   4.349   5.956  0.1972 -0.1053  1.9758
 6746TIP3   OH241652   1.949   6.242   2.781  0.4608  0.1708  0.2612
 6746TIP3    H141653   1.928   6.181   2.710 -0.4462 -0.6811  1.2344
 6746TIP3    H241654   1.998   6.312   2.739  2.5858 -1.8109 -0.7054
 6747TIP3   OH241655   1.141   2.621  13.206  0.2025  0.3640  0.0381
 6747TIP3    H141656   1.073   2.666  13.156 -0.0137 -0.1638 -0.1535
 6747TIP3    H241657   1.159   2.542  13.155 -0.7312 -0.6784  1.2892
 6748TIP3   OH241658   6.349   2.563  13.660 -0.0221  0.0715 -0.0150
 6748TIP3    H141659   6.270   2.608  13.691  0.3534  1.8572 -1.6168
 6748TIP3    H241660   6.377   2.612  13.583 -0.0553 -3.3552 -2.3418
 6749TIP3   OH241661   3.855   0.296   3.535  0.7663  0.2264  0.0140
 6749TIP3    H141662   3.850   0.363   3.467 -0.0091 -0.4676 -0.6326
 6749TIP3    H241663   3.919   0.330   3.598 -0.8857  2.3785  0.6016
 6750TIP3   OH241664   4.794   6.410   0.784  0.2623 -0.0412 -0.7512
 6750TIP3    H141665   4.746   6.440   0.861  0.8407 -1.6340  0.2459
 6750TIP3    H241666   4.726   6.394   0.718 -0.3281  0.3952 -0.2542
 6751TIP3   OH241667   0.587   2.007  12.112  0.1085  0.0726 -0.1971
 6751TIP3    H141668   0.541   1.935  12.069 -0.2142  0.0879  0.1163
 6751TIP3    H241669   0.608   2.068  12.042 -1.7554  0.8203 -0.1279
 6752TIP3   OH241670   6.673   1.044  14.439  0.4565 -0.3274  0.4199
 6752TIP3    H141671   6.681   1.031  14.345 -0.1673 -1.0893  0.4699
 6752TIP3    H241672   6.580   1.062  14.453  0.7212  0.7852  0.7715
 6753TIP3   OH241673   1.845   5.305  12.692  0.5837 -0.0721 -0.4930
 6753TIP3    H141674   1.937   5.325  12.711  0.3331  1.6204 -1.0186
 6753TIP3    H241675   1.823   5.235  12.753  2.5689 -1.3211 -1.1525
 6754TIP3   OH241676   4.773   0.370  14.309 -0.1875  0.3872 -0.6361
 6754TIP3    H141677   4.725   0.312  14.368 -1.6486  0.3686 -1.8176
 6754TIP3    H241678   4.753   0.458  14.341  0.2888  0.3235 -0.1571
 6755TIP3   OH241679   6.048   1.836  14.193  0.4386 -0.5760 -0.6146
 6755TIP3    H141680   6.097   1.892  14.252  0.3309  0.6699 -1.6931
 6755TIP3    H241681   6.095   1.841  14.110 -0.8834 -0.2434 -1.3576
 6756TIP3   OH241682   5.122   4.301  14.522 -0.0403  0.2138 -0.1524
 6756TIP3    H141683   5.071   4.324  14.445 -1.1724 -0.4712  0.3890
 6756TIP3    H241684   5.066   4.324  14.596 -0.3243 -2.2343  0.4382
 6757TIP3   OH241685   1.126   4.851   4.665  0.6180  1.1837 -0.3279
 6757TIP3    H141686   1.133   4.942   4.693  0.3046  0.8959  0.7061
 6757TIP3    H241687   1.061   4.813   4.725 -0.3542  0.6594 -1.6951
 6758TIP3   OH241688   6.158   6.568   6.160 -0.5269  0.2196 -0.5429
 6758TIP3    H141689   6.239   6.525   6.190  0.3897  1.0206 -1.8566
 6758TIP3    H241690   6.089   6.521   6.207  0.6014 -1.3097 -0.3421
 6759TIP3   OH241691   0.468   0.670  16.184  0.2601  0.0003  0.4877
 6759TIP3    H141692   0.533   0.697  16.119  0.2923 -0.9256  0.1283
 6759TIP3    H241693   0.516   0.670  16.267  0.6548 -0.4329  0.2624
 6760TIP3   OH241694   2.183   3.766   3.940 -0.6440  0.1407  0.3358
 6760TIP3    H141695   2.140   3.689   3.974  1.0085 -1.3540 -0.8367
 6760TIP3    H241696   2.118   3.806   3.881 -1.4295 -0.4718  0.7800
 6761TIP3   OH241697   5.403   0.157   1.398 -0.0513  0.8680  0.1984
 6761TIP3    H141698   5.322   0.137   1.445 -0.4380 -0.4475 -1.0103
 6761TIP3    H241699   5.374   0.198   1.317  0.3819 -1.4060 -1.1410
 6762TIP3   OH241700   1.363   4.021   4.137 -0.3144  0.0589  0.3539
 6762TIP3    H141701   1.329   3.943   4.181 -0.3028 -0.3984 -0.4339
 6762TIP3    H241702   1.458   4.018   4.154 -0.5812  1.0809  2.1526
 6763TIP3   OH241703   4.899   5.900   5.422 -0.1693  0.3834  0.0355
 6763TIP3    H141704   4.948   5.851   5.355  1.2463  1.1281  0.5058
 6763TIP3    H241705   4.807   5.888   5.398  0.2912  0.1418 -1.6945
 6764TIP3   OH241706   5.510   2.669  11.335 -0.2115  0.0150 -0.0599
 6764TIP3    H141707   5.512   2.615  11.414  1.8573 -0.4424 -0.3859
 6764TIP3    H241708   5.454   2.620  11.275 -1.9120  0.4388  1.1648
 6765TIP3   OH241709   2.272   0.368  13.930 -0.5175  0.2750 -0.3282
 6765TIP3    H141710   2.183   0.366  13.964 -0.5746  1.3078 -0.4094
 6765TIP3    H241711   2.264   0.403  13.841 -0.2253 -1.2424 -0.9698
 6766TIP3   OH241712   5.284   1.679  15.318  0.3221 -0.3069 -0.6886
 6766TIP3    H141713   5.240   1.602  15.283 -0.9917  0.6058 -1.0955
 6766TIP3    H241714   5.216   1.746  15.323  0.7841  0.0074  2.3326
 6767TIP3   OH241715   1.557   4.977   3.871 -0.6798  0.5051  0.2417
 6767TIP3    H141716   1.592   4.967   3.959 -1.3771  0.4621  0.5206
 6767TIP3    H241717   1.546   5.072   3.860 -2.3408  0.4144  0.9123
 6768TIP3   OH241718   0.692   4.500   5.037 -0.3637  0.2672 -0.3192
 6768TIP3    H141719   0.604   4.532   5.054 -0.6274 -0.4947 -0.2162
 6768TIP3    H241720   0.688   4.406   5.058  0.9619  0.5984  1.5549
 6769TIP3   OH241721   1.802   3.866   4.142 -0.8672 -0.5166  0.7167
 6769TIP3    H141722   1.800   3.911   4.058 -1.0851  0.5060  1.2620
 6769TIP3    H241723   1.880   3.901   4.186 -0.1438 -1.8340  0.5169
 6770TIP3   OH241724   1.553   3.835   1.155 -0.1609 -0.1811  0.2606
 6770TIP3    H141725   1.551   3.919   1.108  2.6083 -1.4460 -2.3368
 6770TIP3    H241726   1.617   3.849   1.225  1.6795 -0.5696 -1.2785
 6771TIP3   OH241727   0.051   0.568   2.975 -0.0657 -0.6516 -0.2612
 6771TIP3    H141728   0.032   0.633   2.908  0.0187  0.4018  0.7283
 6771TIP3    H241729   0.058   0.485   2.927  0.0723  0.1030 -1.5511
 6772TIP3   OH241730   1.333   0.331  14.612  0.1374  0.0835  0.0335
 6772TIP3    H141731   1.299   0.372  14.691  1.4654 -0.4087  0.8865
 6772TIP3    H241732   1.400   0.391  14.580 -0.5963  0.4174 -0.8787
 6773TIP3   OH241733   1.896   5.391  13.167 -0.4369  0.1416  0.2381
 6773TIP3    H141734   1.875   5.415  13.076 -0.0472 -1.8713 -0.4028
 6773TIP3    H241735   1.816   5.412  13.215  0.2345  3.7500 -0.0290
 6774TIP3   OH241736   3.007   1.191   2.052 -0.2835 -0.3514  0.3464
 6774TIP3    H141737   3.049   1.128   2.111 -0.2595 -2.4150 -1.7715
 6774TIP3    H241738   2.935   1.228   2.103  1.0695 -0.4353  2.3728
 6775TIP3   OH241739   4.571   5.090   0.641  0.2398 -0.0015  0.3701
 6775TIP3    H141740   4.535   5.169   0.682  0.0434 -1.0874  2.3829
 6775TIP3    H241741   4.642   5.122   0.585 -0.0708  1.6345  0.8869
 6776TIP3   OH241742   0.040   2.044  16.694 -0.1655 -0.6161  0.0760
 6776TIP3    H141743   0.083   2.054  16.779 -1.6452 -0.9560  0.8828
 6776TIP3    H241744   0.110   2.058  16.630  0.6285  1.3885  1.3198
 6777TIP3   OH241745   1.834   3.234   0.157  0.0923 -0.0327 -0.1567
 6777TIP3    H141746   1.865   3.287   0.083 -1.2111  0.3323 -0.4596
 6777TIP3    H241747   1.913   3.212   0.206  1.0118 -0.5542 -1.8435
 6778TIP3   OH241748   3.105   6.675   1.259  0.3469  0.6709  0.3918
 6778TIP3    H141749   3.147   6.733   1.195  0.2356  0.5515  0.2085
 6778TIP3    H241750   3.178   6.627   1.299  0.3754  0.3403 -0.0496
 6779TIP3   OH241751   0.607   5.285  13.157 -0.2509  0.5422 -0.5259
 6779TIP3    H141752   0.693   5.317  13.185 -0.1789 -0.5142  0.4878
 6779TIP3    H241753   0.556   5.365  13.143 -0.3556  1.1706  2.8622
 6780TIP3   OH241754   5.880   5.332  15.113 -0.3398 -0.2082 -0.2505
 6780TIP3    H141755   5.818   5.264  15.084 -0.5975  0.3397 -0.9871
 6780TIP3    H241756   5.871   5.402  15.049  0.8488 -0.0009 -0.2035
 6781TIP3   OH241757   5.164   0.310   2.540  0.4622  0.0889  0.7275
 6781TIP3    H141758   5.233   0.370   2.511  0.6531  0.1857  1.3679
 6781TIP3    H241759   5.121   0.356   2.612 -1.4059  0.7791 -0.7660
 6782TIP3   OH241760   4.853   6.426   0.406 -0.3125  0.0071  0.2963
 6782TIP3    H141761   4.807   6.508   0.424  0.2690  0.1297  1.2831
 6782TIP3    H241762   4.829   6.403   0.316 -0.3806  1.3287 -0.0274
 6783TIP3   OH241763   1.552   4.741  17.018 -0.0497  0.8431  0.3890
 6783TIP3    H141764   1.638   4.738  17.060  0.4889  1.5960 -0.6395
 6783TIP3    H241765   1.572   4.760  16.926 -1.2771  0.3372  0.0142
 6784TIP3   OH241766   2.437   4.195   5.506 -0.0209  0.5940  0.1703
 6784TIP3    H141767   2.382   4.117   5.518  1.0008 -0.0959  0.3643
 6784TIP3    H241768   2.459   4.222   5.595  2.9729 -1.2864  0.0812
 6785TIP3   OH241769   0.144   1.072  16.453 -0.5336  0.1879 -0.1403
 6785TIP3    H141770   0.050   1.078  16.437 -0.4012  0.5322 -0.8067
 6785TIP3    H241771   0.179   1.032  16.374  0.1158  1.8166 -0.6912
 6786TIP3   OH241772   0.994   6.188  13.003 -0.8652 -0.4007  0.0230
 6786TIP3    H141773   1.041   6.257  12.956 -1.4418 -0.8214 -1.1970
 6786TIP3    H241774   1.055   6.114  13.006 -1.0424 -0.5774 -0.6076
 6787TIP3   OH241775   3.234   5.487   4.159  0.1576 -0.3637  0.5885
 6787TIP3    H141776   3.258   5.429   4.086 -0.9530 -0.3453  0.1962
 6787TIP3    H241777   3.254   5.574   4.127 -0.1727 -0.3693  0.3590
 6788TIP3   OH241778   1.642   3.026  10.375 -0.0212  0.6862  0.0919
 6788TIP3    H141779   1.681   3.113  10.386 -0.0047  0.5860  0.8361
 6788TIP3    H241780   1.549   3.040  10.389 -0.0057  0.5635  0.3112
 6789TIP3   OH241781   3.897   3.859  16.601 -0.2155 -0.0934 -0.1657
 6789TIP3    H141782   3.825   3.887  16.544  0.7690  0.8254 -0.9700
 6789TIP3    H241783   3.886   3.911  16.681 -0.7421 -0.3377 -0.0757
 6790TIP3   OH241784   0.328   1.083   2.903 -0.1141  0.0852 -0.3274
 6790TIP3    H141785   0.313   1.032   2.983 -0.4669 -0.0120 -0.4515
 6790TIP3    H241786   0.391   1.032   2.853 -0.2602 -0.0925 -0.3285
 6791TIP3   OH241787   2.182   2.629   2.250  0.3914  0.2613 -0.7607
 6791TIP3    H141788   2.230   2.586   2.180 -0.1390  0.7188 -1.4124
 6791TIP3    H241789   2.245   2.635   2.322  0.9039 -0.3118 -1.1585
 6792TIP3   OH241790   5.438   3.728   4.945 -0.0230 -0.2632 -0.3294
 6792TIP3    H141791   5.480   3.703   5.028 -0.5336 -1.6153 -0.4609
 6792TIP3    H241792   5.434   3.824   4.948 -0.1381 -0.2994  1.2648
 6793TIP3   OH241793   4.693   0.108   2.884 -0.0353 -0.2700 -0.6417
 6793TIP3    H141794   4.599   0.115   2.901  0.0063  0.6065 -0.7059
 6793TIP3    H241795   4.733   0.158   2.956  0.2316  1.8770 -2.2281
 6794TIP3   OH241796   1.826   6.182   4.738 -0.5643  0.3155  0.0832
 6794TIP3    H141797   1.794   6.139   4.817  0.7506 -0.9945 -0.0871
 6794TIP3    H241798   1.914   6.212   4.761 -1.7046  3.6054  0.4450
 6795TIP3   OH241799   5.356   5.100  15.559 -0.6060  0.2523  0.3212
 6795TIP3    H141800   5.326   5.043  15.630 -0.0571  0.8396  1.0333
 6795TIP3    H241801   5.289   5.168  15.552  0.8289  1.9282  2.3425
 6796TIP3   OH241802   4.945   0.175   2.476 -0.3888  0.3991  0.3320
 6796TIP3    H141803   4.969   0.082   2.469 -0.8746  0.1406  1.7903
 6796TIP3    H241804   5.026   0.219   2.501 -0.6792 -0.0085  2.0845
 6797TIP3   OH241805   3.626   6.595   2.208  0.4357 -0.2756 -0.7095
 6797TIP3    H141806   3.653   6.515   2.254 -0.7709 -0.4008 -0.1938
 6797TIP3    H241807   3.579   6.645   2.275 -0.9754 -0.2682 -1.6837
 6798TIP3   OH241808   2.145   4.615  11.356 -0.0369  0.4762 -0.3408
 6798TIP3    H141809   2.063   4.585  11.394  0.4206 -0.1455  0.1679
 6798TIP3    H241810   2.193   4.535  11.334  0.6669  0.8263 -0.1074
 6799TIP3   OH241811   6.675   2.808   4.647 -0.2907 -0.0855 -0.4856
 6799TIP3    H141812   6.602   2.867   4.628 -0.0150  0.7896  1.0782
 6799TIP3    H241813   6.648   2.761   4.725 -0.0818 -1.3346 -1.1548
 6800TIP3   OH241814   4.048   6.747   1.810 -0.4034  0.5483 -0.2116
 6800TIP3    H141815   4.081   6.719   1.724  1.6498 -0.6615  0.9200
 6800TIP3    H241816   4.075   6.838   1.817  0.4323  0.3236 -0.3984
 6801TIP3   OH241817   0.057   3.909   0.763  0.3754  0.4080  0.6169
 6801TIP3    H141818  -0.009   3.867   0.818 -0.1931  1.4957  0.7843
 6801TIP3    H241819   0.070   3.995   0.804  0.5122  0.9216 -0.5037
 6802TIP3   OH241820   2.047   3.261  15.984  0.3669 -0.2589 -0.1807
 6802TIP3    H141821   2.075   3.311  15.907  1.2425 -0.2021  0.1725
 6802TIP3    H241822   2.023   3.175  15.948  0.1495 -0.0276 -0.6025
 6803TIP3   OH241823   1.147   3.028   5.675 -0.0180  0.5086  0.1701
 6803TIP3    H141824   1.096   2.966   5.622 -0.8053  0.0276  1.4663
 6803TIP3    H241825   1.224   2.978   5.702  0.8405  1.0331 -1.2444
 6804TIP3   OH241826   5.633   3.690  15.142  0.5145 -0.1506  0.2610
 6804TIP3    H141827   5.696   3.755  15.175  0.8440 -0.3798  0.0771
 6804TIP3    H241828   5.677   3.606  15.153  0.4869 -0.2565 -0.4493
 6805TIP3   OH241829   2.985   5.881  16.205  0.2212  0.1235 -0.3479
 6805TIP3    H141830   3.052   5.944  16.181  0.7685 -0.1587  0.4036
 6805TIP3    H241831   2.905   5.913  16.163  0.5062  1.2846 -0.0194
 6806TIP3   OH241832   0.354   4.806  13.819  0.6760 -0.2768  0.4873
 6806TIP3    H141833   0.449   4.805  13.808  0.9260 -0.2959  2.5033
 6806TIP3    H241834   0.340   4.790  13.912 -1.1831  3.0108  0.8491
 6807TIP3   OH241835   3.074   1.019   2.747  0.2034 -0.4967  0.9407
 6807TIP3    H141836   3.009   1.082   2.778  1.0361  0.5841  0.4944
 6807TIP3    H241837   3.158   1.061   2.762  0.7496 -1.2645  0.1077
 6808TIP3   OH241838   4.063   4.909  14.715 -0.0920 -0.4314  0.0785
 6808TIP3    H141839   4.131   4.891  14.780 -1.0423 -0.1334  1.1682
 6808TIP3    H241840   4.045   5.003  14.725 -0.6660 -0.5104 -0.2134
 6809TIP3   OH241841   1.198   1.462   5.299 -0.6246 -0.5603  0.2329
 6809TIP3    H141842   1.253   1.449   5.375 -2.7980  1.5073  2.2558
 6809TIP3    H241843   1.130   1.395   5.307 -1.1622  0.0019  0.4387
 6810TIP3   OH241844   1.159   2.881  11.112  0.4700  0.5585 -0.2406
 6810TIP3    H141845   1.140   2.968  11.147 -1.4789 -0.3274  0.9768
 6810TIP3    H241846   1.181   2.828  11.189 -2.0961 -0.9546 -0.4816
 6811TIP3   OH241847   6.012   2.673  16.350  0.2968  0.1729  0.1444
 6811TIP3    H141848   6.018   2.740  16.418 -0.8213  0.4923 -0.0554
 6811TIP3    H241849   5.948   2.610  16.383 -0.0299  0.1723 -0.4825
 6812TIP3   OH241850   1.220   4.229  12.408 -0.0148  0.0509 -0.7301
 6812TIP3    H141851   1.248   4.201  12.321 -0.6913  0.8092 -1.2103
 6812TIP3    H241852   1.131   4.195  12.417  0.6391 -1.4275  0.3435
 6813TIP3   OH241853   2.025   1.981   6.917 -0.1262  0.4814  0.0632
 6813TIP3    H141854   2.083   1.904   6.920 -0.2634  0.4364  2.0382
 6813TIP3    H241855   1.956   1.956   6.856 -0.2801 -1.0685  0.8342
 6814TIP3   OH241856   0.150   3.573   1.098 -0.0192 -0.0307  0.3344
 6814TIP3    H141857   0.150   3.666   1.076 -1.3470  0.0830  0.7354
 6814TIP3    H241858   0.195   3.530   1.025 -2.5155  0.5485 -1.6104
 6815TIP3   OH241859   4.401   0.868  11.548  0.3758 -0.2754 -0.0787
 6815TIP3    H141860   4.447   0.924  11.486 -2.7000  4.6878  1.8143
 6815TIP3    H241861   4.460   0.861  11.623  0.9793 -0.0105 -0.5263
 6816TIP3   OH241862   1.860   3.419   2.651  0.4024  0.2304  0.1036
 6816TIP3    H141863   1.908   3.474   2.713 -0.7435  2.3740 -0.8526
 6816TIP3    H241864   1.927   3.364   2.610  1.3480 -0.2902  2.2706
 6817TIP3   OH241865   2.544   4.014   4.970  0.0896 -0.2782 -0.6305
 6817TIP3    H141866   2.602   4.083   4.940 -1.1306  0.8741 -0.4087
 6817TIP3    H241867   2.458   4.037   4.934 -0.6360 -0.8782  0.6361
 6818TIP3   OH241868   3.708   3.501  11.758  0.2907  0.2293 -0.1945
 6818TIP3    H141869   3.711   3.406  11.772 -1.4354 -0.1193 -1.9998
 6818TIP3    H241870   3.798   3.524  11.735  0.7158 -0.9706  0.2108
 6819TIP3   OH241871   0.419   0.884   1.574 -0.7469  0.5912 -0.0438
 6819TIP3    H141872   0.492   0.840   1.617 -1.0680  0.5808  0.4957
 6819TIP3    H241873   0.360   0.813   1.547 -1.4308  0.7126  1.1339
 6820TIP3   OH241874   4.680   1.554  12.469 -0.0102  0.0525  0.1797
 6820TIP3    H141875   4.763   1.548  12.421  0.5810  0.9123  1.0741
 6820TIP3    H241876   4.701   1.521  12.556 -0.9155 -0.8717  0.0536
 6821TIP3   OH241877   6.709   6.244   5.011 -0.0286  0.6249 -0.0210
 6821TIP3    H141878   6.761   6.291   5.077  0.3886 -0.8336  0.6958
 6821TIP3    H241879   6.723   6.293   4.930  2.5931  0.1751  0.1239
 6822TIP3   OH241880   0.597   3.187  11.952  0.5979  0.5392  0.0632
 6822TIP3    H141881   0.612   3.260  11.893  2.8170 -2.4507 -3.2842
 6822TIP3    H241882   0.676   3.183  12.006  0.7806  0.1547 -0.2366
 6823TIP3   OH241883   3.792   3.570   1.276  0.7321 -0.4184 -0.4088
 6823TIP3    H141884   3.816   3.533   1.361 -2.6796  1.1322  1.3138
 6823TIP3    H241885   3.730   3.508   1.239 -1.7212  1.3920  0.5792
 6824TIP3   OH241886   0.696   1.302   0.934 -0.7536  0.0848  0.5960
 6824TIP3    H141887   0.670   1.279   0.845  2.4145  0.0875 -0.3792
 6824TIP3    H241888   0.697   1.218   0.981  0.7487 -0.3815 -0.2470
 6825TIP3   OH241889   5.789   0.950  10.729 -0.1478 -0.0755 -0.2183
 6825TIP3    H141890   5.871   0.928  10.775  0.2196  0.9525 -0.3749
 6825TIP3    H241891   5.750   0.865  10.708 -0.6128 -0.5884  2.4982
 6826TIP3   OH241892   2.048   4.839   5.232 -0.3186 -0.0087 -0.2360
 6826TIP3    H141893   2.073   4.914   5.178 -0.0652 -0.5405 -0.8589
 6826TIP3    H241894   2.003   4.780   5.172 -2.2646  0.5150  0.6746
 6827TIP3   OH241895   6.282   1.603  13.262  0.5029 -0.0964 -0.4102
 6827TIP3    H141896   6.336   1.567  13.191  0.5573 -0.7534 -0.0383
 6827TIP3    H241897   6.313   1.559  13.341  0.0696  0.2291 -0.0549
 6828TIP3   OH241898   6.098   0.663  16.177 -0.0238  0.5096  0.7205
 6828TIP3    H141899   6.148   0.739  16.147  1.9022  0.0757  2.7032
 6828TIP3    H241900   6.011   0.675  16.139  2.1452  0.0711 -4.7075
 6829TIP3   OH241901   5.633   3.552   0.640  0.1517  0.1288 -0.2466
 6829TIP3    H141902   5.650   3.638   0.677 -0.7136  1.2159 -2.3273
 6829TIP3    H241903   5.562   3.566   0.577 -0.8779 -2.3277  0.3056
 6830TIP3   OH241904   1.886   3.617   4.955  0.4105  0.5214  0.4983
 6830TIP3    H141905   1.895   3.599   4.861 -1.1380 -1.7723  0.7430
 6830TIP3    H241906   1.802   3.578   4.979  0.8815  0.8930  2.8890
 6831TIP3   OH241907   4.829   0.535   5.321 -0.1121 -0.1485  0.6427
 6831TIP3    H141908   4.743   0.575   5.334 -0.8348 -1.1201 -0.9607
 6831TIP3    H241909   4.881   0.602   5.276 -0.3021  0.1384  0.8532
 6832TIP3   OH241910   6.653   1.212   0.340  0.1668  0.1240 -0.2209
 6832TIP3    H141911   6.642   1.130   0.388 -0.5087 -0.4934 -1.4156
 6832TIP3    H241912   6.664   1.278   0.409 -0.3916 -0.7990  0.7822
 6833TIP3   OH241913   4.067   5.500  11.260 -0.7940  0.3937  0.4587
 6833TIP3    H141914   4.101   5.523  11.173 -0.3253 -0.6043  0.3628
 6833TIP3    H241915   4.132   5.534  11.321 -1.6307  1.9931  0.4776
 6834TIP3   OH241916   2.013   4.585  11.944 -0.3653  0.0042  0.5332
 6834TIP3    H141917   2.012   4.573  12.039 -0.8732 -2.1162  0.2951
 6834TIP3    H241918   2.021   4.496  11.909  0.8026  0.8349 -1.3998
 6835TIP3   OH241919   1.659   6.739   6.115 -0.1268  0.4447  1.2365
 6835TIP3    H141920   1.673   6.656   6.161 -1.1843  0.0995  0.9522
 6835TIP3    H241921   1.681   6.806   6.180  0.4813 -0.0461  1.5506
 6836TIP3   OH241922   0.755   0.953  16.766 -0.5090  0.6205 -0.3407
 6836TIP3    H141923   0.703   0.973  16.844 -0.5314  0.2387 -0.2576
 6836TIP3    H241924   0.845   0.954  16.797 -0.5314  0.2693 -0.2688
 6837TIP3   OH241925   6.682   5.955   1.103 -0.0910  0.1437 -0.5022
 6837TIP3    H141926   6.606   5.912   1.142  0.2395 -0.2920 -0.3408
 6837TIP3    H241927   6.750   5.949   1.169  0.3748 -0.3159 -1.0201
 6838TIP3   OH241928   3.102   4.384   1.071  0.3823  0.2677 -0.1750
 6838TIP3    H141929   3.082   4.393   0.978  0.0879 -0.3936 -0.1771
 6838TIP3    H241930   3.085   4.471   1.108 -1.2384  0.0601 -0.4111
 6839TIP3   OH241931   4.564   0.362  11.453 -0.0103  0.1339 -0.3984
 6839TIP3    H141932   4.517   0.290  11.410  1.3948 -1.1760  0.2284
 6839TIP3    H241933   4.610   0.321  11.525 -0.2973  1.9166  0.8279
 6840TIP3   OH241934   0.525   5.987  13.343  0.0342 -0.1742  0.1686
 6840TIP3    H141935   0.527   5.935  13.424  1.2449  1.0357  0.9564
 6840TIP3    H241936   0.476   6.065  13.367  2.5244  1.3487  0.5080
 6841TIP3   OH241937   3.881   3.758  15.112 -0.1926 -0.0267 -0.4000
 6841TIP3    H141938   3.857   3.808  15.034  0.4536  0.0349 -0.5618
 6841TIP3    H241939   3.798   3.746  15.159 -0.0884  2.6996  0.5290
 6842TIP3   OH241940   3.820   5.126   5.107 -0.5038  0.8319 -0.4672
 6842TIP3    H141941   3.824   5.095   5.017  0.7586  1.5239 -0.6632
 6842TIP3    H241942   3.773   5.209   5.102 -2.0718 -0.0225 -0.2222
 6843TIP3   OH241943   5.138   3.474  13.989  0.6690 -0.4939 -0.2429
 6843TIP3    H141944   5.052   3.460  14.027  0.2403  3.5000  0.4722
 6843TIP3    H241945   5.197   3.482  14.064  0.7475  1.8701 -0.5157
 6844TIP3   OH241946   3.652   0.716   1.455 -0.5934  0.1217  0.2416
 6844TIP3    H141947   3.637   0.705   1.360 -1.3668 -0.5351  0.4265
 6844TIP3    H241948   3.653   0.810   1.468  1.9995  0.2664 -0.8000
 6845TIP3   OH241949   2.159   2.731   6.210 -0.4723 -0.1745  0.0619
 6845TIP3    H141950   2.160   2.699   6.119  1.0887  0.8687 -0.2980
 6845TIP3    H241951   2.250   2.728   6.238 -0.4820  2.4712  0.5349
 6846TIP3   OH241952   4.212   0.837  16.138 -0.1676 -0.4434  0.0357
 6846TIP3    H141953   4.129   0.877  16.110 -0.6781  1.0110  3.3302
 6846TIP3    H241954   4.279   0.882  16.088 -1.2915 -1.0696 -2.0851
 6847TIP3   OH241955   2.881   4.323   4.910  0.1131  0.6382 -0.7595
 6847TIP3    H141956   2.888   4.358   4.999  1.6910  0.9999 -1.0086
 6847TIP3    H241957   2.937   4.246   4.909  0.8216  1.1469 -1.6835
 6848TIP3   OH241958   5.219   0.827   0.566 -0.5156  0.0410  0.3808
 6848TIP3    H141959   5.270   0.828   0.647  0.9706  0.6839 -0.5498
 6848TIP3    H241960   5.129   0.843   0.595  0.4304  3.5814  1.6412
 6849TIP3   OH241961   5.712   5.004   2.405  0.2407 -0.0783 -0.5365
 6849TIP3    H141962   5.805   5.024   2.395  0.2665  0.7517  1.1021
 6849TIP3    H241963   5.669   5.089   2.402 -0.1655 -0.1757  1.4834
 6850TIP3   OH241964   1.000   0.486   4.758 -0.1627 -0.2573 -0.1497
 6850TIP3    H141965   0.987   0.427   4.832 -0.4976 -2.7613 -2.1493
 6850TIP3    H241966   1.063   0.441   4.702  1.6217  2.5064 -0.4899
 6851TIP3   OH241967   3.081   0.580  16.643 -0.3593 -0.3763 -0.2508
 6851TIP3    H141968   3.058   0.588  16.736 -0.6742 -0.3356 -0.3321
 6851TIP3    H241969   3.079   0.486  16.626  1.5105 -0.5252  0.2346
 6852TIP3   OH241970   0.354   3.443   0.072 -0.4387 -0.4019 -0.2921
 6852TIP3    H141971   0.401   3.444  -0.011 -0.5698 -0.5353 -0.3691
 6852TIP3    H241972   0.262   3.434   0.048 -0.5333  0.2042 -0.1539
 6853TIP3   OH241973   4.570   5.981   1.433 -0.1354 -0.3957 -0.1657
 6853TIP3    H141974   4.528   5.913   1.381 -0.3322 -0.6405  0.3048
 6853TIP3    H241975   4.592   5.937   1.515 -0.9833  0.3106  0.4487
 6854TIP3   OH241976   6.761   0.712  15.385  0.4267 -0.5930  0.4965
 6854TIP3    H141977   6.742   0.627  15.346 -0.1420 -0.3641  0.2674
 6854TIP3    H241978   6.740   0.701  15.478  0.1399 -0.6408  0.4283
 6855TIP3   OH241979   2.837   5.849   2.667  0.2590  0.0253  0.0036
 6855TIP3    H141980   2.748   5.837   2.634  0.1003 -3.1486  1.3505
 6855TIP3    H241981   2.892   5.794   2.610  0.6449 -1.6544  1.8967
 6856TIP3   OH241982   1.597   0.827  13.794 -0.1061  0.7890 -0.3127
 6856TIP3    H141983   1.549   0.905  13.768  0.9986  2.9549  3.6641
 6856TIP3    H241984   1.685   0.859  13.814  0.7894 -1.7465  0.0024
 6857TIP3   OH241985   1.598   3.554   4.972  0.8317 -0.0657  0.1911
 6857TIP3    H141986   1.521   3.601   5.006  0.6116 -0.6121  0.4556
 6857TIP3    H241987   1.589   3.559   4.877  0.5229 -0.0376  0.2199
 6858TIP3   OH241988   3.669   2.008   5.630  0.9308 -0.1244 -0.2653
 6858TIP3    H141989   3.671   2.103   5.625 -0.1727 -0.0754 -0.0629
 6858TIP3    H241990   3.582   1.984   5.596 -0.3013 -0.7899  3.1239
 6859TIP3   OH241991   0.258   1.548  11.024  0.0568  0.1653 -0.2389
 6859TIP3    H141992   0.213   1.465  11.032 -0.6378  0.7446  2.1500
 6859TIP3    H241993   0.318   1.551  11.099  0.9134  1.3074 -0.9387
 6860TIP3   OH241994   0.833   0.432  14.124  0.0870  0.1984 -0.1889
 6860TIP3    H141995   0.892   0.486  14.072 -0.4297  0.9757  0.0376
 6860TIP3    H241996   0.886   0.356  14.148  0.6382  0.3269 -0.9803
 6861TIP3   OH241997   6.212   1.008  15.535 -0.1310  0.0402  0.0421
 6861TIP3    H141998   6.157   1.080  15.502 -1.2466  0.2194  2.1674
 6861TIP3    H241999   6.185   0.932  15.483 -1.7574  0.3379  0.4045
 6862TIP3   OH242000   4.545   2.298   6.141 -0.4511  0.1119 -0.9038
 6862TIP3    H142001   4.619   2.348   6.105 -0.5696  1.7314  1.0537
 6862TIP3    H242002   4.499   2.360   6.197 -2.0526 -1.5218 -0.3721
 6863TIP3   OH242003   2.997   3.818  14.196  0.0637 -0.3035  0.1162
 6863TIP3    H142004   2.974   3.905  14.229  1.9176 -0.2620  1.3844
 6863TIP3    H242005   3.048   3.778  14.267 -0.3936 -2.2568 -0.6262
 6864TIP3   OH242006   5.977   5.401  12.130  0.2900  0.6344  0.2071
 6864TIP3    H142007   6.062   5.384  12.171 -0.1328  0.4158  1.0119
 6864TIP3    H242008   5.930   5.317  12.135 -0.6783  1.2315  1.4742
 6865TIP3   OH242009   1.393   3.744  13.274  0.2463  0.0368 -0.4382
 6865TIP3    H142010   1.332   3.671  13.259  0.5869 -0.4664  0.5517
 6865TIP3    H242011   1.351   3.797  13.342  1.9157 -1.5612  1.9352
 6866TIP3   OH242012   4.481   5.933   5.018 -0.5431 -0.3094 -0.1288
 6866TIP3    H142013   4.434   5.860   4.979 -0.4213 -0.5372  0.1445
 6866TIP3    H242014   4.444   5.942   5.106  0.3426 -0.8915  0.3128
 6867TIP3   OH242015   6.212   2.334  16.566  0.2492  0.1388  0.4415
 6867TIP3    H142016   6.194   2.369  16.653 -0.7104 -0.4392  0.4786
 6867TIP3    H242017   6.173   2.246  16.566 -0.9966  0.6674 -1.0336
 6868TIP3   OH242018   3.494   5.388   2.304 -0.5189 -0.3160  0.3458
 6868TIP3    H142019   3.560   5.456   2.294 -1.1728  0.4288  0.9243
 6868TIP3    H242020   3.512   5.326   2.234 -0.3692  0.8402 -0.6658
 6869TIP3   OH242021   6.450   4.774   2.776 -0.4219 -0.6207 -0.3154
 6869TIP3    H142022   6.406   4.710   2.720 -1.9153 -0.1243  0.2733
 6869TIP3    H242023   6.440   4.857   2.730 -1.2882 -0.2799  0.4818
 6870TIP3   OH242024   3.550   6.358  14.440 -0.2052 -0.0094 -0.2281
 6870TIP3    H142025   3.599   6.403  14.508 -0.4358  2.3468 -1.5796
 6870TIP3    H242026   3.460   6.391  14.448 -1.2769 -3.0292  1.1370
 6871TIP3   OH242027   0.987   4.595  13.951  0.0995  0.0258  0.1998
 6871TIP3    H142028   0.949   4.536  14.017  1.1541  0.5692  1.3011
 6871TIP3    H242029   1.080   4.575  13.951 -0.1573 -1.4305 -2.6395
 6872TIP3   OH242030   5.162   4.590   5.322 -0.3542 -0.5786 -0.1588
 6872TIP3    H142031   5.199   4.561   5.405 -1.1506 -0.9445  0.0752
 6872TIP3    H242032   5.069   4.606   5.341 -0.6030 -0.9227 -1.0263
 6873TIP3   OH242033   2.567   4.695  12.139  0.3465 -0.2200  0.3480
 6873TIP3    H142034   2.660   4.690  12.116  0.0846 -1.1539 -0.5624
 6873TIP3    H242035   2.530   4.756  12.075  0.2762 -0.1007  0.5043
 6874TIP3   OH242036   2.546   3.056  16.979  0.3172  0.0649 -0.0158
 6874TIP3    H142037   2.482   2.997  17.018 -1.3051  1.2600 -0.7956
 6874TIP3    H242038   2.573   3.113  17.051 -1.5594  1.3084 -0.2628
 6875TIP3   OH242039   3.562   3.919  14.317 -0.8761  0.6334 -0.2802
 6875TIP3    H142040   3.486   3.973  14.297  0.1420  1.4495 -2.1462
 6875TIP3    H242041   3.530   3.853  14.377 -2.7817  1.6788 -0.1090
 6876TIP3   OH242042   5.487   1.684  14.348  0.2460 -0.2874  0.0183
 6876TIP3    H142043   5.453   1.773  14.336 -0.9758 -1.0979 -2.9063
 6876TIP3    H242044   5.461   1.661  14.437 -1.5997  1.3894 -0.0387
 6877TIP3   OH242045   1.953   5.300   1.498 -0.2419  0.1161 -0.5277
 6877TIP3    H142046   1.929   5.256   1.580 -1.5996  1.7991  0.0068
 6877TIP3    H242047   1.999   5.379   1.525  1.2520 -0.4141 -1.4603
 6878TIP3   OH242048   3.827   0.520   0.965  0.2056  0.7314  0.2123
 6878TIP3    H142049   3.769   0.593   0.987  0.5066  1.3267 -0.9093
 6878TIP3    H242050   3.914   0.560   0.955 -0.0021  0.6417 -2.5586
 6879TIP3   OH242051   6.124   0.661   5.536  0.2141 -0.8388 -0.2345
 6879TIP3    H142052   6.042   0.677   5.582 -0.7629  1.4626 -2.6446
 6879TIP3    H242053   6.182   0.732   5.564 -0.4302  0.6589 -2.5119
 6880TIP3   OH242054   6.034   5.139   1.038 -0.0226 -0.2410  0.5237
 6880TIP3    H142055   6.101   5.202   1.064 -0.7927  0.8521 -0.1102
 6880TIP3    H242056   5.962   5.192   1.003 -0.0718 -1.5297 -1.4521
 6881TIP3   OH242057   4.336   1.823   1.913  0.6784  0.5927  0.2980
 6881TIP3    H142058   4.377   1.909   1.899 -0.0186  0.7885 -0.5797
 6881TIP3    H242059   4.320   1.790   1.824 -0.0088  0.0135  0.6379
 6882TIP3   OH242060   5.895   6.014  13.207  0.6314 -0.3042 -0.3318
 6882TIP3    H142061   5.973   5.997  13.154  1.8362 -1.8196  1.8454
 6882TIP3    H242062   5.822   6.014  13.144  2.0285 -1.7567 -1.9882
 6883TIP3   OH242063   1.539   1.021   1.091  0.3054  0.5986 -0.0083
 6883TIP3    H142064   1.528   0.934   1.053  2.0415  0.8179 -1.0856
 6883TIP3    H242065   1.529   1.007   1.186  1.1589 -0.8998 -0.1108
 6884TIP3   OH242066   3.493   1.284   3.597  0.6123  0.7072  0.9080
 6884TIP3    H142067   3.435   1.212   3.574  1.4768 -0.4090  2.1762
 6884TIP3    H242068   3.528   1.261   3.683  4.5433  0.3258 -0.6918
 6885TIP3   OH242069   5.740   1.039   2.186 -0.5227 -0.1534 -0.0189
 6885TIP3    H142070   5.681   1.112   2.202 -2.1781 -0.9078 -2.3357
 6885TIP3    H242071   5.683   0.962   2.185  0.7672 -1.1273 -0.4215
 6886TIP3   OH242072   6.150   4.894   5.698 -0.5895 -0.5707  0.9986
 6886TIP3    H142073   6.143   4.876   5.792 -0.3564 -0.1967  1.0885
 6886TIP3    H242074   6.213   4.965   5.692 -1.3810  0.1002  0.6317
 6887TIP3   OH242075   6.551   0.282  12.646 -0.5808  0.6869 -0.5096
 6887TIP3    H142076   6.632   0.232  12.658  0.0688  2.0691  1.2292
 6887TIP3    H242077   6.486   0.218  12.618  1.2750 -0.3348 -2.6651
 6888TIP3   OH242078   0.547   0.322   2.552  0.3929 -0.4078  0.1887
 6888TIP3    H142079   0.453   0.336   2.565  0.6386  0.3265  1.2789
 6888TIP3    H242080   0.561   0.339   2.458 -0.6620 -1.1624 -0.1089
 6889TIP3   OH242081   3.394   5.007  13.808  0.4267 -0.4287  0.2403
 6889TIP3    H142082   3.423   4.988  13.718  0.4070 -0.0231  0.1442
 6889TIP3    H242083   3.339   4.932  13.832  0.4194 -0.5327 -0.0943
 6890TIP3   OH242084   2.347   3.832  14.663  0.4570  0.0736 -0.6027
 6890TIP3    H142085   2.386   3.903  14.612 -0.4261  0.4409 -0.7694
 6890TIP3    H242086   2.265   3.868  14.696 -0.0273 -0.8877 -0.7335
 6891TIP3   OH242087   3.002   5.393   3.570  0.0545  0.6682 -0.2947
 6891TIP3    H142088   2.985   5.411   3.663 -0.2133  2.8591 -0.7467
 6891TIP3    H242089   2.918   5.365   3.535  0.1534 -0.1569  0.1114
 6892TIP3   OH242090   4.416   1.632   2.072  0.0848 -0.0984 -0.2371
 6892TIP3    H142091   4.415   1.704   2.010  1.3770 -0.1627 -0.3404
 6892TIP3    H242092   4.332   1.638   2.117  0.4469  1.8276  0.1891
 6893TIP3   OH242093   5.209   0.311  15.204  0.3542  0.5293  0.3866
 6893TIP3    H142094   5.235   0.391  15.159 -0.9967  1.0231  0.4753
 6893TIP3    H242095   5.157   0.263  15.139  0.8031 -0.0784  0.4743
 6894TIP3   OH242096   4.109   1.334   6.555 -0.2493  0.0487 -0.7399
 6894TIP3    H142097   4.149   1.247   6.553 -0.6467 -0.1463 -0.3423
 6894TIP3    H242098   4.120   1.364   6.646 -2.5137 -0.7295 -0.1701
 6895TIP3   OH242099   1.924   4.259  16.516 -0.6108  0.4795 -0.1539
 6895TIP3    H142100   1.943   4.349  16.489  0.5446  0.1006 -0.6172
 6895TIP3    H242101   1.992   4.207  16.474  1.1481 -0.1575  3.3312
 6896TIP3   OH242102   1.316   1.589  14.625  0.3042  0.0915 -0.6246
 6896TIP3    H142103   1.390   1.602  14.566 -0.1320 -1.4818 -1.5302
 6896TIP3    H242104   1.356   1.583  14.712  0.8992  3.0488 -0.6122
 6897TIP3   OH242105   5.749   1.250   2.910  0.0721 -0.3422 -0.0513
 6897TIP3    H142106   5.706   1.331   2.937  0.5361 -0.8413  2.3129
 6897TIP3    H242107   5.678   1.185   2.909 -0.2851  0.0459 -1.8676
 6898TIP3   OH242108   0.150   4.563  14.929  0.4533 -0.2811 -0.3278
 6898TIP3    H142109   0.186   4.476  14.948 -0.3481 -0.5594 -0.0578
 6898TIP3    H242110   0.096   4.583  15.005 -2.1056 -1.0307 -1.9069
 6899TIP3   OH242111   4.647   2.953   6.454  0.5667 -0.0533  0.6048
 6899TIP3    H142112   4.668   2.865   6.486  0.3034 -0.0413  0.8069
 6899TIP3    H242113   4.623   3.002   6.532  0.0351  0.0063  0.4077
 6900TIP3   OH242114   5.590   1.139  15.496 -0.2253 -0.8296  0.1048
 6900TIP3    H142115   5.566   1.075  15.429  0.8131 -0.8842 -0.2284
 6900TIP3    H242116   5.588   1.090  15.578 -0.0438 -1.1429 -0.0747
 6901TIP3   OH242117   6.252   5.406   5.249  0.3348  0.5794 -0.5177
 6901TIP3    H142118   6.321   5.473   5.252 -0.6193  1.5358  0.5171
 6901TIP3    H242119   6.198   5.425   5.325 -1.4351  0.2347 -1.6789
 6902TIP3   OH242120   2.628   3.816   5.922  0.1122 -0.0126  0.1297
 6902TIP3    H142121   2.596   3.731   5.953  3.2368 -1.1658  0.4514
 6902TIP3    H242122   2.631   3.871   6.001  0.2095 -0.3268  0.3472
 6903TIP3   OH242123   2.938   3.130   0.199  0.0633 -0.4993  0.2380
 6903TIP3    H142124   2.940   3.034   0.198 -0.1313 -0.5193  1.2978
 6903TIP3    H242125   2.844   3.151   0.193  0.2128 -0.3250 -2.1510
 6904TIP3   OH242126   4.015   6.165   4.620 -0.3600  1.1653  0.1884
 6904TIP3    H142127   4.016   6.160   4.716  1.6015 -2.7943  0.0385
 6904TIP3    H242128   4.106   6.177   4.596 -0.5620 -0.0403 -1.2510
 6905TIP3   OH242129   1.387   5.921   0.595 -0.1673  0.2471  0.0581
 6905TIP3    H142130   1.393   6.016   0.584  0.9368  0.1380 -0.2732
 6905TIP3    H242131   1.467   5.886   0.556 -1.4729 -0.9837 -1.6325
 6906TIP3   OH242132   2.488   0.217  13.330  0.1473 -0.5674 -0.3536
 6906TIP3    H142133   2.404   0.243  13.294  0.5198 -0.3195 -1.0669
 6906TIP3    H242134   2.475   0.128  13.362 -0.6287 -0.1989  0.3716
 6907TIP3   OH242135   1.388   2.691  15.465  0.1270 -0.0236  0.0054
 6907TIP3    H142136   1.366   2.769  15.517  2.0197  0.0984  0.6512
 6907TIP3    H242137   1.458   2.720  15.407  0.2406 -1.0311 -0.3674
 6908TIP3   OH242138   6.531   4.904   3.967  0.5673  0.2227 -0.0446
 6908TIP3    H142139   6.601   4.860   4.016  0.4912  1.9891  1.6971
 6908TIP3    H242140   6.469   4.931   4.034 -0.6808  0.6758 -1.3753
 6909TIP3   OH242141   4.853   0.524  12.518 -0.3171  0.0514 -0.4748
 6909TIP3    H142142   4.878   0.488  12.432 -0.5626 -1.2442 -0.0117
 6909TIP3    H242143   4.853   0.449  12.576 -0.1373  0.9396  0.6801
 6910TIP3   OH242144   3.649   5.024  15.668  0.3394 -0.5969 -0.1898
 6910TIP3    H142145   3.722   5.009  15.728  1.4731 -2.6299 -2.0065
 6910TIP3    H242146   3.650   4.948  15.609 -2.3119  0.0748 -1.2017
 6911TIP3   OH242147   4.587   5.776  13.761 -0.0798 -0.5103 -0.3709
 6911TIP3    H142148   4.593   5.681  13.767 -2.8126 -0.6199  1.4453
 6911TIP3    H242149   4.552   5.792  13.673 -1.2084 -1.2952 -0.0818
 6912TIP3   OH242150   4.946   1.403  15.919 -0.0198  0.7835 -0.3457
 6912TIP3    H142151   5.021   1.461  15.932  0.7035 -0.5339  1.5551
 6912TIP3    H242152   4.985   1.318  15.899 -1.0316  0.3335 -0.4303
 6913TIP3   OH242153   5.544   2.133  17.150 -0.1292 -0.6439  0.3035
 6913TIP3    H142154   5.448   2.128  17.145 -0.2101 -1.1904  1.9128
 6913TIP3    H242155   5.568   2.203  17.090 -1.7404  1.1461  1.6799
 6914TIP3   OH242156   3.532   6.029  11.222  0.1004  0.0049 -0.1452
 6914TIP3    H142157   3.533   5.947  11.271  0.8583  0.4132  0.5394
 6914TIP3    H242158   3.531   6.097  11.289 -0.5441  0.5574 -0.7089
 6915TIP3   OH242159   6.473   5.767  15.661  0.1272 -0.2171 -0.0512
 6915TIP3    H142160   6.515   5.712  15.726 -3.4598 -2.7398  0.2605
 6915TIP3    H242161   6.494   5.726  15.577  1.1207  0.5417 -0.1902
 6916TIP3   OH242162   5.844   6.316  16.171  0.0048 -0.5315 -0.2236
 6916TIP3    H142163   5.882   6.322  16.084  0.3865 -0.3307 -0.0414
 6916TIP3    H242164   5.851   6.223  16.194 -0.8033 -0.7216 -0.7242
 6917TIP3   OH242165   1.928   2.148  12.898 -0.4123 -0.5882 -0.2583
 6917TIP3    H142166   1.945   2.203  12.975  1.7031  0.6897 -1.5790
 6917TIP3    H242167   1.853   2.189  12.856 -1.4623 -1.1837  1.0250
 6918TIP3   OH242168   3.993   6.617   2.557  0.0470 -0.4596  0.4968
 6918TIP3    H142169   3.965   6.573   2.476  0.0876 -0.0530  0.2606
 6918TIP3    H242170   4.071   6.667   2.532  0.8356 -1.3715  1.0946
 6919TIP3   OH242171   1.742   2.539  13.386 -0.0363 -1.0870 -0.6239
 6919TIP3    H142172   1.792   2.574  13.313  1.7638  1.8867  1.9086
 6919TIP3    H242173   1.788   2.459  13.412  0.7981 -0.7730 -1.1467
 6920TIP3   OH242174   1.237   4.621   0.432 -0.3530  0.1632 -0.4509
 6920TIP3    H142175   1.220   4.527   0.438  1.2823 -0.0671  1.1314
 6920TIP3    H242176   1.187   4.659   0.504 -1.2024  0.5412 -1.2372
 6921TIP3   OH242177   3.967   2.934  14.648 -0.0794 -0.3649  0.3152
 6921TIP3    H142178   4.007   2.926  14.735  0.3436 -0.7831  0.0907
 6921TIP3    H242179   3.990   3.022  14.619 -0.9029  0.0629  0.9566
 6922TIP3   OH242180   4.757   6.080  12.036  0.2077  0.3909 -0.0929
 6922TIP3    H142181   4.747   6.057  11.944  0.2701  1.6743 -0.4351
 6922TIP3    H242182   4.777   6.174  12.035  0.5521  0.3430  1.2076
 6923TIP3   OH242183   5.568   4.928  14.904 -0.0488  0.5021  0.4086
 6923TIP3    H142184   5.575   4.943  14.810 -0.7687 -1.1233  0.0862
 6923TIP3    H242185   5.560   5.016  14.942 -2.0363  1.0658 -1.2385
 6924TIP3   OH242186   4.173   2.571  12.779 -0.2043 -0.1348  0.1196
 6924TIP3    H142187   4.236   2.504  12.806 -0.1225 -0.1952 -0.2211
 6924TIP3    H242188   4.106   2.523  12.731 -0.7031 -0.1219  0.7898
 6925TIP3   OH242189   1.305   5.545   1.754  0.0264  0.1779  0.0915
 6925TIP3    H142190   1.236   5.584   1.701  0.1446  0.7191  0.3284
 6925TIP3    H242191   1.259   5.503   1.827  0.0003  1.2938  0.7225
 6926TIP3   OH242192   2.040   1.580   4.023  0.2145  0.0593 -0.2634
 6926TIP3    H142193   2.087   1.636   4.084 -1.4600 -0.2439  1.3507
 6926TIP3    H242194   1.983   1.640   3.974  0.9651  0.1986 -0.9733
 6927TIP3   OH242195   1.337   2.959  16.561 -0.3111 -0.0982  0.4023
 6927TIP3    H142196   1.319   2.892  16.495  0.0057  0.0867  0.1281
 6927TIP3    H242197   1.268   2.947  16.627  0.6094 -1.6580  1.1050
 6928TIP3   OH242198   5.328   4.396   3.691 -0.0991  0.0014  0.2570
 6928TIP3    H142199   5.255   4.456   3.673 -2.1484 -2.2687  0.8353
 6928TIP3    H242200   5.346   4.354   3.607 -0.2492 -0.3178  0.3852
 6929TIP3   OH242201   2.344   0.973  14.698  0.4258  0.0549  0.3438
 6929TIP3    H142202   2.400   1.019  14.760  0.5707 -0.6580  0.7492
 6929TIP3    H242203   2.262   0.959  14.745  0.1457  0.4875 -0.0135
 6930TIP3   OH242204   2.302   6.422  14.591  0.3373  0.2612 -0.3412
 6930TIP3    H142205   2.318   6.455  14.679 -0.3868  0.4773 -0.2883
 6930TIP3    H242206   2.373   6.360  14.576 -0.1642 -0.6262  0.8400
 6931TIP3   OH242207   6.546   1.014  13.684 -0.3094  0.3143  0.0447
 6931TIP3    H142208   6.563   0.923  13.711  0.5588  0.7708  1.0583
 6931TIP3    H242209   6.624   1.062  13.710 -0.9366  1.4416 -0.1259
 6932TIP3   OH242210   0.845   0.450  15.034 -0.0040 -0.0339  0.0118
 6932TIP3    H142211   0.856   0.384  14.965  0.7134 -0.7446  0.8015
 6932TIP3    H242212   0.779   0.510  14.999  2.2225  1.1031 -2.4114
 6933TIP3   OH242213   0.267   5.596  17.020  0.3053  0.3191 -0.0858
 6933TIP3    H142214   0.182   5.623  17.054 -0.0384  0.4392 -1.0210
 6933TIP3    H242215   0.251   5.578  16.927  1.0042 -0.9534  0.0220
 6934TIP3   OH242216   4.202   1.033  12.294 -0.5839 -0.2622 -0.5843
 6934TIP3    H142217   4.125   1.006  12.244 -1.0067 -1.8535  0.8778
 6934TIP3    H242218   4.167   1.093  12.361 -0.5023 -0.6689 -0.1744
 6935TIP3   OH242219   5.206   5.652  14.983 -0.3742 -0.3017 -0.5561
 6935TIP3    H142220   5.157   5.668  14.903 -0.0798  1.1222 -0.4547
 6935TIP3    H242221   5.205   5.735  15.030 -1.0193 -1.2600  1.1984
 6936TIP3   OH242222   1.792   5.434  15.727  1.2408  0.0371  0.0987
 6936TIP3    H142223   1.757   5.523  15.728  0.5879 -0.2173 -0.0202
 6936TIP3    H242224   1.886   5.445  15.714  1.2813  0.7451  0.9718
 6937TIP3   OH242225   0.187   1.323   2.035  0.4782 -0.1003  0.1878
 6937TIP3    H142226   0.129   1.290   2.103 -0.2720 -0.0295 -0.4175
 6937TIP3    H242227   0.137   1.316   1.954  2.2817 -2.6636 -0.7974
 6938TIP3   OH242228   0.492   3.323  14.116  0.2696 -0.5889  0.1123
 6938TIP3    H142229   0.425   3.259  14.091 -1.1987  1.3714 -1.1098
 6938TIP3    H242230   0.443   3.394  14.159  1.7213  0.2449  0.4215
 6939TIP3   OH242231   4.449   0.581  11.368  0.1993 -0.1246  0.0354
 6939TIP3    H142232   4.475   0.646  11.433  0.8002  1.1259 -1.4352
 6939TIP3    H242233   4.493   0.501  11.395  1.0603  0.5755  0.7436
 6940TIP3   OH242234   1.384   5.648   6.269  0.1322 -0.1777 -0.1938
 6940TIP3    H142235   1.339   5.717   6.318  1.6149 -0.1351  1.1554
 6940TIP3    H242236   1.477   5.659   6.292  0.7180 -0.9708 -2.0258
 6941TIP3   OH242237   4.105   1.778   1.011  0.1606  0.0570  0.1098
 6941TIP3    H142238   4.143   1.851   0.962 -0.2701  0.0844 -0.1866
 6941TIP3    H242239   4.144   1.785   1.098  1.0404 -0.0800 -0.2678
 6942TIP3   OH242240   0.314   2.132  13.387  0.0452  0.1254 -0.0421
 6942TIP3    H142241   0.335   2.058  13.443 -0.3422 -0.4447 -0.6530
 6942TIP3    H242242   0.399   2.163  13.355  0.3702  1.1874  1.7718
 6943TIP3   OH242243   0.650   0.251   5.725 -0.2380 -0.0833 -0.0566
 6943TIP3    H142244   0.586   0.321   5.713  1.4932  1.4246 -0.5956
 6943TIP3    H242245   0.596   0.173   5.743 -2.1586  1.5340  1.4932
 6944TIP3   OH242246   4.406   0.623   0.542  0.4841 -0.2035  0.1453
 6944TIP3    H142247   4.466   0.570   0.594  0.5545  0.9446  1.2612
 6944TIP3    H242248   4.319   0.587   0.562  0.1574  2.3046  3.6897
 6945TIP3   OH242249   6.196   2.600  14.638 -0.0500 -0.8570  0.7870
 6945TIP3    H142250   6.242   2.669  14.685  1.5987 -0.0820 -1.8308
 6945TIP3    H242251   6.243   2.520  14.659  2.2092 -0.1674 -1.3481
 6946TIP3   OH242252   4.704   0.021   5.080  0.4440  0.4782  0.1573
 6946TIP3    H142253   4.795   0.045   5.060  0.6813 -0.6910 -0.1820
 6946TIP3    H242254   4.674  -0.026   5.003  0.3870 -1.3771  1.2983
 6947TIP3   OH242255   5.716   5.883   2.135  0.0895  0.0699  0.1065
 6947TIP3    H142256   5.727   5.917   2.223 -1.0302  1.3565 -0.2195
 6947TIP3    H242257   5.704   5.961   2.081 -3.8687 -0.8540 -0.4879
 6948TIP3   OH242258   6.552   0.753  13.460 -0.2397  0.2099 -0.0844
 6948TIP3    H142259   6.577   0.660  13.461 -1.0536 -0.0292 -0.6824
 6948TIP3    H242260   6.515   0.769  13.546 -0.7624 -0.2243 -0.2197
 6949TIP3   OH242261   0.799   6.605   4.127  0.1465 -0.1239 -0.6862
 6949TIP3    H142262   0.819   6.513   4.108  2.8278  0.7891 -2.6458
 6949TIP3    H242263   0.789   6.645   4.041  0.4571  1.7252  0.1134
 6950TIP3   OH242264   3.907   5.487  10.995  0.5786  0.2086  0.0929
 6950TIP3    H142265   3.835   5.548  11.013  0.9745  0.6380  0.2375
 6950TIP3    H242266   3.894   5.415  11.057 -0.9145 -0.7222 -1.2759
 6951TIP3   OH242267   4.599   5.044   2.260 -0.2201  0.0402  0.5275
 6951TIP3    H142268   4.536   5.004   2.200  1.8558 -0.5772 -1.3378
 6951TIP3    H242269   4.666   5.080   2.202  1.8807 -0.6206  2.4943
 6952TIP3   OH242270   1.202   5.056  14.819 -0.4474  0.7650 -0.0275
 6952TIP3    H142271   1.199   4.977  14.872 -2.1867 -1.6931 -3.5902
 6952TIP3    H242272   1.145   5.118  14.864 -2.5874 -1.5640  0.5621
 6953TIP3   OH242273   3.732   5.419   2.028 -0.3029  0.3704  0.1631
 6953TIP3    H142274   3.824   5.393   2.037  0.1752  3.2734  5.1664
 6953TIP3    H242275   3.682   5.343   2.059  0.4602 -0.1562  0.1154
 6954TIP3   OH242276   4.159   4.194  13.727 -0.1648  0.3087  0.0428
 6954TIP3    H142277   4.159   4.185  13.822  0.2803 -0.9558 -0.0584
 6954TIP3    H242278   4.238   4.149  13.698  1.3135  3.3324 -0.7311
 6955TIP3   OH242279   6.026   0.834   1.728  0.4190 -0.0341  0.6949
 6955TIP3    H142280   6.045   0.906   1.788 -2.1262 -0.8188  2.5322
 6955TIP3    H242281   6.112   0.799   1.704  1.5672  1.7098  2.1312
 6956TIP3   OH242282   4.311   0.867   4.610  0.5494  0.4321 -0.2710
 6956TIP3    H142283   4.313   0.790   4.666 -1.0477 -0.4927 -1.4442
 6956TIP3    H242284   4.400   0.876   4.577  0.2133 -2.3148 -2.0065
 6957TIP3   OH242285   5.610   3.788   1.281 -0.5920  0.2164  0.7503
 6957TIP3    H142286   5.605   3.882   1.302 -1.0992 -0.2030  2.5749
 6957TIP3    H242287   5.519   3.757   1.290 -0.1024 -0.8526  2.1145
 6958TIP3   OH242288   6.386   3.614  10.507  0.0579 -0.6186 -0.2645
 6958TIP3    H142289   6.442   3.692  10.502  0.4557 -0.9360 -0.8063
 6958TIP3    H242290   6.301   3.648  10.536  0.7205 -0.2268  1.2946
 6959TIP3   OH242291   3.770   0.477  11.406 -0.4174 -0.0714 -0.3061
 6959TIP3    H142292   3.685   0.513  11.429  0.2356  1.8344 -0.7676
 6959TIP3    H242293   3.814   0.547  11.358  1.5046 -0.9327  0.1306
 6960TIP3   OH242294   1.768   0.036  15.352 -0.1280  0.0018  0.3687
 6960TIP3    H142295   1.821   0.113  15.331  0.9052 -0.7811  0.1468
 6960TIP3    H242296   1.702   0.034  15.283  0.2606  0.2866 -0.0172
 6961TIP3   OH242297   3.828   5.920   3.207 -0.1017 -0.3322  0.5807
 6961TIP3    H142298   3.902   5.866   3.179 -1.0211 -1.1332 -0.3375
 6961TIP3    H242299   3.856   6.009   3.189  1.5561 -0.4473  2.3910
 6962TIP3   OH242300   1.935   1.949   1.511 -0.5771  0.1159  0.1703
 6962TIP3    H142301   1.934   1.856   1.534 -2.8079 -0.2698 -1.2996
 6962TIP3    H242302   1.865   1.987   1.564  0.2414  0.9469  0.6644
 6963TIP3   OH242303   1.341   3.142  11.933  0.3701  0.1441 -0.3511
 6963TIP3    H142304   1.260   3.185  11.959  2.3199  1.5286  3.7294
 6963TIP3    H242305   1.369   3.190  11.854 -1.1582  1.6999  0.0189
 6964TIP3   OH242306   5.405   1.933  15.528 -0.4195  0.3248 -0.2210
 6964TIP3    H142307   5.472   1.998  15.551 -1.9200  1.1633  1.9514
 6964TIP3    H242308   5.345   1.980  15.470 -0.9352  0.6108  0.5242
 6965TIP3   OH242309   5.816   5.853   6.288  0.1301  0.0118  0.1810
 6965TIP3    H142310   5.779   5.858   6.376 -2.3595  0.8404 -0.8724
 6965TIP3    H242311   5.898   5.804   6.299  0.2125  0.7240  3.0384
 6966TIP3   OH242312   2.173   1.791  15.962  0.2566 -0.6040 -0.0654
 6966TIP3    H142313   2.167   1.769  16.055 -1.0065 -1.2391 -0.2700
 6966TIP3    H242314   2.220   1.874  15.959  0.6620 -0.7854  1.1122
 6967TIP3   OH242315   5.666   3.418  16.595 -0.1331  0.4273 -0.0887
 6967TIP3    H142316   5.633   3.349  16.537  0.2970  0.6451 -0.5941
 6967TIP3    H242317   5.700   3.371  16.671 -0.4121  0.1179 -0.1535
 6968TIP3   OH242318   1.755   3.529  11.537 -0.2306  0.1419  0.5466
 6968TIP3    H142319   1.822   3.474  11.577  0.1334  0.4054  0.3004
 6968TIP3    H242320   1.714   3.575  11.610 -2.4432 -2.5081  1.0938
 6969TIP3   OH242321   1.768   4.550  13.002  0.4279 -0.3184 -0.7274
 6969TIP3    H142322   1.749   4.456  13.008  0.0893 -0.2020  0.1952
 6969TIP3    H242323   1.702   4.584  12.941  0.8777 -0.7687 -1.4618
 6970TIP3   OH242324   3.165   0.874  15.452  0.0911  0.7012  0.8693
 6970TIP3    H142325   3.220   0.816  15.399 -1.2701  0.9067 -0.8248
 6970TIP3    H242326   3.126   0.817  15.518 -1.0219 -0.2793 -0.6181
 6971TIP3   OH242327   4.371   2.174  14.371 -0.6029 -0.0485 -0.0836
 6971TIP3    H142328   4.296   2.233  14.384  0.5334  1.0784  1.6255
 6971TIP3    H242329   4.378   2.126  14.454  0.1617 -0.6438 -0.4854
 6972TIP3   OH242330   3.689   0.763   1.044  0.0617  0.0333 -0.1122
 6972TIP3    H142331   3.710   0.837   0.987 -0.3122 -0.6613 -1.1620
 6972TIP3    H242332   3.608   0.789   1.088 -0.4177  0.0012 -0.9517
 6973TIP3   OH242333   2.293   4.269   2.670 -0.1125  0.0067 -0.1386
 6973TIP3    H142334   2.219   4.292   2.613 -0.9276  0.0533  0.9364
 6973TIP3    H242335   2.353   4.343   2.661 -0.3468  0.1273 -0.7509
 6974TIP3   OH242336   4.540   0.349   2.254 -0.3173 -0.4403  0.1422
 6974TIP3    H142337   4.533   0.304   2.169  1.3545 -0.5572  0.0549
 6974TIP3    H242338   4.602   0.297   2.304 -0.1547  0.4685  0.9036
 6975TIP3   OH242339   0.537   2.074   3.874  0.6488  0.5118 -0.1252
 6975TIP3    H142340   0.512   1.986   3.902 -1.2876  0.5866 -1.5067
 6975TIP3    H242341   0.491   2.133   3.934  1.8218  0.6138  0.7012
 6976TIP3   OH242342   2.259   4.996  11.732  0.1610  0.6641  0.7784
 6976TIP3    H142343   2.215   4.933  11.789 -0.5920 -0.9107 -1.4977
 6976TIP3    H242344   2.201   5.072  11.730 -1.4072 -0.5598 -0.4970
 6977TIP3   OH242345   3.885   2.335  16.296  0.5442  0.3722  0.3780
 6977TIP3    H142346   3.939   2.256  16.300 -0.1565 -0.0860  1.0113
 6977TIP3    H242347   3.885   2.369  16.385 -0.2893  0.3077  0.4100
 6978TIP3   OH242348   5.374   6.683   5.541 -0.6038 -0.4667 -0.0699
 6978TIP3    H142349   5.287   6.642   5.544 -0.1933 -1.5124 -1.6458
 6978TIP3    H242350   5.364   6.755   5.478 -0.4811 -0.2130  0.2004
 6979TIP3   OH242351   2.699   3.298  13.696  0.6433  0.2335 -0.2373
 6979TIP3    H142352   2.750   3.227  13.734  0.0195 -0.1021 -0.0320
 6979TIP3    H242353   2.746   3.377  13.721  1.0831 -0.0754 -0.0791
 6980TIP3   OH242354   0.757   4.635  15.094  0.9929 -0.1942  0.3789
 6980TIP3    H142355   0.804   4.653  15.012  1.0881  0.1756  0.5116
 6980TIP3    H242356   0.809   4.567  15.137  0.3787 -1.1351 -0.3433
 6981TIP3   OH242357   2.027   3.939   2.021  0.1152 -0.0874  0.4326
 6981TIP3    H142358   1.951   3.943   2.078  0.0392 -0.3724  0.3522
 6981TIP3    H242359   2.084   4.009   2.052 -0.5605  0.6864 -0.0674
 6982TIP3   OH242360   4.818   2.821  17.192 -0.0345 -0.7268 -0.1195
 6982TIP3    H142361   4.753   2.843  17.125  0.9147 -1.6659 -1.3751
 6982TIP3    H242362   4.805   2.727  17.208  0.9703 -0.9126 -0.3496
 6983TIP3   OH242363   2.331   1.688  11.600  0.5044 -0.2644 -1.0856
 6983TIP3    H142364   2.324   1.593  11.593  1.2123 -0.3038 -1.2977
 6983TIP3    H242365   2.298   1.721  11.516 -1.0099 -0.2509 -0.5104
 6984TIP3   OH242366   3.334   3.147  12.763  0.3212  0.2640 -0.0235
 6984TIP3    H142367   3.243   3.170  12.783 -0.0114  0.3783 -1.6037
 6984TIP3    H242368   3.336   3.138  12.667  2.0402  0.5566 -0.0259
 6985TIP3   OH242369   0.111   1.313  14.180  0.1252  0.2812 -0.1541
 6985TIP3    H142370   0.126   1.264  14.261  0.2932 -0.1274 -0.4302
 6985TIP3    H242371   0.119   1.405  14.205 -2.8072  0.2704  0.9109
 6986TIP3   OH242372   1.969   5.421   1.101 -0.5147  0.5994 -0.1334
 6986TIP3    H142373   2.057   5.384   1.106 -0.4647  0.7055 -0.2256
 6986TIP3    H242374   1.975   5.505   1.148 -0.8106  0.1507  0.7129
 6987TIP3   OH242375   6.603   0.004  11.495  0.4537 -0.0461 -0.5619
 6987TIP3    H142376   6.652  -0.076  11.515 -0.0313  0.1367  1.5201
 6987TIP3    H242377   6.536   0.009  11.563 -2.0214  0.1098 -2.9124
 6988TIP3   OH242378   2.593   3.939   4.461 -0.3149 -0.1755  0.2704
 6988TIP3    H142379   2.657   3.939   4.390 -1.7715 -1.8399 -1.0685
 6988TIP3    H242380   2.642   3.909   4.538  0.5535 -1.2110 -0.6871
 6989TIP3   OH242381   1.238   2.528  15.337 -0.1741 -0.6806  0.3016
 6989TIP3    H142382   1.292   2.585  15.393 -0.5182 -0.6541  0.6075
 6989TIP3    H242383   1.150   2.564  15.345 -0.0567 -0.1018 -1.0036
 6990TIP3   OH242384   2.591   3.027  11.356  0.0116  0.0818  0.0490
 6990TIP3    H142385   2.550   3.074  11.283 -0.2651  0.3206  0.3580
 6990TIP3    H242386   2.528   2.960  11.380 -0.2762  0.5641  0.6415
 6991TIP3   OH242387   5.455   2.446   1.444  0.1196 -0.2055 -0.1039
 6991TIP3    H142388   5.503   2.522   1.477 -1.2114  1.4466 -1.8420
 6991TIP3    H242389   5.364   2.474   1.444 -0.3932 -1.8398 -0.7197
 6992TIP3   OH242390   5.530   0.052   0.870  0.2105  0.0804 -0.0530
 6992TIP3    H142391   5.560   0.140   0.893 -0.3698  0.5089 -0.9035
 6992TIP3    H242392   5.528   0.005   0.954  0.6830  0.8244  0.3835
 6993TIP3   OH242393   0.118   5.869   2.846 -0.3283  0.0862 -0.4960
 6993TIP3    H142394   0.085   5.901   2.930 -0.4806  0.5117 -0.7164
 6993TIP3    H242395   0.078   5.927   2.781  0.5972  0.4146 -0.7848
 6994TIP3   OH242396   5.830   2.994   3.352 -0.1950  0.4161 -0.1475
 6994TIP3    H142397   5.777   3.061   3.309 -2.3924 -0.4686  1.1135
 6994TIP3    H242398   5.848   3.029   3.439 -0.7547 -0.3426  0.2702
 6995TIP3   OH242399   2.779   6.702   0.730  0.1410 -0.1731  0.1118
 6995TIP3    H142400   2.706   6.742   0.681  1.6394  2.0683 -0.3676
 6995TIP3    H242401   2.816   6.638   0.670  0.7994  1.2503 -1.0479
 6996TIP3   OH242402   4.825   6.601   2.471  0.0251 -0.0105 -0.7387
 6996TIP3    H142403   4.869   6.616   2.555  1.9432  0.3131 -1.7593
 6996TIP3    H242404   4.839   6.508   2.453  0.4851  0.1381 -1.1618
 6997TIP3   OH242405   0.654   1.051   5.983  0.1830 -0.3403 -0.1776
 6997TIP3    H142406   0.629   1.130   5.934  1.1888  0.7170  0.9863
 6997TIP3    H242407   0.742   1.031   5.951 -0.8680 -2.2600 -2.0151
 6998TIP3   OH242408   5.967   4.965  11.392 -0.1553  0.1706  0.6336
 6998TIP3    H142409   6.018   4.884  11.388 -0.3353  0.1084 -0.8832
 6998TIP3    H242410   5.891   4.943  11.447 -0.6266 -0.9502 -0.4386
 6999TIP3   OH242411   3.884   1.903  15.312  0.3049  0.2252  0.1718
 6999TIP3    H142412   3.962   1.888  15.367 -0.1008  0.9701  0.9608
 6999TIP3    H242413   3.811   1.904  15.373 -0.2147  0.5579 -0.4468
 7000TIP3   OH242414   4.527   3.488   3.888 -0.2974  0.0834  0.1376
 7000TIP3    H142415   4.529   3.430   3.812  2.8775 -0.0884  0.2540
 7000TIP3    H242416   4.502   3.432   3.961  1.3234 -0.8483 -0.0053
 7001TIP3   OH242417   4.278   3.520   3.295  0.3218  0.0250 -0.8794
 7001TIP3    H142418   4.264   3.603   3.342 -1.3403 -0.9508  0.4162
 7001TIP3    H242419   4.239   3.534   3.209 -2.7398 -0.3757  0.3719
 7002TIP3   OH242420   4.236   6.704   1.238 -0.4070  0.0587  0.7035
 7002TIP3    H142421   4.197   6.637   1.294 -2.4841  0.0354 -0.7317
 7002TIP3    H242422   4.224   6.671   1.149  1.5493  0.7907  0.1462
 7003TIP3   OH242423   2.200   1.605  16.755  0.1494  0.2211 -0.3651
 7003TIP3    H142424   2.167   1.691  16.779 -0.3210 -0.0345 -0.0905
 7003TIP3    H242425   2.295   1.613  16.760  0.0716  0.4033  0.7449
 7004TIP3   OH242426   2.854   5.138   4.093  0.0228 -0.3217  0.0249
 7004TIP3    H142427   2.800   5.110   4.166 -0.0877 -0.5623 -0.1510
 7004TIP3    H242428   2.891   5.222   4.122  1.6144 -1.3939  1.1882
 7005TIP3   OH242429   2.797   5.025   5.487  0.2625 -0.3903 -0.5542
 7005TIP3    H142430   2.892   5.018   5.493  0.3611  0.7855 -0.5972
 7005TIP3    H242431   2.773   4.976   5.408  0.9381  0.1673 -1.1054
 7006TIP3   OH242432   0.204   0.415  15.221  0.1116 -0.5531  0.0710
 7006TIP3    H142433   0.114   0.445  15.234 -0.5841 -2.9303  0.8762
 7006TIP3    H242434   0.253   0.451  15.295 -0.5923 -0.8979  0.7097
 7007TIP3   OH242435   5.083   2.435   2.951  0.4755 -0.7101 -0.4599
 7007TIP3    H142436   5.126   2.368   3.005  0.1404 -0.2329  0.3920
 7007TIP3    H242437   4.995   2.401   2.937  0.3579 -0.5137 -0.1696
 7008TIP3   OH242438   5.160   1.643   3.531 -0.1343 -1.0686 -0.4620
 7008TIP3    H142439   5.095   1.699   3.491 -0.9416 -1.4182  0.3313
 7008TIP3    H242440   5.130   1.554   3.512 -0.8597 -1.2541  1.3582
 7009TIP3   OH242441   0.500   1.766   2.421  0.0489 -0.4325 -0.3157
 7009TIP3    H142442   0.542   1.688   2.456 -0.9309 -0.6170  0.4523
 7009TIP3    H242443   0.443   1.734   2.350  0.2618 -0.3198 -0.5402
 7010TIP3   OH242444   1.396   1.281  16.791 -0.8518  0.3842  0.2886
 7010TIP3    H142445   1.423   1.215  16.854 -0.7912  0.1247 -0.0070
 7010TIP3    H242446   1.306   1.303  16.816 -0.4174  1.1608  1.1981
 7011TIP3   OH242447   6.434   1.802  12.133 -0.5905  0.2124  0.4450
 7011TIP3    H142448   6.401   1.760  12.054  0.6848  1.5862 -0.8414
 7011TIP3    H242449   6.412   1.741  12.203 -1.0132 -1.4160 -1.0630
 7012TIP3   OH242450   2.252   0.699  15.155 -0.3322 -0.2049 -0.3718
 7012TIP3    H142451   2.324   0.762  15.159  0.7540 -1.4751  0.4263
 7012TIP3    H242452   2.248   0.674  15.063  0.7113 -0.6467 -0.3059
 7013TIP3   OH242453   5.175   4.735   6.227 -0.3515  0.6249  0.5441
 7013TIP3    H142454   5.090   4.693   6.211  0.0491  0.0242 -0.0152
 7013TIP3    H242455   5.229   4.665   6.265  0.0085  0.9059  0.5469
 7014TIP3   OH242456   6.564   3.017   4.987  0.2002 -0.2453  0.2070
 7014TIP3    H142457   6.592   2.929   4.966 -1.6994 -0.9641  0.5960
 7014TIP3    H242458   6.609   3.038   5.069  1.1576 -0.5819 -0.2283
 7015TIP3   OH242459   6.098   4.942   1.814  0.7325  0.5447 -0.2800
 7015TIP3    H142460   6.081   4.903   1.900  2.1957  0.5452  0.0146
 7015TIP3    H242461   6.023   4.999   1.798 -0.6385 -1.1214  0.0103
 7016TIP3   OH242462   0.743   3.831  15.666 -0.0145 -0.3176 -0.1969
 7016TIP3    H142463   0.744   3.771  15.591 -0.5122  1.0601 -1.3325
 7016TIP3    H242464   0.674   3.797  15.723 -0.7263 -0.4472 -1.1318
 7017TIP3   OH242465   3.925   6.267   6.508 -0.4974 -0.4942  0.2438
 7017TIP3    H142466   4.000   6.223   6.468  0.8779  1.4037  0.6177
 7017TIP3    H242467   3.900   6.334   6.444 -2.4220 -1.6531 -0.2409
 7018TIP3   OH242468   2.824   1.542  12.763 -0.7018 -0.0835 -0.3681
 7018TIP3    H142469   2.887   1.502  12.703 -0.5065  1.2163 -1.0281
 7018TIP3    H242470   2.786   1.614  12.714 -1.0221  0.5920  0.8520
 7019TIP3   OH242471   0.880   2.846   1.347 -0.5910 -0.4029  0.0997
 7019TIP3    H142472   0.975   2.838   1.349 -0.5291  0.4225  0.4031
 7019TIP3    H242473   0.857   2.894   1.426 -1.2511 -0.4621 -0.0475
 7020TIP3   OH242474   2.974   3.526   3.995 -0.1123  0.1865 -0.3167
 7020TIP3    H142475   2.918   3.534   3.918 -0.4120 -0.0257 -0.1236
 7020TIP3    H242476   2.947   3.598   4.052  1.0156  1.1588 -0.9689
 7021TIP3   OH242477   1.227   5.102   5.870 -0.5346  0.0811 -0.7241
 7021TIP3    H142478   1.236   5.060   5.956 -0.2753  0.8971 -0.3457
 7021TIP3    H242479   1.199   5.191   5.890 -0.3048  0.3265 -1.4806
 7022TIP3   OH242480   2.904   0.972   2.332 -0.2209 -0.5558 -0.1862
 7022TIP3    H142481   2.823   0.922   2.345  0.9096 -2.5665 -0.6069
 7022TIP3    H242482   2.947   0.928   2.258  1.9538 -0.4401  0.9835
 7023TIP3   OH242483   5.507   4.854  14.395 -0.2033 -0.1123  0.0050
 7023TIP3    H142484   5.497   4.876  14.303 -2.6455  0.3775  0.3381
 7023TIP3    H242485   5.418   4.834  14.425  0.7952 -2.1353  1.7990
 7024TIP3   OH242486   4.834   5.545  16.883  0.0058  0.2890  0.0232
 7024TIP3    H142487   4.781   5.466  16.895  1.0186 -0.8739 -2.5805
 7024TIP3    H242488   4.830   5.562  16.789  0.4024  2.9473  0.4486
 7025TIP3   OH242489   3.475   5.687   3.409 -0.0284 -0.4897 -0.3119
 7025TIP3    H142490   3.451   5.711   3.320  1.6958  1.3674 -0.3054
 7025TIP3    H242491   3.561   5.648   3.402 -0.0407 -0.6818  0.4999
 7026TIP3   OH242492   5.998   4.091  15.401 -0.1627  0.2662  0.4744
 7026TIP3    H142493   6.080   4.043  15.395 -0.6632 -0.5620  0.1813
 7026TIP3    H242494   6.024   4.180  15.426  1.0241  0.5987 -1.7878
 7027TIP3   OH242495   6.665   5.577  11.423  0.2800 -0.4073  0.3417
 7027TIP3    H142496   6.573   5.578  11.395  0.9201 -1.9924 -1.9674
 7027TIP3    H242497   6.667   5.633  11.500 -2.7057 -0.6299  0.6448
 7028TIP3   OH242498   3.417   4.192  13.982 -0.3507 -0.0390 -0.3079
 7028TIP3    H142499   3.477   4.223  13.915  0.2039 -0.4794 -0.0154
 7028TIP3    H242500   3.353   4.263  13.991  0.2869  0.5540 -0.4198
 7029TIP3   OH242501   2.871   6.271   6.107 -0.1614  0.8480  0.0513
 7029TIP3    H142502   2.810   6.332   6.066  0.0614  1.1074  0.1000
 7029TIP3    H242503   2.865   6.291   6.200  0.7611  1.5910 -0.0376
 7030TIP3   OH242504   1.623   5.398  16.180  0.0520 -0.0196 -0.1050
 7030TIP3    H142505   1.571   5.332  16.225  2.2027 -2.5453 -1.1921
 7030TIP3    H242506   1.712   5.362  16.180  1.3342  2.9570 -0.6039
 7031TIP3   OH242507   3.554   4.897   5.746 -0.4343  0.4760 -0.0472
 7031TIP3    H142508   3.534   4.981   5.706  1.0712  1.3605  0.9739
 7031TIP3    H242509   3.539   4.911   5.840 -0.7508 -0.5618  0.0606
 7032TIP3   OH242510   4.314   6.730  15.783 -0.7021 -0.0772  0.2182
 7032TIP3    H142511   4.262   6.666  15.734 -0.1203 -1.1063  0.9221
 7032TIP3    H242512   4.400   6.688  15.792  0.4586  1.8362 -1.4716
 7033TIP3   OH242513   2.251   6.464  11.447 -0.0739 -0.3242 -0.2654
 7033TIP3    H142514   2.183   6.531  11.455  0.0994 -0.0814 -0.8152
 7033TIP3    H242515   2.315   6.502  11.387  0.2030 -0.8392 -0.2983
 7034TIP3   OH242516   3.971   1.356  11.821  0.2243 -0.0606  0.2510
 7034TIP3    H142517   3.921   1.275  11.834 -1.9911  0.9258 -1.7599
 7034TIP3    H242518   3.995   1.384  11.910 -1.5767 -1.3262  1.1607
 7035TIP3   OH242519   0.921   4.887   1.667  0.6903  0.0472  0.0324
 7035TIP3    H142520   1.012   4.860   1.683  0.8262  0.9377  0.7726
 7035TIP3    H242521   0.871   4.806   1.675  1.5207 -0.6201 -1.3056
 7036TIP3   OH242522   5.327   0.394   2.887 -0.2265 -0.1423  0.0785
 7036TIP3    H142523   5.235   0.373   2.872 -0.5325  2.8600 -2.9727
 7036TIP3    H242524   5.372   0.363   2.808  0.9690  0.7084  0.4092
 7037TIP3   OH242525   5.453   1.277  16.658  0.5157 -0.1263  0.5765
 7037TIP3    H142526   5.496   1.201  16.698  0.9132  0.2572  0.8768
 7037TIP3    H242527   5.369   1.242  16.627 -0.0023 -0.3505  2.1579
 7038TIP3   OH242528   2.175   2.662  13.926 -0.1009 -0.8102  0.0394
 7038TIP3    H142529   2.158   2.599  13.857  0.3646 -1.0344  0.1285
 7038TIP3    H242530   2.121   2.738  13.903 -1.4195 -1.5972  0.4651
 7039TIP3   OH242531   2.127   4.800  15.435 -0.4508 -0.4392  0.1325
 7039TIP3    H142532   2.169   4.830  15.516  0.7220 -1.9533  0.1205
 7039TIP3    H242533   2.058   4.741  15.465 -0.6150 -0.2840  0.0593
 7040TIP3   OH242534   1.722   0.834   2.632  0.3069  0.0746 -0.8734
 7040TIP3    H142535   1.744   0.924   2.609  0.7003 -0.0560 -1.0138
 7040TIP3    H242536   1.627   0.832   2.633  0.2689  1.0433  1.2309
 7041TIP3   OH242537   1.383   1.414  10.980  0.5033 -0.1728  0.1124
 7041TIP3    H142538   1.407   1.478  10.914 -0.1967 -0.0620 -0.0468
 7041TIP3    H242539   1.355   1.337  10.931 -1.3132  0.3810  0.2232
 7042TIP3   OH242540   1.064   2.818  15.035  0.5819 -0.1686  0.3127
 7042TIP3    H142541   1.053   2.757  14.962  2.2422 -1.8135  1.3842
 7042TIP3    H242542   1.137   2.783  15.085 -1.3012  0.2274  3.4961
 7043TIP3   OH242543   0.651   3.270  17.150 -0.1105  0.5161 -0.3171
 7043TIP3    H142544   0.652   3.193  17.093  0.5473  1.0615 -1.0690
 7043TIP3    H242545   0.588   3.329  17.109  0.4046  0.9342 -0.5131
 7044TIP3   OH242546   4.331   4.618   4.305 -0.2143  0.0018  0.3321
 7044TIP3    H142547   4.347   4.533   4.265 -0.2322  0.1705 -0.0325
 7044TIP3    H242548   4.236   4.624   4.311 -0.1646 -1.5992  3.7708
 7045TIP3   OH242549   2.731   3.198   2.762  1.0072 -0.1508 -0.2702
 7045TIP3    H142550   2.651   3.157   2.729  1.0230  0.2243 -0.7876
 7045TIP3    H242551   2.714   3.292   2.757  0.6426 -0.0885  1.7246
 7046TIP3   OH242552   5.907   5.139   1.806  0.1114  0.1743 -0.2494
 7046TIP3    H142553   5.842   5.181   1.863 -1.0497  0.3547 -1.6782
 7046TIP3    H242554   5.891   5.177   1.720  1.7983 -0.1564 -0.7240
 7047TIP3   OH242555   1.135   2.815   6.096 -0.2907 -1.1082 -0.1766
 7047TIP3    H142556   1.156   2.843   6.185  0.2381 -1.2776 -0.2435
 7047TIP3    H242557   1.175   2.881   6.040  0.5160 -1.7068 -0.3217
 7048TIP3   OH242558   1.444   1.734   1.569  0.0717  0.2785 -0.0533
 7048TIP3    H142559   1.534   1.740   1.600  0.0232 -2.2420  0.6898
 7048TIP3    H242560   1.391   1.740   1.648 -0.4919  2.2552 -0.5289
 7049TIP3   OH242561   2.481   6.572  15.987  0.2792  0.0008 -0.1169
 7049TIP3    H142562   2.480   6.478  15.968 -0.3216  0.3157 -1.7386
 7049TIP3    H242563   2.395   6.589  16.026  0.7356 -0.2880  1.0100
 7050TIP3   OH242564   0.822   1.150   4.332  0.0596 -0.0556  0.0041
 7050TIP3    H142565   0.824   1.173   4.425  0.4386  1.2095 -0.2982
 7050TIP3    H242566   0.902   1.100   4.318  0.4152  0.4496  0.1992
 7051TIP3   OH242567   0.718   0.493  16.277 -0.1981  0.1356  0.5705
 7051TIP3    H142568   0.672   0.459  16.200 -1.7675  0.8587  1.1618
 7051TIP3    H242569   0.758   0.416  16.318  0.7814 -0.2226 -1.0464
 7052TIP3   OH242570   1.655   4.342  13.361 -0.3899  0.1319  0.1350
 7052TIP3    H142571   1.585   4.397  13.326 -0.7478 -0.6844 -0.4637
 7052TIP3    H242572   1.722   4.342  13.292 -0.4660 -0.3078  0.0566
 7053TIP3   OH242573   4.791   2.091  12.193 -0.1015 -0.0635 -0.2865
 7053TIP3    H142574   4.857   2.160  12.200  0.0228 -0.3389  1.5289
 7053TIP3    H242575   4.712   2.130  12.231  0.6072 -1.7015  2.9641
 7054TIP3   OH242576   4.676   5.404   1.848  0.5616 -0.2960  0.1246
 7054TIP3    H142577   4.689   5.383   1.755 -2.2628 -0.4197 -0.2895
 7054TIP3    H242578   4.717   5.332   1.895 -0.0071 -1.4237 -1.0891
 7055TIP3   OH242579   4.634   2.745  14.053 -0.2563  0.4242 -0.3790
 7055TIP3    H142580   4.616   2.745  14.147  0.4441 -1.5608 -0.2169
 7055TIP3    H242581   4.563   2.797  14.015 -1.8024 -0.6020  1.0262
 7056TIP3   OH242582   4.770   0.590  14.700 -0.3554 -0.7028 -0.0114
 7056TIP3    H142583   4.848   0.542  14.673  1.6240  1.2475  2.0210
 7056TIP3    H242584   4.710   0.584  14.625  1.2751 -3.1598 -1.1800
 7057TIP3   OH242585   4.546   0.482   4.225  0.5596  0.0260 -0.3386
 7057TIP3    H142586   4.483   0.412   4.205  0.8389 -0.0354 -0.9965
 7057TIP3    H242587   4.534   0.498   4.319 -0.1799 -0.2411 -0.3834
 7058TIP3   OH242588   1.251   5.020   0.791 -0.3081 -0.2628 -0.2608
 7058TIP3    H142589   1.261   4.965   0.869  1.8601  1.2356  0.5432
 7058TIP3    H242590   1.294   5.102   0.813 -1.0707  0.7727 -2.4792
 7059TIP3   OH242591   4.137   6.415   0.702 -0.4005  0.0884  0.2996
 7059TIP3    H142592   4.159   6.486   0.642  0.5265  0.4114  1.0033
 7059TIP3    H242593   4.090   6.458   0.774  0.0869 -0.0242  0.6836
 7060TIP3   OH242594   3.932   3.593  13.112  0.4088 -0.3936 -0.2363
 7060TIP3    H142595   3.879   3.637  13.045 -0.8357  1.3700  1.8338
 7060TIP3    H242596   3.873   3.585  13.187  1.7447 -2.4402  0.6207
 7061TIP3   OH242597   3.459   1.129  17.107  0.2655 -0.6032  0.4384
 7061TIP3    H142598   3.424   1.042  17.126 -0.4091 -0.3934  0.1429
 7061TIP3    H242599   3.457   1.137  17.012  0.1579 -0.1887  0.4727
 7062TIP3   OH242600   2.365   4.829   0.131  0.1639  0.0301 -0.6872
 7062TIP3    H142601   2.454   4.840   0.098 -0.1964  0.7539 -1.4450
 7062TIP3    H242602   2.325   4.915   0.122 -0.4447 -0.1599  0.1664
 7063TIP3   OH242603   0.329   4.408   2.595  0.1014  0.7679  0.1043
 7063TIP3    H142604   0.413   4.405   2.548  0.9852  2.1380  1.5389
 7063TIP3    H242605   0.347   4.462   2.672 -1.4262 -1.0913  1.8093
 7064TIP3   OH242606   3.486   3.267  14.009  0.9068  0.1075 -0.0886
 7064TIP3    H142607   3.398   3.287  14.039  0.7097 -1.2395  0.2815
 7064TIP3    H242608   3.542   3.284  14.085  0.6690 -1.2518  0.4081
 7065TIP3   OH242609   2.890   4.801  13.524  0.0699  0.0773 -0.3245
 7065TIP3    H142610   2.961   4.803  13.460  0.0796 -0.4128 -0.3300
 7065TIP3    H242611   2.902   4.881  13.575 -0.0817  0.5857 -1.0827
 7066TIP3   OH242612   0.493   1.509  14.831  0.3854 -1.0153  0.4785
 7066TIP3    H142613   0.478   1.432  14.776 -0.2426 -1.3266  1.0833
 7066TIP3    H242614   0.445   1.579  14.787 -0.9045 -1.4807  1.1373
 7067TIP3   OH242615   5.589   2.243  13.121 -0.0844  0.7300  0.2182
 7067TIP3    H142616   5.608   2.203  13.206  1.6551 -0.6207 -0.7672
 7067TIP3    H242617   5.605   2.173  13.057 -0.5783  1.9577 -1.2833
 7068TIP3   OH242618   5.544   3.647  15.496 -0.2715  0.0683 -0.2332
 7068TIP3    H142619   5.519   3.555  15.483 -2.4688  0.5988 -0.0557
 7068TIP3    H242620   5.636   3.644  15.520 -0.5024 -2.1532  0.5036
 7069TIP3   OH242621   0.147   3.000   1.802 -0.2442 -0.3100 -0.5020
 7069TIP3    H142622   0.186   2.998   1.715 -0.2673  0.1180 -0.5205
 7069TIP3    H242623   0.053   3.004   1.786 -0.2660 -0.6192 -0.4565
 7070TIP3   OH242624   0.850   2.232  11.551  0.5978 -0.2434 -0.8256
 7070TIP3    H142625   0.930   2.194  11.585  2.4985 -1.3358 -6.0835
 7070TIP3    H242626   0.791   2.157  11.538  1.2677 -0.3974 -3.2596
 7071TIP3   OH242627   4.671   1.445  12.726  0.1571  0.1003  0.0183
 7071TIP3    H142628   4.712   1.359  12.718  1.3150  0.5820  0.6734
 7071TIP3    H242629   4.579   1.426  12.747  0.3070 -0.9726 -0.2793
 7072TIP3   OH242630   0.096   4.957   4.732  0.1410 -0.0664  0.1750
 7072TIP3    H142631   0.039   4.979   4.805 -0.9886 -0.9076 -0.4335
 7072TIP3    H242632   0.170   5.018   4.739 -1.8689  2.4900 -0.2937
 7073TIP3   OH242633   6.315   2.254   5.162 -0.8854  0.1605  0.0885
 7073TIP3    H142634   6.274   2.228   5.080 -1.7711 -0.1920  0.6387
 7073TIP3    H242635   6.387   2.191   5.174 -0.4204  0.5356 -0.6704
 7074TIP3   OH242636   5.879   6.420   4.649 -0.1808  0.4929 -0.0350
 7074TIP3    H142637   5.841   6.470   4.577  2.1004  1.1169 -0.8245
 7074TIP3    H242638   5.894   6.333   4.612  2.3071  1.1985 -0.8090
 7075TIP3   OH242639   2.994   5.597   1.316  0.2085  0.1259  0.0169
 7075TIP3    H142640   2.910   5.620   1.357  1.0215  0.9283  1.2495
 7075TIP3    H242641   2.980   5.617   1.223 -0.7448  0.9112  0.3106
 7076TIP3   OH242642   1.803   1.915  13.628  0.3809 -0.2918  0.4014
 7076TIP3    H142643   1.776   1.872  13.709  1.4713 -1.5395  0.1112
 7076TIP3    H242644   1.871   1.977  13.655 -0.3178  0.3810  0.6412
 7077TIP3   OH242645   0.731   3.972  15.050  0.3535 -0.5706 -0.3805
 7077TIP3    H142646   0.741   3.880  15.075 -0.7150 -0.5129  0.3081
 7077TIP3    H242647   0.740   4.020  15.132 -0.0339 -0.1387 -0.5855
 7078TIP3   OH242648   3.749   0.273   5.036 -0.2818 -0.4434 -0.0959
 7078TIP3    H142649   3.700   0.229   4.966 -0.3714  0.2937 -0.5026
 7078TIP3    H242650   3.689   0.341   5.068 -0.2913 -0.8529  0.7920
 7079TIP3   OH242651   2.822   4.359   3.759 -0.7323 -0.1393 -0.5687
 7079TIP3    H142652   2.791   4.396   3.676 -1.7734  1.0899  0.3522
 7079TIP3    H242653   2.817   4.431   3.821 -1.1296 -1.3614  0.8600
 7080TIP3   OH242654   5.962   4.917  14.400  0.0256  0.5139  0.2291
 7080TIP3    H142655   5.938   4.877  14.316  2.4680  0.0571 -0.2762
 7080TIP3    H242656   5.926   4.858  14.466 -2.0593  0.9588 -0.4713
 7081TIP3   OH242657   5.480   1.937  11.906  0.2044 -0.1652  0.1946
 7081TIP3    H142658   5.560   1.984  11.930  0.3231 -0.8723  1.1966
 7081TIP3    H242659   5.422   2.005  11.870  0.2995  0.8036  1.8178
 7082TIP3   OH242660   1.966   2.571   0.810 -0.5105  0.4919 -0.2991
 7082TIP3    H142661   2.048   2.599   0.770 -0.7383  0.0565 -1.0798
 7082TIP3    H242662   1.898   2.607   0.753 -0.8791  1.4561  0.7386
 7083TIP3   OH242663   2.064   5.491   0.560  0.1544 -0.2959  0.1433
 7083TIP3    H142664   2.094   5.542   0.484  0.1381 -0.8224 -0.2174
 7083TIP3    H242665   2.135   5.500   0.623  0.8182 -1.0437 -0.4850
 7084TIP3   OH242666   5.914   4.511   0.727 -0.4920  0.2413  0.1173
 7084TIP3    H142667   5.934   4.604   0.731  0.1402  0.1439 -0.6054
 7084TIP3    H242668   5.914   4.482   0.818  0.6525  0.6739  0.2603
 7085TIP3   OH242669   4.285   5.785  14.146 -0.4478 -0.0160  0.0423
 7085TIP3    H142670   4.345   5.790  14.072 -1.6396  2.8038 -0.7881
 7085TIP3    H242671   4.334   5.826  14.218 -1.1108  1.7024 -0.4691
 7086TIP3   OH242672   5.727   5.869   6.544  0.0901 -0.1496 -0.2411
 7086TIP3    H142673   5.694   5.944   6.592 -2.7165 -1.0650 -0.6278
 7086TIP3    H242674   5.759   5.809   6.611 -0.9871 -0.1221  0.3066
 7087TIP3   OH242675   3.363   1.097  15.117  0.1740  0.2515 -0.1395
 7087TIP3    H142676   3.422   1.070  15.187 -1.6832 -1.4153  0.8310
 7087TIP3    H242677   3.341   1.016  15.070  0.0767  1.1033 -1.6225
 7088TIP3   OH242678   3.256   4.307  13.474  0.0690  0.3698  0.1352
 7088TIP3    H142679   3.179   4.272  13.518 -0.8032  1.1592 -0.7442
 7088TIP3    H242680   3.222   4.352  13.396  1.5847 -1.0539 -1.3894
 7089TIP3   OH242681   4.591   2.697  12.256 -0.5871 -0.4798  0.0354
 7089TIP3    H142682   4.641   2.630  12.209  1.6876  0.2769  1.3004
 7089TIP3    H242683   4.516   2.651  12.291  0.0253 -1.9981 -0.6187
 7090TIP3   OH242684   1.100   6.306  16.369  0.3192 -0.1061 -0.1071
 7090TIP3    H142685   1.165   6.294  16.438  0.7193  0.0510 -0.4563
 7090TIP3    H242686   1.020   6.332  16.415  0.6385  0.1897  0.2772
 7091TIP3   OH242687   2.891   2.422   0.897  0.1724  0.5219 -0.2925
 7091TIP3    H142688   2.898   2.329   0.876 -0.8982  0.9138 -2.5206
 7091TIP3    H242689   2.898   2.425   0.993 -1.4723 -2.0222 -0.0415
 7092TIP3   OH242690   2.160   0.253  11.194  0.0363 -0.2683  0.1644
 7092TIP3    H142691   2.165   0.186  11.262 -0.5843 -0.9689 -0.4771
 7092TIP3    H242692   2.250   0.286  11.185  0.0975 -0.0802  1.4065
 7093TIP3   OH242693   1.131   5.328   6.203  0.2542 -0.1763  0.0057
 7093TIP3    H142694   1.060   5.367   6.252 -1.4493 -1.4832 -1.3573
 7093TIP3    H242695   1.167   5.261   6.260 -1.5126 -1.4789 -0.3927
 7094TIP3   OH242696   6.012   4.558   4.414 -0.0956  0.1493  0.1075
 7094TIP3    H142697   5.939   4.617   4.430  1.3735  1.8876  0.5286
 7094TIP3    H242698   6.005   4.492   4.483 -0.6978  0.8533  0.7340
 7095TIP3   OH242699   4.540   1.367   5.644 -0.1897  0.8610  0.3014
 7095TIP3    H142700   4.520   1.293   5.586  2.3934  0.7978 -0.5913
 7095TIP3    H242701   4.567   1.326   5.726  0.5242  0.8016  0.0464
 7096TIP3   OH242702   0.434   4.513   3.736  0.3600  0.0307  0.0465
 7096TIP3    H142703   0.422   4.544   3.646 -1.3573  0.8090  0.5298
 7096TIP3    H242704   0.506   4.565   3.770  2.9252 -2.1769 -1.7343
 7097TIP3   OH242705   3.603   4.171   0.359  0.5131  0.2019  0.2315
 7097TIP3    H142706   3.615   4.089   0.407  0.7195 -0.7115 -1.3305
 7097TIP3    H242707   3.692   4.205   0.348  0.4365  0.5935  0.7846
 7098TIP3   OH242708   2.682   5.191  16.335  0.2919  0.9005  0.4963
 7098TIP3    H142709   2.618   5.123  16.315 -0.7191  1.6812  1.0498
 7098TIP3    H242710   2.747   5.185  16.264 -0.2838 -0.0061  0.0388
 7099TIP3   OH242711   1.940   2.641  12.588 -0.3812  0.3471  0.2057
 7099TIP3    H142712   1.903   2.667  12.504 -1.6309 -1.9914 -0.0061
 7099TIP3    H242713   2.031   2.668  12.584 -0.8701  1.8617 -1.1790
 7100TIP3   OH242714   4.545   4.303  15.845 -0.1122 -0.0926  0.0293
 7100TIP3    H142715   4.514   4.331  15.931 -0.5411  1.0441 -0.4794
 7100TIP3    H242716   4.520   4.211  15.839  1.1176 -0.5468  1.6461
 7101TIP3   OH242717   0.053   3.728   3.495  0.0271  0.4560 -0.3743
 7101TIP3    H142718  -0.022   3.786   3.479 -0.0623  1.6281  3.7550
 7101TIP3    H242719   0.082   3.750   3.583  3.8413 -1.6027 -0.9971
 7102TIP3   OH242720   6.759   2.968   0.299 -0.1750 -0.5855  0.2207
 7102TIP3    H142721   6.719   2.901   0.355 -1.8289 -1.0021 -1.4009
 7102TIP3    H242722   6.800   2.919   0.228  1.4940 -0.0392  0.7998
 7103TIP3   OH242723   5.898   4.650  16.524  0.0849  0.6419  0.6592
 7103TIP3    H142724   5.951   4.616  16.452 -1.1971 -0.0622  0.0243
 7103TIP3    H242725   5.892   4.578  16.586 -1.2865  0.2148  0.0658
 7104TIP3   OH242726   2.441   5.139  13.965 -0.5743 -0.2551  0.1684
 7104TIP3    H142727   2.464   5.087  14.042  1.1964  0.4110  0.0930
 7104TIP3    H242728   2.459   5.082  13.891 -1.3826 -0.5545  0.1922
 7105TIP3   OH242729   1.067   5.261  14.937  0.0366  0.1637 -0.1105
 7105TIP3    H142730   0.991   5.255  14.879  0.2119  0.7102 -0.3937
 7105TIP3    H242731   1.031   5.292  15.020 -0.0375  0.4835 -0.2636
 7106TIP3   OH242732   3.005   0.312  17.020  0.5167 -0.2964  0.2856
 7106TIP3    H142733   3.003   0.370  17.096 -0.3250 -0.1498  0.1586
 7106TIP3    H242734   3.098   0.298  17.003  0.7632  2.6621 -0.9342
 7107TIP3   OH242735   5.895   4.262  15.059  0.5875 -0.0234  0.3235
 7107TIP3    H142736   5.928   4.251  14.969  1.7550 -0.7435  0.8284
 7107TIP3    H242737   5.880   4.356  15.067 -0.7592 -0.0956 -1.0459
 7108TIP3   OH242738   5.663   0.260   1.293 -0.3256  0.7219  0.4144
 7108TIP3    H142739   5.593   0.208   1.335  0.6381  0.7394  2.0965
 7108TIP3    H242740   5.732   0.196   1.274  0.9933  1.3737  2.7674
 7109TIP3   OH242741   3.297   2.879   0.244 -0.4588 -0.9503 -0.4880
 7109TIP3    H142742   3.279   2.827   0.323 -0.6160 -1.1524 -0.6582
 7109TIP3    H242743   3.293   2.816   0.172 -0.5567 -0.7182 -0.6855
 7110TIP3   OH242744   4.500   0.446   3.287 -0.9378 -0.5133 -0.3956
 7110TIP3    H142745   4.520   0.540   3.285 -0.3900 -0.6313 -1.2663
 7110TIP3    H242746   4.445   0.434   3.364  1.5153  0.0283  1.5205
 7111TIP3   OH242747   4.861   3.615  13.678 -0.2409  0.9217 -0.5976
 7111TIP3    H142748   4.858   3.636  13.585  1.6513  2.8541 -0.2585
 7111TIP3    H242749   4.944   3.568  13.690 -0.6990  0.2511  0.0475
 7112TIP3   OH242750   3.493   1.138  13.227  0.1574  0.0410  0.1026
 7112TIP3    H142751   3.585   1.148  13.201 -0.3173  2.1449 -0.8065
 7112TIP3    H242752   3.486   1.188  13.308 -0.4798  0.8496 -0.4602
 7113TIP3   OH242753   0.573   3.083  15.046 -0.0935  0.3282  0.1838
 7113TIP3    H142754   0.502   3.027  15.077  1.1975 -0.7532  1.2938
 7113TIP3    H242755   0.638   3.021  15.011  0.1074  1.3196 -1.2137
 7114TIP3   OH242756   1.696   6.345  12.957 -0.2720  0.0225 -0.4675
 7114TIP3    H142757   1.618   6.290  12.963 -1.5016  1.8368  1.0634
 7114TIP3    H242758   1.721   6.360  13.049  0.9311  0.7427 -0.9047
 7115TIP3   OH242759   4.239   5.143   5.130  0.8038  0.5347  0.8726
 7115TIP3    H142760   4.183   5.176   5.060  1.2829  1.7261  1.0454
 7115TIP3    H242761   4.297   5.216   5.151  1.5958 -0.2738  1.5541
 7116TIP3   OH242762   3.911   6.761  14.335 -0.4193 -0.6171 -0.3488
 7116TIP3    H142763   3.959   6.779  14.254  2.6615  2.0336  1.9363
 7116TIP3    H242764   3.931   6.669  14.354  2.0667 -0.1616 -0.5774
 7117TIP3   OH242765   5.422   3.790   6.150 -0.4362 -0.3794 -0.0548
 7117TIP3    H142766   5.367   3.740   6.089  0.7691 -2.0432  0.1709
 7117TIP3    H242767   5.463   3.857   6.096  0.9217 -2.0800 -1.2188
 7118TIP3   OH242768   5.597   1.582   4.124  0.1956 -0.0639 -0.2754
 7118TIP3    H142769   5.615   1.676   4.130  1.2417 -0.4048  2.4012
 7118TIP3    H242770   5.664   1.541   4.179 -2.4206 -2.1194  1.4918
 7119TIP3   OH242771   4.746   3.369  12.699 -0.2716 -0.2216  0.0716
 7119TIP3    H142772   4.727   3.463  12.705 -2.7796 -0.7072 -0.0576
 7119TIP3    H242773   4.740   3.349  12.606  2.4455 -0.1063 -0.1703
 7120TIP3   OH242774   0.692   0.395  12.865 -0.0209 -0.4581  0.2666
 7120TIP3    H142775   0.682   0.302  12.847 -1.2833 -0.0968 -1.0092
 7120TIP3    H242776   0.612   0.435  12.831  0.4397  1.0803  0.9218
 7121TIP3   OH242777   2.070   5.382  14.609 -0.1396  0.6159 -0.1996
 7121TIP3    H142778   2.099   5.442  14.678 -0.3473  1.2312 -0.6416
 7121TIP3    H242779   2.013   5.320  14.653 -1.1585  1.6708 -0.0202
 7122TIP3   OH242780   5.010   0.319   4.347  0.1518 -0.4807  0.2819
 7122TIP3    H142781   5.078   0.361   4.294  0.8047 -0.8276  0.8468
 7122TIP3    H242782   5.052   0.301   4.431 -0.3095 -1.6855  0.2641
 7123TIP3   OH242783   0.833   3.146   4.241 -0.2854 -0.8967  0.0809
 7123TIP3    H142784   0.926   3.159   4.226 -0.4348  0.9323  0.6531
 7123TIP3    H242785   0.804   3.090   4.169  0.6640  0.9247 -1.7594
 7124TIP3   OH242786   4.669   0.307   5.245 -0.2656 -0.6121 -0.3644
 7124TIP3    H142787   4.742   0.287   5.303 -1.5581  0.1091  1.5711
 7124TIP3    H242788   4.597   0.253   5.277 -1.6972  1.6387  0.3041
 7125TIP3   OH242789   0.373   4.718  12.387 -0.3565  0.1909  0.2388
 7125TIP3    H142790   0.348   4.676  12.305 -0.0647 -0.1471  0.3222
 7125TIP3    H242791   0.466   4.699  12.396 -0.1211  1.2781  0.0331
 7126TIP3   OH242792   6.332   0.452   5.477 -0.1532 -0.5158 -0.1882
 7126TIP3    H142793   6.255   0.502   5.504  1.0411  1.3939 -0.2058
 7126TIP3    H242794   6.334   0.462   5.381 -0.3668 -1.3105 -0.2821
 7127TIP3   OH242795   0.872   5.394  15.863 -0.0037 -0.8114  0.5988
 7127TIP3    H142796   0.902   5.361  15.778 -0.9745 -1.5385  0.5330
 7127TIP3    H242797   0.945   5.377  15.922  0.4885 -0.7562  0.0124
 7128TIP3   OH242798   0.508   4.466   2.822  0.5866  0.0559 -0.3951
 7128TIP3    H142799   0.554   4.456   2.905 -1.4874 -1.8284  0.5699
 7128TIP3    H242800   0.575   4.450   2.756  1.3875 -2.6998  0.9754
 7129TIP3   OH242801   4.953   6.188   4.970  0.1572 -0.1937  0.6761
 7129TIP3    H142802   5.039   6.158   4.939 -0.3490  0.5473 -1.5697
 7129TIP3    H242803   4.914   6.110   5.010  1.3556 -0.8941  0.5112
 7130TIP3   OH242804   4.175   5.661  16.218  0.0715  0.1790  0.3227
 7130TIP3    H142805   4.079   5.654  16.214 -0.1076  1.3723  1.7100
 7130TIP3    H242806   4.196   5.729  16.154 -0.1286  0.7321  0.8420
 7131TIP3   OH242807   3.026   5.587   5.484  0.3804 -0.4676 -0.2622
 7131TIP3    H142808   2.966   5.656   5.510  1.1716 -0.0100  0.4031
 7131TIP3    H242809   2.974   5.507   5.487 -0.3921  0.0254 -0.4685
 7132TIP3   OH242810   3.832   1.623   4.721  0.0828 -0.3143  0.6070
 7132TIP3    H142811   3.817   1.708   4.680  0.5506 -0.4765  0.0986
 7132TIP3    H242812   3.927   1.610   4.716 -0.0764 -1.2690 -0.1329
 7133TIP3   OH242813   5.889   1.368  15.835 -0.4722 -0.4683 -0.2060
 7133TIP3    H142814   5.795   1.365  15.855  0.0086  2.8903  3.1801
 7133TIP3    H242815   5.898   1.439  15.772 -0.3396 -1.8135 -1.7285
 7134TIP3   OH242816   0.433   2.913   2.740  0.2776 -0.1552 -0.0836
 7134TIP3    H142817   0.505   2.977   2.738  0.2882 -0.1024  1.9012
 7134TIP3    H242818   0.452   2.857   2.815 -1.3642 -0.6184  0.0005
 7135TIP3   OH242819   3.518   5.839  16.052  0.1888  0.4579 -0.0115
 7135TIP3    H142820   3.444   5.876  16.004  0.1349 -0.0069 -0.2877
 7135TIP3    H242821   3.590   5.841  15.989  0.7098  1.9534  0.6072
 7136TIP3   OH242822   1.890   2.688   1.395 -0.3839 -0.1950 -0.1820
 7136TIP3    H142823   1.984   2.689   1.377 -0.3943 -1.3323 -0.3723
 7136TIP3    H242824   1.855   2.765   1.350  0.4044  0.0438 -0.3908
 7137TIP3   OH242825   1.916   0.740  15.841  0.4114  0.3484  0.2194
 7137TIP3    H142826   1.997   0.732  15.892  0.1531  1.1576  0.7649
 7137TIP3    H242827   1.866   0.808  15.886 -0.7621 -0.4353  0.1248
 7138TIP3   OH242828   6.667   1.431   0.528  0.4819  0.0131 -0.4496
 7138TIP3    H142829   6.638   1.465   0.612  0.4444 -0.7596 -0.1423
 7138TIP3    H242830   6.757   1.404   0.543  0.0536 -1.3849 -0.2697
 7139TIP3   OH242831   4.577   0.481   1.128 -0.5188  0.5886  0.1796
 7139TIP3    H142832   4.639   0.503   1.058 -0.1073  3.9022  1.4684
 7139TIP3    H242833   4.597   0.390   1.150  2.3910  0.8834 -0.9615
 7140TIP3   OH242834   1.552   0.527   5.803 -0.4600  0.7259 -0.7276
 7140TIP3    H142835   1.515   0.462   5.863  1.7993 -0.8147 -0.9517
 7140TIP3    H242836   1.608   0.582   5.858  0.3784  0.2961 -1.1445
 7141TIP3   OH242837   2.752   3.379   3.268  0.0800  0.3293  0.1010
 7141TIP3    H142838   2.828   3.346   3.315  1.2991  2.8224 -0.0414
 7141TIP3    H242839   2.745   3.324   3.190  0.2437 -1.4751  1.3434
 7142TIP3   OH242840   2.298   3.747  13.124 -0.6115  0.1811 -0.4578
 7142TIP3    H142841   2.345   3.829  13.136  0.3760 -0.3259 -0.8101
 7142TIP3    H242842   2.248   3.760  13.043  0.4764  0.0170 -1.1750
 7143TIP3   OH242843   6.282   3.911   3.046 -0.3943  0.1624  0.8550
 7143TIP3    H142844   6.219   3.930   2.977  2.4425  0.5178 -1.7551
 7143TIP3    H242845   6.366   3.939   3.010  1.3718 -0.9414  3.9258
 7144TIP3   OH242846   3.506   2.401  15.263 -0.5749  0.5352  0.1912
 7144TIP3    H142847   3.447   2.350  15.319 -3.1908  1.1812 -1.8446
 7144TIP3    H242848   3.495   2.491  15.292 -1.0258  0.7259 -0.5585
 7145TIP3   OH242849   3.776   0.352  16.545 -0.0397  0.2971 -0.2794
 7145TIP3    H142850   3.686   0.384  16.534 -0.2631  0.5546  1.9829
 7145TIP3    H242851   3.829   0.431  16.554 -0.1565  0.1331  2.2091
 7146TIP3   OH242852   6.085   5.978   1.111  0.2746 -0.0178 -0.2186
 7146TIP3    H142853   6.038   6.061   1.101 -1.1030 -0.8505 -0.8257
 7146TIP3    H242854   6.119   5.959   1.024  0.6206 -0.0830 -0.0708
 7147TIP3   OH242855   6.536   4.769  11.476 -0.4608 -0.1266  0.2056
 7147TIP3    H142856   6.519   4.682  11.512  1.2557 -1.2367 -1.5133
 7147TIP3    H242857   6.626   4.789  11.501 -1.7310  2.4716  3.0395
 7148TIP3   OH242858   3.496   3.435   0.068  0.7502  0.6703 -0.2535
 7148TIP3    H142859   3.412   3.413   0.108  0.6963  2.1130  0.4612
 7148TIP3    H242860   3.530   3.352   0.036 -0.9453  0.0672 -0.5348
 7149TIP3   OH242861   4.792   4.696   2.775  0.7038  0.0774 -0.4422
 7149TIP3    H142862   4.851   4.643   2.721  1.0724  0.5530 -0.5081
 7149TIP3    H242863   4.845   4.724   2.849  0.7073  0.9133 -0.7511
 7150TIP3   OH242864   0.878   5.813   1.008  0.1173  0.2080  0.0251
 7150TIP3    H142865   0.885   5.721   0.982 -0.1310 -0.0366  0.8443
 7150TIP3    H242866   0.968   5.846   0.998  0.2270 -0.1398 -0.1812
 7151TIP3   OH242867   4.723   3.488  11.103 -0.7492 -0.0586 -0.3452
 7151TIP3    H142868   4.817   3.495  11.122 -0.7665 -2.0117  0.6258
 7151TIP3    H242869   4.720   3.446  11.017 -0.7185 -0.3705 -0.1966
 7152TIP3   OH242870   2.074   3.237  13.508 -0.3219  0.2706 -0.2843
 7152TIP3    H142871   2.071   3.252  13.414 -0.3043 -3.1156 -0.8818
 7152TIP3    H242872   2.165   3.252  13.532 -0.2575  0.8056 -0.8454
 7153TIP3   OH242873   4.730   6.149  14.061  0.6739  0.3134 -0.2833
 7153TIP3    H142874   4.734   6.138  13.966 -1.1205  0.2094 -0.3822
 7153TIP3    H242875   4.637   6.133  14.082  0.6569  2.3068  1.2237
 7154TIP3   OH242876   4.460   6.392   0.624  0.1541  0.1655  0.4668
 7154TIP3    H142877   4.448   6.483   0.650  1.5421  0.5306 -0.1021
 7154TIP3    H242878   4.399   6.343   0.678 -0.8260  1.4642  0.5650
 7155TIP3   OH242879   1.215   4.271  15.535 -0.3649  0.0573 -0.0037
 7155TIP3    H142880   1.223   4.179  15.562  2.4694 -0.1304 -1.3512
 7155TIP3    H242881   1.190   4.317  15.615  0.9474 -1.5064  1.3466
 7156TIP3   OH242882   0.524   0.990   6.553  0.3946  0.3434  0.4122
 7156TIP3    H142883   0.612   0.958   6.570  0.1311 -0.6324 -0.0265
 7156TIP3    H242884   0.468   0.937   6.609 -0.1954 -0.9814 -1.4052
 7157TIP3   OH242885   3.641   1.863  15.471 -0.0840 -0.2743  0.0292
 7157TIP3    H142886   3.684   1.825  15.547 -0.0438  0.2138  0.2552
 7157TIP3    H242887   3.550   1.834  15.478 -0.3291  0.6437  0.8589
 7158TIP3   OH242888   0.027   6.445   0.043 -0.3462 -0.0608 -0.0647
 7158TIP3    H142889   0.029   6.524   0.098  0.5055 -1.3058  1.7592
 7158TIP3    H242890   0.083   6.383   0.090  0.7393 -1.0324 -2.5952
 7159TIP3   OH242891   1.928   2.952   1.012 -0.1817  0.1224 -0.2458
 7159TIP3    H142892   1.951   2.999   1.092  2.9135 -0.2290 -0.8662
 7159TIP3    H242893   1.940   2.859   1.034  0.6754  0.0217 -1.0972
 7160TIP3   OH242894   1.132   2.373   4.549 -0.5450 -0.0056  0.2506
 7160TIP3    H142895   1.143   2.431   4.474  0.9494 -0.9682 -0.3051
 7160TIP3    H242896   1.191   2.409   4.616 -2.1114  1.0350  1.0883
 7161TIP3   OH242897   3.411   0.537   1.275  0.1288  0.3748  0.2534
 7161TIP3    H142898   3.487   0.579   1.315 -0.7860  0.0399  2.3969
 7161TIP3    H242899   3.335   0.577   1.318 -0.8647 -0.6081 -0.5347
 7162TIP3   OH242900   4.805   0.132   0.161  0.4753 -0.0198  0.0727
 7162TIP3    H142901   4.887   0.164   0.198 -0.1667 -0.2140  1.6694
 7162TIP3    H242902   4.832   0.080   0.085  1.8633 -0.6955  1.0164
 7163TIP3   OH242903   3.697   2.193  12.784 -0.2659 -1.0411 -0.2232
 7163TIP3    H142904   3.733   2.131  12.721 -2.8238 -1.3734 -1.4199
 7163TIP3    H242905   3.605   2.203  12.759 -0.1340  2.6368  0.4209
 7164TIP3   OH242906   2.894   5.911  14.814 -0.5328  0.4292 -0.3207
 7164TIP3    H142907   2.957   5.840  14.823 -0.4015  0.3818 -1.5605
 7164TIP3    H242908   2.839   5.904  14.892  0.9122  0.4025  0.7181
 7165TIP3   OH242909   5.440   4.969   0.069 -0.6925 -0.2298  0.4858
 7165TIP3    H142910   5.468   4.892   0.021 -0.7416 -0.3543  0.6580
 7165TIP3    H242911   5.505   4.978   0.139 -1.3803 -0.8240  1.2069
 7166TIP3   OH242912   5.994   6.082   2.895 -0.4080  1.0466  0.1733
 7166TIP3    H142913   5.907   6.119   2.883 -0.1474  1.5051 -0.2781
 7166TIP3    H242914   6.026   6.064   2.807  0.4177  1.9349  0.2858
 7167TIP3   OH242915   5.464   0.867   3.290  0.0849  0.3905 -0.4705
 7167TIP3    H142916   5.386   0.816   3.315 -0.7780  0.4727 -2.8294
 7167TIP3    H242917   5.535   0.803   3.289 -0.3424 -0.0924 -0.1854
 7168TIP3   OH242918   1.100   2.170  11.678  0.5757 -0.4535  0.3428
 7168TIP3    H142919   1.184   2.123  11.681  0.3124 -1.0824 -1.6741
 7168TIP3    H242920   1.041   2.116  11.730  0.4341 -2.0753 -1.4473
 7169TIP3   OH242921   6.418   6.307   3.431 -0.1750 -0.0100 -0.0916
 7169TIP3    H142922   6.328   6.278   3.416  0.1293 -0.7309 -0.5543
 7169TIP3    H242923   6.420   6.330   3.524 -0.5405 -1.0965  0.1922
 7170TIP3   OH242924   6.269   4.498   0.803 -0.4483 -0.0879  0.0601
 7170TIP3    H142925   6.192   4.554   0.813  0.1103  1.2925 -2.6349
 7170TIP3    H242926   6.335   4.536   0.862 -1.4643 -0.6123  1.5482
 7171TIP3   OH242927   6.620   0.064   2.125 -0.0949 -0.3109  0.3886
 7171TIP3    H142928   6.626   0.131   2.193 -2.4952  0.4041 -0.0801
 7171TIP3    H242929   6.544   0.011   2.150 -0.9949 -0.0529 -1.7117
 7172TIP3   OH242930   2.439   5.172  15.937  0.4987 -0.3219 -0.8099
 7172TIP3    H142931   2.480   5.232  16.000  1.2433 -1.5189 -0.1459
 7172TIP3    H242932   2.355   5.149  15.978  0.1710  0.3079 -1.1052
 7173TIP3   OH242933   2.035   5.177   3.262 -0.3371 -0.0877  0.5702
 7173TIP3    H142934   2.057   5.208   3.350 -0.5045  2.3055 -0.1880
 7173TIP3    H242935   1.967   5.111   3.276  2.1032 -2.3253  2.4601
 7174TIP3   OH242936   1.543   3.316  15.583  0.1243 -0.0595 -0.1104
 7174TIP3    H142937   1.624   3.290  15.540 -0.0520 -0.4838 -0.1920
 7174TIP3    H242938   1.547   3.275  15.669  0.9833  1.6929  0.7070
 7175TIP3   OH242939   1.418   2.439  16.074 -0.7162  0.1954  0.3395
 7175TIP3    H142940   1.465   2.488  16.142 -0.9119 -0.1147  0.7024
 7175TIP3    H242941   1.483   2.376  16.042 -1.1260 -0.7846  1.4192
 7176TIP3   OH242942   6.379   0.626   2.068  0.3886 -0.3253 -0.4139
 7176TIP3    H142943   6.458   0.647   2.118  0.5754 -0.2592 -0.7389
 7176TIP3    H242944   6.383   0.682   1.991  0.3549 -0.7922 -0.7580
 7177TIP3   OH242945   0.585   0.857  12.128  0.1391 -0.1600  0.0057
 7177TIP3    H142946   0.576   0.863  12.033  1.6065 -0.2505 -0.1475
 7177TIP3    H242947   0.563   0.945  12.160 -0.6848 -0.2229 -0.3789
 7178TIP3   OH242948   0.485   2.510   5.895 -0.2043  1.0142 -0.5048
 7178TIP3    H142949   0.428   2.584   5.915 -0.0883  0.1708  3.2486
 7178TIP3    H242950   0.426   2.434   5.891  0.1956  0.6850 -0.2271
 7179TIP3   OH242951   1.123   1.893  13.724  0.0307 -0.0558 -0.7224
 7179TIP3    H142952   1.155   1.888  13.814  0.7430 -1.2118 -1.0330
 7179TIP3    H242953   1.061   1.821  13.716 -0.1777  0.1591 -1.1002
 7180TIP3   OH242954   0.349   1.952   5.021  0.0360 -0.5928  0.4413
 7180TIP3    H142955   0.328   1.899   4.944 -0.4167  1.1563 -0.6689
 7180TIP3    H242956   0.403   2.024   4.987  0.4665 -0.2194  1.8774
 7181TIP3   OH242957   4.809   5.371  10.613  0.1736 -0.1172 -0.1612
 7181TIP3    H142958   4.796   5.417  10.530 -1.0649  0.1543  0.1742
 7181TIP3    H242959   4.834   5.282  10.587 -2.5642 -0.7270 -0.8682
 7182TIP3   OH242960   4.604   2.182   6.772  1.2497 -0.5933  0.3461
 7182TIP3    H142961   4.651   2.253   6.728 -1.3910  0.3066 -1.1401
 7182TIP3    H242962   4.594   2.115   6.706  1.2234 -1.1630  0.9243
 7183TIP3   OH242963   5.293   2.187  10.689 -0.3594 -0.0047 -0.1482
 7183TIP3    H142964   5.340   2.267  10.712 -0.7260  0.4423 -0.9639
 7183TIP3    H242965   5.360   2.131  10.650 -0.1827  0.0425  0.0843
 7184TIP3   OH242966   0.498   3.470  17.036  0.3386 -0.1236 -0.2368
 7184TIP3    H142967   0.471   3.562  17.033  0.1861 -0.1495  0.3213
 7184TIP3    H242968   0.560   3.461  16.963  1.0947  0.6679  0.2984
 7185TIP3   OH242969   2.892   2.616   3.649  0.4862 -0.3827 -0.2673
 7185TIP3    H142970   2.843   2.571   3.718 -1.4835  0.4552 -1.0856
 7185TIP3    H242971   2.865   2.707   3.657  3.3681  0.4354  0.4501
 7186TIP3   OH242972   3.359   4.712   2.362  0.1213  0.0674  0.1555
 7186TIP3    H142973   3.327   4.630   2.397 -1.1599  1.6744  2.9073
 7186TIP3    H242974   3.423   4.743   2.426  1.2281  0.8208 -1.2755
 7187TIP3   OH242975   3.264   5.967   5.844  0.3100  0.2960 -0.5814
 7187TIP3    H142976   3.275   5.936   5.934  0.3061 -2.1070 -1.3979
 7187TIP3    H242977   3.183   6.017   5.846 -0.2874 -0.6877  0.5049
 7188TIP3   OH242978   4.069   6.629   2.848  0.1150  0.1242 -0.4846
 7188TIP3    H142979   4.075   6.538   2.876  0.1964 -0.0519 -1.0877
 7188TIP3    H242980   4.024   6.627   2.764 -1.6090  0.8100  0.4008
 7189TIP3   OH242981   4.451   3.338   0.543 -0.1173 -0.5611  0.0689
 7189TIP3    H142982   4.513   3.393   0.591 -1.7539  1.3469  0.0633
 7189TIP3    H242983   4.471   3.354   0.451  0.2116 -0.9444  0.0701
 7190TIP3   OH242984   1.107   2.008   3.112  0.0211 -0.3204 -0.4411
 7190TIP3    H142985   1.069   1.973   3.193 -1.5384 -0.9944 -1.4367
 7190TIP3    H242986   1.033   2.017   3.053  0.6133  3.2514 -0.7567
 7191TIP3   OH242987   3.766   5.294   5.791  0.3884  0.1134  0.2709
 7191TIP3    H142988   3.711   5.276   5.867  0.2466  2.2529  0.7080
 7191TIP3    H242989   3.770   5.211   5.744  2.0450 -1.7916  3.5994
 7192TIP3   OH242990   5.717   0.070  15.979  0.2025 -0.3678  0.3273
 7192TIP3    H142991   5.789   0.129  15.998  0.7650 -1.4920  1.8034
 7192TIP3    H242992   5.657   0.082  16.053  0.3362 -1.6484  0.6489
 7193TIP3   OH242993   0.402   3.890   3.909 -0.2628  0.6265 -0.5264
 7193TIP3    H142994   0.494   3.864   3.902 -0.4145 -0.5281  1.3504
 7193TIP3    H242995   0.391   3.915   4.001 -1.9387  0.2983 -0.6170
 7194TIP3   OH242996   4.034   5.474  12.421 -0.0659 -0.6796 -0.0473
 7194TIP3    H142997   4.030   5.379  12.408  1.6246 -0.8889  0.8054
 7194TIP3    H242998   4.127   5.493  12.431 -0.4609  0.9537  0.7318
 7195TIP3   OH242999   5.067   5.862   2.225 -0.3546  0.4172  0.0840
 7195TIP3    H143000   5.151   5.899   2.251  0.1696 -2.0175  2.0022
 7195TIP3    H243001   5.002   5.920   2.265  0.4426  0.4173  1.3895
 7196TIP3   OH243002   2.005   0.782   6.117 -0.3037 -0.0289 -0.7323
 7196TIP3    H143003   1.990   0.712   6.181 -1.1045  0.1265 -0.7407
 7196TIP3    H243004   2.099   0.795   6.118 -0.0756 -1.5101 -1.1385
 7197TIP3   OH243005   4.995   5.861  14.492 -0.4775 -0.1022  0.2939
 7197TIP3    H143006   4.952   5.835  14.411 -0.2118 -1.4971  0.5759
 7197TIP3    H243007   4.940   5.931  14.527 -0.4641  0.6755 -1.1954
 7198TIP3   OH243008   2.384   0.330   0.597 -0.1763 -0.1253  0.0452
 7198TIP3    H143009   2.422   0.387   0.531  0.3441  0.2930  0.7069
 7198TIP3    H243010   2.336   0.264   0.547 -0.3351  0.5755 -0.7293
 7199TIP3   OH243011   1.515   3.797   5.579  0.1158 -0.3699  0.0036
 7199TIP3    H143012   1.564   3.716   5.588  0.8545  0.0842  0.1115
 7199TIP3    H243013   1.458   3.783   5.503  2.4730  0.1276 -1.9182
 7200TIP3   OH243014   6.784   4.240  10.317  0.3313 -0.1627  0.3067
 7200TIP3    H143015   6.748   4.175  10.377  0.2208  0.4381  0.8975
 7200TIP3    H243016   6.877   4.244  10.340  0.1161  0.7229  1.0603
 7201TIP3   OH243017   0.450   2.289  11.045  0.1288 -0.2967  0.4642
 7201TIP3    H143018   0.437   2.197  11.068 -0.6439 -0.3954 -0.3720
 7201TIP3    H243019   0.538   2.292  11.008 -0.1255 -0.8229 -0.1792
 7202TIP3   OH243020   2.009   4.946   1.568 -0.7597  0.3921  0.0283
 7202TIP3    H143021   2.055   4.890   1.630 -1.6373  0.9973  1.2439
 7202TIP3    H243022   1.955   5.003   1.622  1.2960  3.5346 -1.0741
 7203TIP3   OH243023   2.118   5.693  15.087 -0.8911  0.1238 -0.0014
 7203TIP3    H143024   2.178   5.671  15.015 -0.3658 -2.7547  1.2644
 7203TIP3    H243025   2.068   5.767  15.053  0.7805  0.1842 -2.5369
 7204TIP3   OH243026   4.389   3.097  15.051  0.7561  0.2695  0.2376
 7204TIP3    H143027   4.354   3.140  14.973  0.3101  0.7930  0.7262
 7204TIP3    H243028   4.479   3.127  15.057  1.0270 -0.3657 -0.5032
 7205TIP3   OH243029   0.803   2.514   0.333  0.1734  0.6830  0.4050
 7205TIP3    H143030   0.882   2.485   0.378  1.0808 -0.1896 -1.7207
 7205TIP3    H243031   0.817   2.607   0.316  0.3993  0.7019  0.6986
 7206TIP3   OH243032   4.124   1.722   2.362 -0.1513  0.4918 -0.0091
 7206TIP3    H143033   4.162   1.661   2.298 -0.8192 -0.7460  0.7426
 7206TIP3    H243034   4.174   1.803   2.351  0.5613 -0.0941 -1.2362
 7207TIP3   OH243035   4.615   1.200  13.669 -0.8301  0.1699 -0.1146
 7207TIP3    H143036   4.528   1.195  13.628 -1.2311 -0.1309  0.7458
 7207TIP3    H243037   4.653   1.281  13.636 -2.5032  1.6731  1.5255
 7208TIP3   OH243038   3.426   0.273  15.582 -0.2575  0.5079  0.8870
 7208TIP3    H143039   3.504   0.324  15.561  0.1930 -0.8924 -1.0107
 7208TIP3    H243040   3.459   0.198  15.630 -0.6142  0.6702  1.3857
 7209TIP3   OH243041   5.436   2.220  15.088 -0.6966  0.4831  0.3789
 7209TIP3    H143042   5.467   2.133  15.063 -2.4009  0.2459 -1.0516
 7209TIP3    H243043   5.485   2.241  15.167  0.6656 -1.2326  0.0330
 7210TIP3   OH243044   6.110   0.362  12.337  0.3948 -0.4397  0.5514
 7210TIP3    H143045   6.091   0.454  12.356 -0.6481 -0.1503 -1.7168
 7210TIP3    H243046   6.023   0.322  12.325  0.8237 -1.8074  1.8290
 7211TIP3   OH243047   6.298   5.475  12.526  0.8846 -0.0982  0.3560
 7211TIP3    H143048   6.321   5.544  12.588  0.9890  0.0633  0.1391
 7211TIP3    H243049   6.305   5.517  12.440  0.1466 -0.1484  0.2685
 7212TIP3   OH243050   4.784   5.158  11.331 -0.3978 -0.3192  0.1091
 7212TIP3    H143051   4.824   5.232  11.376  1.3267 -1.3955  0.3605
 7212TIP3    H243052   4.706   5.138  11.384  0.7206 -0.5472  1.7025
 7213TIP3   OH243053   4.015   3.192   5.421  0.4316  0.6423  0.3761
 7213TIP3    H143054   4.022   3.159   5.510 -0.5323  2.4766  1.1566
 7213TIP3    H243055   3.977   3.119   5.371  2.5164 -0.9789  1.0683
 7214TIP3   OH243056   2.339   4.962   0.671  0.9821 -0.0020 -0.1542
 7214TIP3    H143057   2.413   4.953   0.731 -0.2330  1.9895  1.7423
 7214TIP3    H243058   2.282   5.027   0.713 -1.2668 -0.6179 -2.1303
 7215TIP3   OH243059   3.929   5.002  13.535 -0.4282  0.2042 -0.0493
 7215TIP3    H143060   3.840   5.036  13.549  0.1069  1.5982 -0.0122
 7215TIP3    H243061   3.986   5.063  13.581  0.3783 -2.1469  2.1764
 7216TIP3   OH243062   3.813   0.016   0.108  0.1516  0.4467  0.2509
 7216TIP3    H143063   3.864   0.078   0.057 -0.4552  2.5583  2.1292
 7216TIP3    H243064   3.879  -0.043   0.147  0.8380  0.7231 -0.4828
 7217TIP3   OH243065   1.342   1.491   3.677 -0.1250  0.0697 -0.0842
 7217TIP3    H143066   1.349   1.445   3.594  1.7485 -0.8967  0.5683
 7217TIP3    H243067   1.279   1.561   3.661 -0.0302 -0.3032 -2.2083
 7218TIP3   OH243068   0.880   2.942   0.086  0.1454  0.1420  0.4630
 7218TIP3    H143069   0.813   2.997   0.126  0.3255 -0.1987  1.2276
 7218TIP3    H243070   0.899   2.984   0.002  0.4698  1.3965  1.1555
 7219TIP3   OH243071   4.138   0.968   0.378  0.0193  0.0973 -0.1587
 7219TIP3    H143072   4.044   0.972   0.394  0.1224  2.0404  0.0039
 7219TIP3    H243073   4.177   0.950   0.464 -0.0845  1.0472  0.0881
 7220TIP3   OH243074   0.327   0.386  14.201  0.3508 -0.0054 -0.2586
 7220TIP3    H143075   0.407   0.433  14.178  0.9947 -0.7162  0.4671
 7220TIP3    H243076   0.300   0.343  14.120  1.1226 -0.3643 -0.3276
 7221TIP3   OH243077   0.437   6.675  14.117  0.4406 -0.2993 -0.1761
 7221TIP3    H143078   0.444   6.720  14.202 -2.5306  0.3913 -0.2482
 7221TIP3    H243079   0.464   6.585  14.136  1.3145  0.2148  1.1510
 7222TIP3   OH243080   3.550   2.389  12.452 -0.3541 -0.0216 -0.1702
 7222TIP3    H143081   3.624   2.449  12.441 -0.7715  0.5143 -0.1163
 7222TIP3    H243082   3.482   2.426  12.396 -0.6659 -0.3623 -0.0150
 7223TIP3   OH243083   5.289   6.200  12.414  0.1797 -0.4987 -0.5720
 7223TIP3    H143084   5.329   6.272  12.365  0.6572  0.3602  1.0516
 7223TIP3    H243085   5.197   6.203  12.389  0.4558 -0.1997 -1.5699
 7224TIP3   OH243086   0.915   6.453   0.956  0.3067 -0.7041 -0.2701
 7224TIP3    H143087   0.965   6.488   1.031 -0.0327  0.5112 -0.5960
 7224TIP3    H243088   0.976   6.392   0.914  2.1217  1.8676 -1.5345
 7225TIP3   OH243089   4.848   1.182   2.623 -0.7828  0.0377 -0.4511
 7225TIP3    H143090   4.871   1.269   2.591  1.2412 -0.1418  0.4226
 7225TIP3    H243091   4.839   1.129   2.544  1.0696  0.3329 -0.8991
 7226TIP3   OH243092   4.544   4.730  13.197  0.2223  0.0790 -0.5404
 7226TIP3    H143093   4.606   4.680  13.144  0.1326 -0.6827  0.0492
 7226TIP3    H243094   4.518   4.803  13.142  1.1078  0.0114 -1.0599
 7227TIP3   OH243095   4.741   6.165   1.351 -0.3726 -0.0711  0.4690
 7227TIP3    H143096   4.681   6.091   1.362 -0.9874  0.2136 -0.8884
 7227TIP3    H243097   4.764   6.163   1.258  2.2104 -0.5393  1.0881
 7228TIP3   OH243098   4.069   4.081   2.745  0.3629  0.3113 -0.8204
 7228TIP3    H143099   4.090   3.989   2.756  1.2832  0.4808 -1.1392
 7228TIP3    H243100   4.124   4.110   2.672 -0.7101  0.8423 -1.4342
 7229TIP3   OH243101   3.284   1.362   0.931 -0.7437  0.4379  0.4812
 7229TIP3    H143102   3.232   1.350   1.010  0.4164  1.7024  1.4797
 7229TIP3    H243103   3.265   1.452   0.903  1.0516  1.0265  1.0241
 7230TIP3   OH243104   5.116   2.411   3.653  0.0416  0.0248 -0.1240
 7230TIP3    H143105   5.138   2.403   3.559 -0.7437  0.8358 -0.3756
 7230TIP3    H243106   5.126   2.322   3.687 -0.2203 -0.3862 -1.1006
 7231TIP3   OH243107   5.899   5.606  16.790  0.9194 -0.3559 -0.3575
 7231TIP3    H143108   5.906   5.512  16.777  1.0218 -0.5573  1.0928
 7231TIP3    H243109   5.897   5.643  16.702 -1.6075 -1.8944 -0.9771
 7232TIP3   OH243110   2.823   0.560  14.538  0.1979  0.6325 -0.1737
 7232TIP3    H143111   2.735   0.549  14.574 -0.1691  0.8310 -0.9839
 7232TIP3    H243112   2.838   0.654  14.541  1.2421  0.4197  1.9242
 7233TIP3   OH243113   6.087   1.606   0.130  0.3681 -0.6964 -0.1901
 7233TIP3    H143114   6.065   1.584   0.040  0.8060 -2.4380  0.1224
 7233TIP3    H243115   6.156   1.545   0.154  0.0549 -0.4382  1.4233
 7234TIP3   OH243116   4.649   4.482  11.909  0.2413  0.4362 -0.2103
 7234TIP3    H143117   4.627   4.389  11.910  1.2442  0.1909  0.9612
 7234TIP3    H243118   4.565   4.527  11.903 -0.4276 -0.5200  1.5929
 7235TIP3   OH243119   3.223   5.456   5.799  0.0996 -0.3334  0.3833
 7235TIP3    H143120   3.246   5.487   5.886 -1.7865  0.5359  0.6061
 7235TIP3    H243121   3.154   5.515   5.770 -0.2406 -1.4450 -1.1454
 7236TIP3   OH243122   6.586   3.691  16.178  0.0547  0.4186  0.1604
 7236TIP3    H143123   6.568   3.663  16.268  0.6558  2.5566  0.9869
 7236TIP3    H243124   6.681   3.689  16.171 -0.0202 -0.5253 -0.7165
 7237TIP3   OH243125   0.188   3.346  14.783  0.8554 -0.5665  0.3277
 7237TIP3    H143126   0.254   3.278  14.772 -0.2710 -1.2736 -2.2426
 7237TIP3    H243127   0.238   3.428  14.779  1.8534 -1.1553  0.6088
 7238TIP3   OH243128   1.458   0.443  16.972  0.1475 -0.0046 -0.1563
 7238TIP3    H143129   1.371   0.483  16.967  0.5293  0.9729  0.9604
 7238TIP3    H243130   1.442   0.350  16.953 -1.1711  0.1257  0.2495
 7239TIP3   OH243131   3.682   1.311  14.287 -0.5278 -0.0772 -0.2456
 7239TIP3    H143132   3.677   1.357  14.203 -1.0540  1.7423  0.7544
 7239TIP3    H243133   3.752   1.355  14.335 -1.3856  0.0172  0.9351
 7240TIP3   OH243134   3.670   6.582  14.583 -0.3155  0.1752  0.3682
 7240TIP3    H143135   3.581   6.585  14.616 -0.4543  1.1329 -0.0873
 7240TIP3    H243136   3.679   6.661  14.530  0.2895 -0.7113 -0.8896
 7241TIP3   OH243137   2.806   5.817   0.502  0.6686 -0.1238 -0.0356
 7241TIP3    H143138   2.756   5.847   0.427  0.1125  0.2788  0.4909
 7241TIP3    H243139   2.844   5.734   0.474 -0.8834 -0.7963 -0.2060
 7242TIP3   OH243140   4.013   5.645  12.739  0.4200 -0.3066 -0.2587
 7242TIP3    H143141   4.070   5.702  12.688  0.0848  0.7368  0.5185
 7242TIP3    H243142   4.046   5.557  12.722  2.0841  0.2574 -0.0483
 7243TIP3   OH243143   1.343   2.400  12.352 -0.0251  0.2831  0.1455
 7243TIP3    H143144   1.331   2.471  12.416  2.3566 -0.3526  1.3575
 7243TIP3    H243145   1.276   2.335  12.375  0.3238  0.4009  1.5228
 7244TIP3   OH243146   0.677   2.014  16.154 -0.5982 -0.4746 -0.2383
 7244TIP3    H143147   0.754   2.020  16.211 -1.0858  1.2552  0.2638
 7244TIP3    H243148   0.602   2.019  16.214 -1.1131 -0.1426 -0.9038
 7245TIP3   OH243149   4.835   3.448   2.372 -0.4516  0.4070 -0.0658
 7245TIP3    H143150   4.844   3.514   2.441 -2.6304  0.3818  0.2657
 7245TIP3    H243151   4.835   3.364   2.417 -2.7481  0.4286  0.0153
 7246TIP3   OH243152   4.205   4.119  11.371  0.8862  0.2946  0.0883
 7246TIP3    H143153   4.126   4.071  11.346  0.2318  0.5829  1.5368
 7246TIP3    H243154   4.217   4.183  11.300 -0.0299  0.0659 -0.2867
 7247TIP3   OH243155   0.797   2.505   4.277 -0.3035 -0.1988  0.5217
 7247TIP3    H143156   0.774   2.497   4.370 -1.2064 -2.4024  0.1502
 7247TIP3    H243157   0.856   2.431   4.261  0.1934  0.4195 -0.5694
 7248TIP3   OH243158   6.698   1.394   1.295 -0.1233  0.4850 -0.4261
 7248TIP3    H143159   6.689   1.315   1.242  1.2219 -0.1795  0.3097
 7248TIP3    H243160   6.685   1.466   1.233 -0.0786 -0.2931 -1.3511
 7249TIP3   OH243161   3.216   3.807  11.367  0.4922  0.2166  0.5244
 7249TIP3    H143162   3.260   3.723  11.354 -1.2500 -0.7878  0.9241
 7249TIP3    H243163   3.191   3.807  11.459 -0.0137  0.9281  0.3926
 7250TIP3   OH243164   6.471   0.048   3.001 -0.1998 -0.1372 -0.2874
 7250TIP3    H143165   6.542   0.045   3.065  0.2787 -0.4501 -0.8249
 7250TIP3    H243166   6.486   0.130   2.953 -1.1861  0.6388  0.7081
 7251TIP3   OH243167   1.928   4.202   4.364  0.4642  0.0477  0.4468
 7251TIP3    H143168   1.961   4.266   4.300  0.5645  0.2909  0.7381
 7251TIP3    H243169   1.995   4.201   4.433  0.9157 -1.0541  0.0103
 7252TIP3   OH243170   1.585   4.841   5.559  0.0472  0.4660 -0.2467
 7252TIP3    H143171   1.547   4.884   5.635 -0.2337 -1.9336  1.0324
 7252TIP3    H243172   1.526   4.862   5.487 -0.0080  2.2811  0.3147
 7253TIP3   OH243173   2.286   3.941   5.564 -0.9678  0.1408 -0.8635
 7253TIP3    H143174   2.271   3.890   5.643 -1.1010  0.1103 -0.9094
 7253TIP3    H243175   2.229   4.017   5.572  0.8796  1.4339  0.2566
 7254TIP3   OH243176   5.929   4.238  14.455 -0.3243  0.2564  0.4273
 7254TIP3    H143177   5.966   4.325  14.463 -0.0797 -0.0169  2.4932
 7254TIP3    H243178   5.851   4.239  14.511  0.2415 -1.1304  1.2742
 7255TIP3   OH243179   3.130   6.553   3.769  0.7050  0.7139 -0.0540
 7255TIP3    H143180   3.222   6.531   3.783 -0.1698 -2.3803  1.3533
 7255TIP3    H243181   3.091   6.545   3.856 -0.9906  1.3951 -0.7409
 7256TIP3   OH243182   4.882   2.899   1.530 -0.7260  0.0517 -0.4553
 7256TIP3    H143183   4.942   2.826   1.516 -2.3796 -1.2438 -0.8755
 7256TIP3    H243184   4.912   2.967   1.470  0.4324 -0.4994 -0.5116
 7257TIP3   OH243185   0.008   5.957  16.081  0.0899 -1.1852 -0.4114
 7257TIP3    H143186   0.084   5.916  16.122  2.2504  1.9126 -1.1425
 7257TIP3    H243187  -0.064   5.942  16.143  2.0853 -1.0902  2.0040
 7258TIP3   OH243188   6.646   5.959  17.100 -0.0393  0.0371  0.8617
 7258TIP3    H143189   6.685   6.036  17.058  2.7634  0.0865  3.3779
 7258TIP3    H243190   6.552   5.977  17.099  0.2668  1.8286 -1.7795
 7259TIP3   OH243191   4.093   6.656   0.572 -0.4166 -0.5333 -0.1724
 7259TIP3    H143192   3.999   6.663   0.589 -0.9018 -2.3004 -1.9725
 7259TIP3    H243193   4.109   6.713   0.497 -0.5248 -2.1299 -1.4348
 7260TIP3   OH243194   1.324   6.288   0.252  0.0404  0.1473 -0.3883
 7260TIP3    H143195   1.323   6.378   0.283  0.2430 -0.4960  1.5622
 7260TIP3    H243196   1.245   6.249   0.291 -0.8409 -0.1516 -2.3995
 7261TIP3   OH243197   1.222   2.331  11.935  0.6407 -0.2632  0.1272
 7261TIP3    H143198   1.154   2.338  11.868  1.2864 -3.0988 -0.8775
 7261TIP3    H243199   1.188   2.268  11.998  0.8517  0.9661  1.4935
 7262TIP3   OH243200   2.421   1.530  13.138  0.2439 -0.5748 -0.0744
 7262TIP3    H143201   2.485   1.599  13.153 -1.9587  1.3605  0.8179
 7262TIP3    H243202   2.391   1.544  13.048 -0.9859  0.3533  0.4601
 7263TIP3   OH243203   3.231   6.634  15.349 -0.1696 -0.0031  0.8645
 7263TIP3    H143204   3.302   6.581  15.385  0.1295  0.0170  0.3118
 7263TIP3    H243205   3.151   6.587  15.374  0.1062 -0.9141  0.0669
 7264TIP3   OH243206   0.737   4.514   1.179 -0.7407  0.0033  0.0432
 7264TIP3    H143207   0.702   4.488   1.264  0.0960  0.2839  0.4822
 7264TIP3    H243208   0.813   4.457   1.165  0.5606  1.5440  0.5967
 7265TIP3   OH243209   5.612   0.253   4.075 -0.4387 -0.2970 -0.5674
 7265TIP3    H143210   5.654   0.296   4.149 -1.1269 -0.0140 -0.3348
 7265TIP3    H243211   5.584   0.325   4.018 -2.6984 -0.3500  0.4214
 7266TIP3   OH243212   5.785   6.372   1.458  0.1795 -0.1946  0.3861
 7266TIP3    H143213   5.762   6.405   1.372  0.8918 -0.3094  0.1433
 7266TIP3    H243214   5.814   6.282   1.443  2.2176  0.4133  0.4393
 7267TIP3   OH243215   3.916   2.100  11.619 -0.7976  0.2006  0.1504
 7267TIP3    H143216   3.835   2.138  11.652 -1.5161  0.4600 -1.8398
 7267TIP3    H243217   3.898   2.080  11.527  0.7591 -1.5667  0.1888
 7268TIP3   OH243218   0.773   4.710   5.349 -0.5279  0.3728  0.2565
 7268TIP3    H143219   0.702   4.748   5.297 -1.8562 -0.7935  1.1741
 7268TIP3    H243220   0.729   4.651   5.411  0.9073  2.2344  3.1846
 7269TIP3   OH243221   0.770   3.555   1.559 -0.1490  0.4116  0.5118
 7269TIP3    H143222   0.776   3.643   1.521  0.1125  0.6612  1.1159
 7269TIP3    H243223   0.795   3.496   1.487 -1.0624  0.7782 -0.1117
 7270TIP3   OH243224   6.470   3.353   2.422  0.2078 -1.1343 -0.4273
 7270TIP3    H143225   6.402   3.395   2.369 -0.9639 -0.9772  1.1966
 7270TIP3    H243226   6.542   3.416   2.421 -1.2353  0.6078  1.3062
 7271TIP3   OH243227   3.768   5.385  13.263  0.6988  0.3335  0.7256
 7271TIP3    H143228   3.815   5.365  13.182 -0.6724 -0.0436 -0.0049
 7271TIP3    H243229   3.776   5.480  13.272 -0.4034  0.5891 -0.6912
 7272TIP3   OH243230   4.338   1.716   3.558  0.2795 -0.0798 -0.2956
 7272TIP3    H143231   4.312   1.718   3.466 -0.4738 -1.0127 -0.1203
 7272TIP3    H243232   4.379   1.630   3.569 -1.4660 -0.8058  0.7066
 7273TIP3   OH243233   3.927   1.141   3.111  0.1378  0.5150  0.5791
 7273TIP3    H143234   3.933   1.213   3.173 -1.0391  0.1014  1.1887
 7273TIP3    H243235   3.982   1.072   3.149  1.9314  1.3666 -0.4197
 7274TIP3   OH243236   1.407   1.034   3.740  0.0587 -0.2329  0.5322
 7274TIP3    H143237   1.460   1.106   3.707 -0.7154  0.8911  1.6805
 7274TIP3    H243238   1.354   1.073   3.809  0.8761 -2.2609  2.3761
 7275TIP3   OH243239   2.469   0.484   0.798  0.1373  0.0116  0.2615
 7275TIP3    H143240   2.387   0.528   0.819  1.2738  2.7319 -0.8388
 7275TIP3    H243241   2.451   0.438   0.716 -0.0239  1.4092 -0.5003
 7276TIP3   OH243242   5.311   0.359   1.766 -0.4621 -0.1681  0.5510
 7276TIP3    H143243   5.309   0.326   1.855  0.8789  0.6516  0.9076
 7276TIP3    H243244   5.399   0.338   1.734 -0.6142  0.3644 -0.2487
 7277TIP3   OH243245   3.144   4.524  13.308  0.5685 -0.5630 -0.0610
 7277TIP3    H143246   3.079   4.495  13.244 -0.4550  0.5781  0.4154
 7277TIP3    H243247   3.093   4.576  13.371  2.1999  1.7133 -0.5475
 7278TIP3   OH243248   3.134   5.548  11.409 -1.0323 -0.7089 -0.3404
 7278TIP3    H143249   3.196   5.498  11.355 -1.0661  0.8536 -1.8587
 7278TIP3    H243250   3.053   5.546  11.359 -1.2109  0.3307 -0.0888
 7279TIP3   OH243251   5.544   0.108  14.859 -0.0220 -0.1559 -0.1065
 7279TIP3    H143252   5.638   0.091  14.851  0.1752  0.3543  1.0390
 7279TIP3    H243253   5.531   0.132  14.951 -1.4155 -1.0820 -0.0403
 7280TIP3   OH243254   1.891   3.726   3.163 -0.2659  0.3386 -0.1451
 7280TIP3    H143255   1.931   3.724   3.249 -1.0199  0.2843  0.2053
 7280TIP3    H243256   1.800   3.700   3.178 -0.2416 -0.2880 -1.0389
 7281TIP3   OH243257   5.508   6.639   0.640 -0.0172 -0.1895 -0.2260
 7281TIP3    H143258   5.521   6.708   0.706  2.4575  0.5890 -1.4883
 7281TIP3    H243259   5.447   6.678   0.577 -0.3528  0.0285  0.2297
 7282TIP3   OH243260   6.121   1.751  13.466  0.0242 -0.1941 -0.5423
 7282TIP3    H143261   6.192   1.709  13.419  1.7074  0.1340  1.6352
 7282TIP3    H243262   6.128   1.844  13.446 -0.8650 -0.3600 -1.6813
 7283TIP3   OH243263   6.780   0.795  16.834  0.4220  0.0271 -0.2066
 7283TIP3    H143264   6.785   0.714  16.782 -0.7731 -0.6961  0.7709
 7283TIP3    H243265   6.848   0.852  16.797  1.0187 -1.2783 -1.1620
 7284TIP3   OH243266   6.254   4.464   2.265  0.1900  0.3572  0.2832
 7284TIP3    H143267   6.290   4.552   2.254  0.5781  0.0074 -1.5014
 7284TIP3    H243268   6.325   4.406   2.236 -0.7128 -0.4731 -0.2950
 7285TIP3   OH243269   0.943   2.799   3.223  0.0438  0.0037  0.2790
 7285TIP3    H143270   0.990   2.819   3.304 -2.4318 -0.0651  1.7530
 7285TIP3    H243271   0.879   2.869   3.214 -1.5724 -1.5103 -0.1413
 7286TIP3   OH243272   1.653   3.019  16.504  0.5145 -0.8245 -0.4174
 7286TIP3    H143273   1.646   2.940  16.558  1.6580 -1.2229 -0.8448
 7286TIP3    H243274   1.601   3.084  16.551 -0.2276 -1.7524  0.0768
 7287TIP3   OH243275   0.003   1.376  16.306  0.1998 -0.0549 -0.0963
 7287TIP3    H143276  -0.086   1.350  16.281 -0.0976 -0.2419  1.1109
 7287TIP3    H243277   0.008   1.356  16.399  1.0808  1.1696  0.1340
 7288TIP3   OH243278   3.708   6.065   4.476 -0.0075 -0.3686 -0.5120
 7288TIP3    H143279   3.732   6.122   4.550  1.3751  0.1034 -1.3128
 7288TIP3    H243280   3.739   6.112   4.399 -2.0222 -0.5556 -1.4678
 7289TIP3   OH243281   3.756   4.447   3.510  0.4583  0.1605  0.2854
 7289TIP3    H143282   3.734   4.433   3.418  2.0484  1.4079 -0.3007
 7289TIP3    H243283   3.817   4.521   3.510  0.3026  0.3375  2.3634
 7290TIP3   OH243284   4.381   3.886  16.931 -0.0371  0.4218 -0.2045
 7290TIP3    H143285   4.377   3.914  16.839  1.4451  2.8033  0.4070
 7290TIP3    H243286   4.294   3.852  16.950 -0.6744  0.8871 -2.1840
 7291TIP3   OH243287   0.268   5.920  17.142  0.2314 -0.1364  0.1659
 7291TIP3    H143288   0.348   5.972  17.142 -1.7526  3.1023  0.8275
 7291TIP3    H243289   0.231   5.933  17.230 -0.8930 -1.7741 -0.0387
 7292TIP3   OH243290   1.409   2.318   5.669 -0.0258 -0.0358  0.3357
 7292TIP3    H143291   1.334   2.370   5.640  0.6509 -1.2787 -4.1181
 7292TIP3    H243292   1.442   2.363   5.746 -2.7263  3.0015 -0.1803
 7293TIP3   OH243293   0.187   5.825   1.025 -0.3290 -0.1654 -1.0712
 7293TIP3    H143294   0.104   5.806   1.070  0.1622  0.8391  0.2654
 7293TIP3    H243295   0.250   5.767   1.067  0.1421  0.8146 -0.4181
 7294TIP3   OH243296   4.032   4.004   1.878  1.1406 -0.2496  0.1089
 7294TIP3    H143297   4.007   4.040   1.963  0.2414 -1.0945  0.2118
 7294TIP3    H243298   4.127   3.990   1.885  1.1456  0.1160  0.8041
 7295TIP3   OH243299   1.782   3.702  12.635  0.1251 -0.8363  0.2089
 7295TIP3    H143300   1.820   3.788  12.622 -0.1904 -0.7812 -0.3644
 7295TIP3    H243301   1.752   3.702  12.726  0.2225 -0.3785  0.2377
 7296TIP3   OH243302   3.339   1.510  16.608 -0.2787  0.3720 -0.0310
 7296TIP3    H143303   3.371   1.451  16.540 -0.5112  1.0187 -0.7105
 7296TIP3    H243304   3.257   1.471  16.638 -0.5023  0.4203 -0.5746
 7297TIP3   OH243305   4.500   5.400   4.614  0.0709  0.3266  0.6825
 7297TIP3    H143306   4.517   5.356   4.530  2.0447  0.2621  1.0914
 7297TIP3    H243307   4.503   5.493   4.593  0.2819  0.3077  0.6273
 7298TIP3   OH243308   3.485   4.781  16.495  0.0379  0.3015  0.5135
 7298TIP3    H143309   3.514   4.691  16.480 -0.8442 -0.0020  0.5877
 7298TIP3    H243310   3.492   4.824  16.410 -1.7560 -0.4817 -0.0356
 7299TIP3   OH243311   1.703   0.140  17.093  0.6719 -0.1065 -0.0873
 7299TIP3    H143312   1.730   0.169  17.005 -0.4427 -0.2127 -0.4669
 7299TIP3    H243313   1.708   0.219  17.147  3.3031 -0.4405  0.2388
 7300TIP3   OH243314   5.845   1.896  13.335 -0.1675  0.3363 -0.4449
 7300TIP3    H143315   5.922   1.949  13.315  0.7147 -0.5913  0.4657
 7300TIP3    H243316   5.880   1.818  13.378 -1.6470  0.0964  0.3459
 7301TIP3   OH243317   5.893   2.045   0.524  0.3118 -0.0717  0.2547
 7301TIP3    H143318   5.884   1.959   0.565  0.1123  0.2474  0.8790
 7301TIP3    H243319   5.865   2.031   0.433 -1.5867 -0.2398  0.8392
 7302TIP3   OH243320   2.456   2.160   4.857  0.1239  0.6078  0.2612
 7302TIP3    H143321   2.531   2.145   4.916  0.3414  0.8042  0.0349
 7302TIP3    H243322   2.381   2.165   4.916  0.4950  1.9994  0.6390
 7303TIP3   OH243323   5.792   6.137  11.789 -0.7346  0.3453  1.1319
 7303TIP3    H143324   5.774   6.046  11.811  1.1041 -0.2609  0.2909
 7303TIP3    H243325   5.888   6.142  11.786 -0.8051  1.4223 -2.2851
 7304TIP3   OH243326   1.093   1.856  16.229  0.0726  1.1242 -0.3752
 7304TIP3    H143327   1.107   1.813  16.313 -0.2880 -0.1356 -0.9510
 7304TIP3    H243328   1.181   1.872  16.196  0.2154 -0.2213 -0.6803
 7305TIP3   OH243329   5.166   2.435  13.817 -0.3736  0.4819  0.2613
 7305TIP3    H143330   5.222   2.365  13.785  1.8818  3.0116 -1.6327
 7305TIP3    H243331   5.187   2.443  13.910  1.0872  0.2226 -0.0452
 7306TIP3   OH243332   6.137   2.004   5.196  0.3507 -0.1009 -0.0418
 7306TIP3    H143333   6.127   2.079   5.137 -0.6800  1.6243  2.2928
 7306TIP3    H243334   6.150   1.929   5.137 -2.2143  1.3229 -2.5245
 7307TIP3   OH243335   4.318   2.198  11.799  0.4756 -0.7735 -0.0072
 7307TIP3    H143336   4.354   2.189  11.710  0.1450  0.2672 -0.2505
 7307TIP3    H243337   4.393   2.181  11.856  1.0190 -0.0947 -0.5014
 7308TIP3   OH243338   3.134   4.222  11.521 -0.0588  0.1181  0.4866
 7308TIP3    H143339   3.164   4.177  11.600 -0.7865  0.1762  0.7994
 7308TIP3    H243340   3.194   4.192  11.453  0.3529 -0.2110  0.9848
 7309TIP3   OH243341   6.162   3.201   1.501 -0.7964  0.1825  0.1159
 7309TIP3    H143342   6.244   3.156   1.481 -1.0849 -0.6115  0.6556
 7309TIP3    H243343   6.161   3.207   1.597  0.0983  3.0233 -0.0032
 7310TIP3   OH243344   1.302   5.607   3.266  0.3107 -0.7799  0.2793
 7310TIP3    H143345   1.287   5.699   3.288 -2.2301 -1.1421  0.2610
 7310TIP3    H243346   1.340   5.609   3.178 -0.0100  0.2399  0.1552
 7311TIP3   OH243347   5.754   4.481   2.463 -0.7133 -0.0735 -0.9278
 7311TIP3    H143348   5.830   4.535   2.440  0.1090 -0.2641  1.2910
 7311TIP3    H243349   5.760   4.406   2.404  2.8657 -1.8723  1.5231
 7312TIP3   OH243350   6.215   2.153   2.866  0.0428 -0.2580 -0.5121
 7312TIP3    H143351   6.222   2.248   2.875  0.6152 -0.2160 -1.3800
 7312TIP3    H243352   6.181   2.139   2.778 -0.4859 -0.8531 -0.2271
 7313TIP3   OH243353   4.929   1.792  12.661 -0.6858  0.6543 -0.2409
 7313TIP3    H143354   4.990   1.863  12.682 -1.4952  2.4835 -3.7241
 7313TIP3    H243355   4.845   1.821  12.696 -0.3383 -0.2987  1.4873
 7314TIP3   OH243356   1.417   1.460   4.168  0.3034  0.2473  0.6994
 7314TIP3    H143357   1.506   1.486   4.143  0.4411 -0.9995 -0.2072
 7314TIP3    H243358   1.363   1.483   4.093 -0.7310  3.9248  2.4941
 7315TIP3   OH243359   3.516   3.900   1.286  0.1895  0.4772 -0.8473
 7315TIP3    H143360   3.601   3.856   1.295 -0.3695 -0.9220 -2.2961
 7315TIP3    H243361   3.530   3.965   1.217  0.3931  1.0029 -0.3078
 7316TIP3   OH243362   4.051   1.306  11.540  0.0789  0.7767 -0.3836
 7316TIP3    H143363   4.021   1.304  11.631  0.8598  1.9902 -0.0973
 7316TIP3    H243364   4.095   1.222  11.528  0.4386  0.8306  0.5173
 7317TIP3   OH243365   2.363   3.969  11.327  0.6771  0.0329  0.3519
 7317TIP3    H143366   2.413   3.889  11.311  1.6589  0.8634 -0.9172
 7317TIP3    H243367   2.406   4.035  11.272 -0.0982  1.4354  1.3930
 7318TIP3   OH243368   0.144   0.063   4.459  0.7444  0.5674 -0.5632
 7318TIP3    H143369   0.124   0.156   4.466  0.9691  0.6350 -0.7856
 7318TIP3    H243370   0.236   0.056   4.483  1.3226  0.7100 -2.5904
 7319TIP3   OH243371   4.255   4.149   1.653  0.0359  0.2156  0.1482
 7319TIP3    H143372   4.225   4.066   1.691 -1.5925  0.1005 -1.3715
 7319TIP3    H243373   4.287   4.198   1.729 -0.8181 -1.0075  1.3394
 7320TIP3   OH243374   5.578   1.871  13.627 -0.3045  0.8880 -0.0071
 7320TIP3    H143375   5.672   1.874  13.647 -0.0694  0.2615 -0.9886
 7320TIP3    H243376   5.564   1.783  13.593 -0.9857  1.4380 -1.1602
 7321TIP3   OH243377   1.616   5.659  15.673 -0.2477  0.0594  0.1408
 7321TIP3    H143378   1.601   5.729  15.610  0.5808 -1.0630 -1.3464
 7321TIP3    H243379   1.551   5.674  15.742 -2.1682  0.4339 -1.7182
 7322TIP3   OH243380   3.224   4.826  13.643 -0.4321  0.1750  0.9677
 7322TIP3    H143381   3.212   4.915  13.611  0.4373 -0.8448 -2.3648
 7322TIP3    H243382   3.149   4.777  13.610 -0.3110 -0.6015  1.7917
 7323TIP3   OH243383   3.655   1.681   5.678 -0.4863  0.7169  0.4285
 7323TIP3    H143384   3.567   1.719   5.673 -0.7235  0.2203  0.7741
 7323TIP3    H243385   3.640   1.587   5.682  0.1579  0.4998 -1.9109
 7324TIP3   OH243386   1.144   3.696   3.283  0.3034 -0.3603 -0.2101
 7324TIP3    H143387   1.069   3.748   3.312 -0.3193 -0.4563 -1.6070
 7324TIP3    H243388   1.112   3.606   3.283  0.6351 -0.4794 -0.1430
 7325TIP3   OH243389   4.110   2.904   2.531  0.1085 -0.4696 -1.0449
 7325TIP3    H143390   4.186   2.915   2.588 -1.3727  1.9230  0.6026
 7325TIP3    H243391   4.120   2.973   2.465 -0.7074 -0.0024 -0.6914
 7326TIP3   OH243392   4.422   0.150  11.389 -0.3156 -0.5749  0.2066
 7326TIP3    H143393   4.385   0.151  11.301  0.2158 -1.2426 -0.0235
 7326TIP3    H243394   4.349   0.175  11.446 -0.4491  0.7076 -0.4996
 7327TIP3   OH243395   2.090   3.024   5.026 -0.5974  0.0442 -0.5489
 7327TIP3    H143396   2.098   3.095   4.963 -1.1816  1.1349  0.5846
 7327TIP3    H243397   2.014   3.048   5.080  0.1953 -0.6130  0.8904
 7328TIP3   OH243398   4.853   4.271   1.942  0.3552  0.2353  0.3305
 7328TIP3    H143399   4.903   4.249   1.863 -1.4945 -0.4014 -0.6897
 7328TIP3    H243400   4.884   4.209   2.008  1.0712 -0.0221 -0.2398
 7329TIP3   OH243401   0.340   0.802  14.891  0.2446  0.0576 -0.1682
 7329TIP3    H143402   0.275   0.736  14.914  0.2470  0.2138  0.2920
 7329TIP3    H243403   0.392   0.761  14.822  1.2663 -1.0446  1.2249
 7330TIP3   OH243404   3.538   1.374   3.014  0.4888 -0.1730  0.4224
 7330TIP3    H143405   3.488   1.375   3.095 -2.3667 -1.2324 -1.2294
 7330TIP3    H243406   3.472   1.389   2.945  2.7741  0.4115 -1.7096
 7331TIP3   OH243407   2.388   6.222  16.685 -0.1654  0.4602 -0.6467
 7331TIP3    H143408   2.443   6.172  16.624  1.0301  1.1488 -0.1600
 7331TIP3    H243409   2.388   6.169  16.765  1.6317  1.5255  0.0793
 7332TIP3   OH243410   6.236   3.617  13.896  0.5730 -0.1626  0.5448
 7332TIP3    H143411   6.182   3.618  13.817  0.2570 -0.8220  0.7542
 7332TIP3    H243412   6.241   3.709  13.922  1.5427  0.2039 -0.8346
 7333TIP3   OH243413   4.185   3.695  16.406 -0.4965 -0.0955  0.4837
 7333TIP3    H143414   4.192   3.613  16.357  0.6920 -0.1465  0.7299
 7333TIP3    H243415   4.158   3.760  16.341 -0.0306 -0.3920 -0.0109
 7334TIP3   OH243416   6.251   1.117   3.382 -0.0325  0.3254 -0.4531
 7334TIP3    H143417   6.289   1.195   3.341  0.5899 -0.2009 -0.8761
 7334TIP3    H243418   6.326   1.064   3.408 -0.4607 -0.3822 -0.6487
 7335TIP3   OH243419   3.866   4.316  12.773 -0.2806  0.6853  0.0179
 7335TIP3    H143420   3.813   4.249  12.816 -1.3758  2.1246  0.9898
 7335TIP3    H243421   3.891   4.375  12.845  1.4918  0.7669 -0.6572
 7336TIP3   OH243422   5.528   0.093  13.245 -0.8912 -0.1947 -0.2880
 7336TIP3    H143423   5.461   0.115  13.180 -0.9879 -1.1028 -0.5030
 7336TIP3    H243424   5.492   0.018  13.293 -0.4967 -0.0070  0.3153
 7337TIP3   OH243425   5.672   4.469  11.520  0.2142  0.2714  0.1669
 7337TIP3    H143426   5.615   4.397  11.547  1.1070 -0.5118  0.0011
 7337TIP3    H243427   5.640   4.494  11.434  0.7715 -0.8681 -0.3814
 7338TIP3   OH243428   1.845   0.877  16.820  0.1329  0.2605 -1.2100
 7338TIP3    H143429   1.908   0.850  16.887 -0.1424  2.5768  0.0194
 7338TIP3    H243430   1.889   0.857  16.737  1.7270  0.1251 -0.3637
 7339TIP3   OH243431   1.383   2.047  15.466 -0.3043 -0.5922  0.2205
 7339TIP3    H143432   1.296   2.041  15.425 -0.7607  0.1664  1.0615
 7339TIP3    H243433   1.380   1.985  15.539  0.3178 -1.5278 -0.5360
 7340TIP3   OH243434   3.392   3.626   0.554 -0.2340  0.7305 -0.0882
 7340TIP3    H143435   3.351   3.638   0.640  0.6271  2.6242  0.0787
 7340TIP3    H243436   3.346   3.551   0.516 -1.3416  0.5271  1.5871
 7341TIP3   OH243437   5.996   0.716  13.319 -0.3014 -0.2455  0.0729
 7341TIP3    H143438   6.036   0.689  13.237  0.0023  0.4545 -0.0046
 7341TIP3    H243439   6.068   0.753  13.370 -1.1460  2.5985 -0.7271
 7342TIP3   OH243440   6.697   5.382  16.476  0.0377 -0.0606 -0.4016
 7342TIP3    H143441   6.738   5.467  16.464 -0.3806  0.2135  0.1340
 7342TIP3    H243442   6.632   5.395  16.544  0.0270 -0.8253 -0.2536
 7343TIP3   OH243443   2.093   3.841  14.028 -0.4370 -0.5258 -0.0239
 7343TIP3    H143444   2.085   3.850  13.933  1.7087 -0.1160 -0.1935
 7343TIP3    H243445   2.092   3.746  14.043  2.2882 -0.6944 -0.7699
 7344TIP3   OH243446   3.148   6.087  15.636 -0.1623 -0.0906  0.5911
 7344TIP3    H143447   3.133   6.099  15.730  1.6863 -0.7938  0.9944
 7344TIP3    H243448   3.102   6.006  15.615  1.4680 -1.2609  1.4301
 7345TIP3   OH243449   6.683   1.267   2.845 -0.2711  0.6854 -0.6675
 7345TIP3    H143450   6.760   1.221   2.812 -0.3603 -0.7692  1.0637
 7345TIP3    H243451   6.614   1.247   2.782 -0.2896 -1.5778 -0.0035
 7346TIP3   OH243452   2.332   0.449   4.661 -0.1384 -0.0613 -0.2888
 7346TIP3    H143453   2.373   0.392   4.727  0.5477  1.2464  0.4277
 7346TIP3    H243454   2.375   0.424   4.579  1.3787  0.5689  0.2826
 7347TIP3   OH243455   4.385   6.571   2.873 -0.0027 -0.0004  0.2670
 7347TIP3    H143456   4.414   6.588   2.963 -0.3220  1.3287  0.1239
 7347TIP3    H243457   4.298   6.532   2.883  0.1948 -0.3814  0.5439
 7348TIP3   OH243458   0.128   1.170   2.721  0.0370  0.6767  0.0409
 7348TIP3    H143459   0.205   1.132   2.763  0.7531  1.6540 -0.3800
 7348TIP3    H243460   0.163   1.225   2.651 -0.9573  2.5519  0.9855
 7349TIP3   OH243461   2.620   4.837  13.478 -0.3583 -0.2004 -0.2040
 7349TIP3    H143462   2.618   4.933  13.477 -1.8981 -0.2158  0.1174
 7349TIP3    H243463   2.710   4.816  13.502 -0.1387  1.1700  0.2612
 7350TIP3   OH243464   0.804   5.410   1.574 -0.4301  0.0202 -0.0017
 7350TIP3    H143465   0.862   5.384   1.645 -2.7639 -0.7553  1.6967
 7350TIP3    H243466   0.747   5.477   1.613 -1.2918  0.0794 -1.3426
 7351TIP3   OH243467   4.685   0.749  13.127 -0.5278 -0.1983 -0.0666
 7351TIP3    H143468   4.679   0.807  13.051 -2.0912 -2.0924 -1.4444
 7351TIP3    H243469   4.777   0.724  13.131 -0.2278  0.7583 -0.6946
 7352TIP3   OH243470   1.548   6.307   4.783  0.0896  0.3593 -0.5431
 7352TIP3    H143471   1.538   6.393   4.823  0.1052  0.0927  0.0397
 7352TIP3    H243472   1.642   6.289   4.785  0.1036  0.3953 -0.8096
 7353TIP3   OH243473   2.440   5.278   5.662 -0.4805  0.0268  0.1395
 7353TIP3    H143474   2.452   5.322   5.746  1.5689  0.2946 -0.2692
 7353TIP3    H243475   2.389   5.339   5.610 -0.0360  0.7302  0.5188
 7354TIP3   OH243476   1.190   6.017  15.651  0.1543 -0.5620  0.3155
 7354TIP3    H143477   1.109   6.066  15.669  0.4539 -0.0173  0.1939
 7354TIP3    H243478   1.171   5.928  15.680 -1.5101 -1.1561 -2.3867
 7355TIP3   OH243479   2.357   1.095   1.662 -0.1628 -0.3466 -0.7021
 7355TIP3    H143480   2.376   1.171   1.716 -2.2493  0.2541 -0.7410
 7355TIP3    H243481   2.386   1.119   1.574 -0.2221  0.1581 -0.5819
 7356TIP3   OH243482   6.782   5.116   1.992  0.6000  0.1183  0.2233
 7356TIP3    H143483   6.736   5.162   2.062  0.0258  0.8759 -0.6427
 7356TIP3    H243484   6.714   5.094   1.928  1.2395  0.1105 -0.4606
 7357TIP3   OH243485   0.432   2.612   0.214  0.0234  0.2425  1.2447
 7357TIP3    H143486   0.342   2.606   0.245  0.0889 -0.4571  1.3044
 7357TIP3    H243487   0.425   2.652   0.128 -0.5922 -2.3952  0.0469
 7358TIP3   OH243488   4.934   5.521   2.051 -0.1032 -0.7758 -0.0936
 7358TIP3    H143489   5.027   5.511   2.030  0.2559 -1.1026  1.6384
 7358TIP3    H243490   4.893   5.537   1.966  1.8291  1.6844 -0.6534
 7359TIP3   OH243491   3.477   4.842  11.744  0.5944 -0.0406 -0.3372
 7359TIP3    H143492   3.519   4.907  11.800  0.5283 -2.0816  2.1802
 7359TIP3    H243493   3.545   4.776  11.729 -0.6356 -1.6250  0.8950
 7360TIP3   OH243494   1.460   6.518   3.928  0.0715  0.2516  0.2406
 7360TIP3    H143495   1.450   6.543   4.020  0.6337 -0.2175  0.4256
 7360TIP3    H243496   1.375   6.541   3.888  0.4476  2.1568  0.4710
 7361TIP3   OH243497   3.390   6.360   5.999 -0.4671 -0.2039 -0.8770
 7361TIP3    H143498   3.347   6.303   6.063 -1.6663  0.0241 -1.4635
 7361TIP3    H243499   3.468   6.393   6.045 -0.4680 -1.2654 -0.0838
 7362TIP3   OH243500   0.590   4.236   3.977  0.0459  0.3241 -0.1190
 7362TIP3    H143501   0.589   4.145   4.007  1.8940  0.1846 -0.3970
 7362TIP3    H243502   0.499   4.257   3.958 -0.4355 -1.3628  0.2890
 7363TIP3   OH243503   4.925   0.453   5.705  0.1885  0.4029 -0.2764
 7363TIP3    H143504   4.967   0.528   5.747  1.3410 -0.7475  0.6819
 7363TIP3    H243505   4.848   0.435   5.759  2.6632 -2.2093  2.4980
 7364TIP3   OH243506   4.887   5.187   5.001  0.1540  0.2006 -0.1544
 7364TIP3    H143507   4.800   5.218   4.977 -0.5567 -1.4723  0.1898
 7364TIP3    H243508   4.881   5.168   5.095  1.6114  2.3797  0.4347
 7365TIP3   OH243509   0.731   2.935  11.698  0.4589  0.2843 -0.1209
 7365TIP3    H143510   0.764   2.870  11.760  1.2099  0.7883  0.0190
 7365TIP3    H243511   0.787   2.925  11.621  0.8022  0.9826  0.0262
 7366TIP3   OH243512   1.419   1.996   1.421  0.3993  0.3368 -0.5905
 7366TIP3    H143513   1.490   2.053   1.452 -0.2052  0.1633  1.1734
 7366TIP3    H243514   1.443   1.909   1.451 -0.1188  0.1409 -0.7387
 7367TIP3   OH243515   1.866   0.007  14.446  0.1091 -0.3934 -0.1232
 7367TIP3    H143516   1.829  -0.059  14.505 -0.3339 -0.1490 -0.1290
 7367TIP3    H243517   1.878   0.084  14.501 -1.6330  0.2877 -0.6664
 7368TIP3   OH243518   4.393   6.647  13.119 -0.7702 -0.6287 -0.4978
 7368TIP3    H143519   4.476   6.680  13.085 -1.5129  1.2916 -0.5446
 7368TIP3    H243520   4.326   6.698  13.073 -1.9484 -1.5675  0.1326
 7369TIP3   OH243521   4.070   2.089  12.248 -0.4497 -0.2422  0.5486
 7369TIP3    H143522   4.024   2.030  12.188 -0.1116 -0.1141  0.1695
 7369TIP3    H243523   4.029   2.072  12.333 -1.6590  0.3313  0.0977
 7370TIP3   OH243524   1.995   2.695   5.142  0.0351 -0.3725 -0.4198
 7370TIP3    H143525   2.086   2.666   5.134  1.2879  2.9983  0.5481
 7370TIP3    H243526   1.986   2.764   5.075 -0.7809  1.6091  1.6440
 7371TIP3   OH243527   1.160   4.009  13.955 -0.1492  0.0298  0.1367
 7371TIP3    H143528   1.225   3.939  13.947  2.6106  2.3249  1.4924
 7371TIP3    H243529   1.176   4.065  13.879 -1.1943  0.0866 -0.0442
 7372TIP3   OH243530   2.741   5.128  11.682 -0.0493 -0.1272  0.0582
 7372TIP3    H143531   2.724   5.134  11.588  2.5653  0.6834 -0.3924
 7372TIP3    H243532   2.741   5.219  11.712  2.4334 -0.1389  0.1907
 7373TIP3   OH243533   2.795   1.986   1.079  0.1138 -0.6062 -0.1594
 7373TIP3    H143534   2.861   1.919   1.058  0.3451 -0.6570  0.7206
 7373TIP3    H243535   2.771   1.969   1.170  0.8898  1.0864  0.4059
 7374TIP3   OH243536   0.979   2.067  16.691 -0.1945  0.1722 -0.3469
 7374TIP3    H143537   0.968   1.978  16.657  0.0892 -0.0764  0.2123
 7374TIP3    H243538   1.073   2.085  16.681 -0.2578  0.4224 -0.4959
 7375TIP3   OH243539   6.183   1.983  12.157 -0.3515 -0.5792 -0.5711
 7375TIP3    H143540   6.258   1.925  12.144 -0.3794 -0.7925  0.2036
 7375TIP3    H243541   6.107   1.927  12.142 -0.3890 -0.8821  0.6667
 7376TIP3   OH243542   1.749   6.686  13.297 -0.0795 -0.1843  0.0016
 7376TIP3    H143543   1.672   6.661  13.348 -0.1761  1.3658  0.6393
 7376TIP3    H243544   1.739   6.780  13.283  1.1689 -0.1632 -0.8165
 7377TIP3   OH243545   3.510   1.237   5.931 -0.0432 -0.0765 -0.3158
 7377TIP3    H143546   3.469   1.281   6.005  0.9780 -0.1386  0.3004
 7377TIP3    H243547   3.604   1.243   5.948  0.1790 -0.7854 -1.2067
 7378TIP3   OH243548   2.567   3.761   4.161 -0.6429  0.1910  0.0491
 7378TIP3    H143549   2.637   3.825   4.174 -0.0483 -0.3811 -0.3062
 7378TIP3    H243550   2.598   3.681   4.204 -1.2894  0.0771  0.3152
 7379TIP3   OH243551   3.470   4.435   5.205 -0.1864  0.5332  0.8946
 7379TIP3    H143552   3.383   4.401   5.229  0.1801 -0.0979  1.3312
 7379TIP3    H243553   3.464   4.529   5.222 -0.2666  0.2567  2.4845
 7380TIP3   OH243554   2.580   5.576  16.191 -0.1495 -0.6729 -0.2518
 7380TIP3    H143555   2.507   5.586  16.252 -0.9912 -0.9619 -1.1975
 7380TIP3    H243556   2.631   5.657  16.201 -2.0179  0.7161 -1.4316
 7381TIP3   OH243557   3.502   2.711  16.852  0.2937 -0.1777 -0.1431
 7381TIP3    H143558   3.456   2.774  16.907 -2.4436 -4.4129  2.6303
 7381TIP3    H243559   3.592   2.711  16.887 -0.1359  0.7983  1.0047
 7382TIP3   OH243560   1.972   3.958   1.721 -0.2573 -0.1665  0.7056
 7382TIP3    H143561   2.043   4.017   1.694  1.1219 -2.5936 -1.2044
 7382TIP3    H243562   1.982   3.951   1.816  0.9885  0.8561  0.6682
 7383TIP3   OH243563   6.088   3.876  14.330  0.6290 -0.0351 -0.7035
 7383TIP3    H143564   6.106   3.822  14.407 -2.6103 -1.9340 -1.2079
 7383TIP3    H243565   6.115   3.823  14.256  0.5146  0.3903 -1.0550
 7384TIP3   OH243566   0.788   1.123  13.636  0.9347 -0.4160  0.8131
 7384TIP3    H143567   0.846   1.088  13.569  2.8517  1.8451  1.2523
 7384TIP3    H243568   0.716   1.164  13.587  0.2193 -2.2909  0.2557
 7385TIP3   OH243569   3.574   0.218  13.082 -0.1576 -0.5040  0.4629
 7385TIP3    H143570   3.595   0.261  13.165 -0.2847  0.2413  0.1075
 7385TIP3    H243571   3.479   0.213  13.080 -0.1384 -0.9979  0.5982
 7386TIP3   OH243572   4.582   3.129  13.103  0.2079 -0.1651  0.6511
 7386TIP3    H143573   4.609   3.113  13.193 -0.0632  0.3059  0.8169
 7386TIP3    H243574   4.536   3.213  13.106  0.8109  0.1957 -0.0473
 7387TIP3   OH243575   2.862   3.382  16.146  0.0105 -0.1673  0.0076
 7387TIP3    H143576   2.786   3.406  16.199 -0.7421 -2.1599 -0.1196
 7387TIP3    H243577   2.936   3.389  16.207 -0.3546  1.0657  0.3318
 7388TIP3   OH243578   2.934   4.191   2.934 -0.2399 -0.4581 -0.2685
 7388TIP3    H143579   2.989   4.172   2.858 -1.3061 -3.5694 -0.3186
 7388TIP3    H243580   2.994   4.230   2.997  1.7287 -2.2708 -0.9367
 7389TIP3   OH243581   4.185   4.788  11.420 -0.4650 -0.1173  0.0897
 7389TIP3    H143582   4.253   4.852  11.441 -0.9670  0.1024  1.0810
 7389TIP3    H243583   4.188   4.780  11.325  0.4571  0.4317  0.0663
 7390TIP3   OH243584   4.031   3.097  12.795 -0.0726 -0.2310 -0.0995
 7390TIP3    H143585   4.020   3.030  12.727 -2.0658  0.6319 -0.6764
 7390TIP3    H243586   3.992   3.058  12.873  1.3565 -0.8487  0.3181
 7391TIP3   OH243587   5.128   2.725  11.832  0.1098 -0.5154 -0.2416
 7391TIP3    H143588   5.194   2.737  11.763  1.1699  2.1684  1.1669
 7391TIP3    H243589   5.045   2.731  11.786  0.8108  0.4411 -1.4197
 7392TIP3   OH243590   3.025   2.456   1.619 -0.1771  0.2100 -0.3463
 7392TIP3    H143591   2.963   2.411   1.676 -0.7031 -1.8100 -2.4556
 7392TIP3    H243592   3.104   2.465   1.673 -0.2339 -2.7825  0.3421
 7393TIP3   OH243593   2.083   2.600   5.944 -0.2317 -0.0772  0.6006
 7393TIP3    H143594   2.025   2.583   5.870 -1.6894 -0.3758  1.7960
 7393TIP3    H243595   2.112   2.690   5.930 -0.0397 -0.3167 -0.6311
 7394TIP3   OH243596   2.293   0.306  12.269 -0.8213 -0.2034 -0.5968
 7394TIP3    H143597   2.293   0.367  12.344 -2.0543 -1.9206  0.8355
 7394TIP3    H243598   2.367   0.334  12.216 -0.3594  1.5211  0.8983
 7395TIP3   OH243599   2.973   6.621   1.508  0.1008  0.1165 -0.2829
 7395TIP3    H143600   2.978   6.529   1.533  0.8336  0.4991  0.9926
 7395TIP3    H243601   2.955   6.619   1.414  0.9431 -1.3321 -0.4211
 7396TIP3   OH243602   4.349   2.885  12.407 -0.4094  0.4161  0.0549
 7396TIP3    H143603   4.349   2.889  12.502 -0.7323  0.4869  0.0536
 7396TIP3    H243604   4.316   2.797  12.387 -1.3239  0.7700 -0.0011
 7397TIP3   OH243605   5.991   3.035  14.292  0.8342  0.4979  0.2261
 7397TIP3    H143606   6.061   3.085  14.250  0.6075  1.4700  0.9692
 7397TIP3    H243607   5.969   3.086  14.370 -1.6893  0.9811 -0.7373
 7398TIP3   OH243608   5.770   3.365   0.094  0.5157  0.5589 -0.6618
 7398TIP3    H143609   5.748   3.455   0.117  1.2081  0.7676 -0.7899
 7398TIP3    H243610   5.806   3.371   0.005  1.7853  0.3456 -0.1790
 7399TIP3   OH243611   2.175   1.608   4.571  0.1721 -0.1899 -0.0312
 7399TIP3    H143612   2.119   1.663   4.516  0.2249 -0.0306  0.0708
 7399TIP3    H243613   2.264   1.629   4.544  0.1619 -1.0554 -0.7620
 7400TIP3   OH243614   5.883   2.029  15.251 -0.2009 -0.1850 -0.1437
 7400TIP3    H143615   5.894   2.051  15.343  0.1418  0.3797 -0.3189
 7400TIP3    H243616   5.962   1.981  15.228 -0.9380 -1.6030  0.2362
 7401TIP3   OH243617   1.576   0.602  11.410  0.2292 -0.2504 -0.3960
 7401TIP3    H143618   1.570   0.653  11.329 -1.3472 -0.7458 -0.6119
 7401TIP3    H243619   1.645   0.645  11.461 -0.6656  1.7394 -0.8373
 7402TIP3   OH243620   6.299   4.616   2.591  0.3849 -0.4114  0.2686
 7402TIP3    H143621   6.213   4.609   2.549  0.0218  2.7781  0.3330
 7402TIP3    H243622   6.310   4.534   2.638 -1.2832 -2.1141 -2.2327
 7403TIP3   OH243623   3.075   3.714   4.544 -0.6270  0.5427 -0.2225
 7403TIP3    H143624   3.064   3.660   4.465  1.6828 -0.2043 -0.0777
 7403TIP3    H243625   3.138   3.665   4.597 -0.8430  1.8981  1.3131
 7404TIP3   OH243626   3.010   1.038   3.665 -0.0555 -0.3138  0.1100
 7404TIP3    H143627   3.060   1.010   3.742 -0.6853 -2.2369 -0.1543
 7404TIP3    H243628   3.014   0.963   3.605 -4.0029 -0.8737  0.4551
 7405TIP3   OH243629   2.323   6.420  12.085  0.2564  0.4865 -0.1611
 7405TIP3    H143630   2.255   6.431  12.018  1.7135  1.3503 -1.5341
 7405TIP3    H243631   2.278   6.434  12.168 -1.5096 -0.2394 -0.9813
 7406TIP3   OH243632   6.061   2.390  16.266  0.3143 -0.3518  0.1558
 7406TIP3    H143633   6.107   2.472  16.252 -0.5573  0.1115 -0.0089
 7406TIP3    H243634   5.997   2.409  16.334 -1.4859 -0.2588 -1.5112
 7407TIP3   OH243635   2.745   6.465  15.715 -0.7259 -0.4400 -0.4837
 7407TIP3    H143636   2.791   6.399  15.663 -0.2921 -0.7876  0.3418
 7407TIP3    H243637   2.653   6.436  15.714 -0.3751 -1.6534  0.7579
 7408TIP3   OH243638   0.684   0.043  14.048  0.4735  0.0888 -0.0309
 7408TIP3    H143639   0.594   0.014  14.062  0.3092  0.7474  0.3208
 7408TIP3    H243640   0.677   0.104  13.974  0.6727 -0.0570 -0.1702
 7409TIP3   OH243641   4.103   0.152  14.181 -0.1036 -0.6655  0.0256
 7409TIP3    H143642   4.089   0.145  14.087  1.9862  1.9866 -0.5484
 7409TIP3    H243643   4.191   0.118  14.196 -0.6271 -1.5853  1.1256
 7410TIP3   OH243644   3.024   5.947   1.817  0.8612  0.3965  0.0884
 7410TIP3    H143645   2.997   6.026   1.862  1.0253  0.8381 -0.5734
 7410TIP3    H243646   3.102   5.973   1.767 -0.1320  0.3007 -1.5688
 7411TIP3   OH243647   3.596   3.707   2.320 -0.3111  0.3227  0.0435
 7411TIP3    H143648   3.541   3.667   2.252  0.7353 -0.1339 -0.5342
 7411TIP3    H243649   3.654   3.766   2.273  0.9239 -0.5526  0.4561
 7412TIP3   OH243650   3.326   4.832  17.195  1.0208  0.0670  0.2561
 7412TIP3    H143651   3.377   4.757  17.225  0.5199 -0.2360  0.3570
 7412TIP3    H243652   3.354   4.845  17.104  1.3991  0.0106  0.3628
 7413TIP3   OH243653   1.953   2.976   3.779  0.0974  0.3165  0.2175
 7413TIP3    H143654   2.020   3.026   3.732  0.0132  1.0671  0.8821
 7413TIP3    H243655   2.002   2.924   3.843  0.1707 -0.3131 -0.3523
 7414TIP3   OH243656   1.720   1.361   3.192  0.6962 -0.0626 -0.2905
 7414TIP3    H143657   1.646   1.323   3.145  2.4418 -2.4566 -1.2189
 7414TIP3    H243658   1.703   1.341   3.284  1.3381 -2.7865 -0.7195
 7415TIP3   OH243659   4.418   3.752  14.221  0.0071  0.2692 -0.0310
 7415TIP3    H143660   4.366   3.777  14.145 -0.0242  0.7420  0.1480
 7415TIP3    H243661   4.362   3.693  14.271  0.3561 -0.7678 -0.8350
 7416TIP3   OH243662   6.272   6.401  10.840  0.2361 -0.2377  0.1705
 7416TIP3    H143663   6.361   6.436  10.829 -0.1090  2.1157  4.0299
 7416TIP3    H243664   6.214   6.470  10.808 -0.2915  0.4700  2.5514
 7417TIP3   OH243665   0.904   2.517   3.246 -0.2938 -0.1749 -0.1793
 7417TIP3    H143666   0.911   2.610   3.226 -0.6608  0.4530  2.4656
 7417TIP3    H243667   0.977   2.477   3.198  1.3878  1.8265  0.6405
 7418TIP3   OH243668   1.328   4.629   1.282  0.6461  0.1563  0.0209
 7418TIP3    H143669   1.367   4.606   1.198  0.5763  1.3753 -0.3500
 7418TIP3    H243670   1.352   4.720   1.296 -0.2214  0.2719  0.8271
 7419TIP3   OH243671   1.247   3.638  15.012 -0.1584  0.3640  0.1960
 7419TIP3    H143672   1.289   3.665  14.931 -0.3828 -1.3154 -0.5031
 7419TIP3    H243673   1.316   3.642  15.078  0.2460  0.8683 -0.2645
 7420TIP3   OH243674   4.411   5.668  11.341  0.5655 -0.0911  0.8202
 7420TIP3    H143675   4.428   5.762  11.328  0.2584 -0.2396 -0.8128
 7420TIP3    H243676   4.316   5.663  11.353  0.3473 -0.3346 -0.7896
 7421TIP3   OH243677   0.061   5.764  17.089  0.2526 -0.2234  0.5866
 7421TIP3    H143678  -0.012   5.824  17.101  0.7929  0.1045  2.4210
 7421TIP3    H243679   0.138   5.815  17.112  1.0508 -0.6483 -1.0730
 7422TIP3   OH243680   2.438   0.783   2.616 -0.1911  0.2696 -0.1210
 7422TIP3    H143681   2.497   0.714   2.587 -1.2964 -0.7425  0.0040
 7422TIP3    H243682   2.381   0.741   2.681  0.0500  1.6455  1.0164
 7423TIP3   OH243683   6.185   4.061  11.924  0.6310 -0.2314 -0.1405
 7423TIP3    H143684   6.212   4.125  11.857 -0.3809  0.8348  0.4619
 7423TIP3    H243685   6.134   3.996  11.875  2.0142 -0.8286 -0.8287
 7424TIP3   OH243686   4.603   4.164   0.409 -0.2661 -0.1602 -0.5955
 7424TIP3    H143687   4.641   4.089   0.453  0.6556 -1.4900 -3.5289
 7424TIP3    H243688   4.525   4.129   0.364 -0.9393  1.0440 -0.3899
 7425TIP3   OH243689   3.631   4.348  12.579  0.7926 -0.2666 -0.1300
 7425TIP3    H143690   3.705   4.325  12.636  2.6208  1.2163 -1.8734
 7425TIP3    H243691   3.626   4.276  12.516  1.1633 -0.0456 -0.4109
 7426TIP3   OH243692   4.761   5.058  13.660 -0.7865 -0.3942 -0.0767
 7426TIP3    H143693   4.684   5.007  13.632 -1.1197  0.4492 -0.7193
 7426TIP3    H243694   4.787   5.106  13.581  1.5625 -2.1122 -0.3767
 7427TIP3   OH243695   6.679   4.462  16.499  0.3324 -0.1466 -0.5312
 7427TIP3    H143696   6.721   4.376  16.504 -1.8541 -1.1935  0.3107
 7427TIP3    H243697   6.597   4.446  16.452 -0.7980  1.1697  0.9360
 7428TIP3   OH243698   4.836   1.667  14.487  0.1406 -0.4680 -0.4210
 7428TIP3    H143699   4.920   1.634  14.456  0.1247 -0.4532 -0.4776
 7428TIP3    H243700   4.780   1.589  14.492  0.7597 -0.8117  1.5759
 7429TIP3   OH243701   0.479   5.127   0.543  0.1945  0.0912  0.0011
 7429TIP3    H143702   0.455   5.220   0.532  2.2581  0.6323 -0.1307
 7429TIP3    H243703   0.422   5.096   0.613 -0.4338  1.4950  0.1436
 7430TIP3   OH243704   6.119   3.721   4.495  0.4581 -0.0514 -0.0388
 7430TIP3    H143705   6.073   3.657   4.549  0.9782  1.0915  1.7743
 7430TIP3    H243706   6.129   3.678   4.410 -0.2520 -1.9029  0.8014
 7431TIP3   OH243707   2.860   4.598  14.215 -0.3512 -0.4371  0.1337
 7431TIP3    H143708   2.849   4.563  14.303  0.7088  0.8770  0.8033
 7431TIP3    H243709   2.916   4.534  14.170 -1.5954 -1.5493  0.1073
 7432TIP3   OH243710   4.764   1.028  15.694 -0.0288  0.0177 -0.1962
 7432TIP3    H143711   4.853   0.995  15.681  0.2968  0.7658  0.0959
 7432TIP3    H243712   4.739   1.061  15.607 -0.3241 -0.9091 -0.4692
 7433TIP3   OH243713   4.892   5.103   4.617 -0.2477  0.1432 -0.3614
 7433TIP3    H143714   4.895   5.114   4.712  1.3287  0.1560 -0.3964
 7433TIP3    H243715   4.829   5.169   4.587 -0.5213  0.3469  0.6362
 7434TIP3   OH243716   6.484   4.371  12.255  0.1033 -0.3923 -0.5498
 7434TIP3    H143717   6.449   4.375  12.344  1.4763 -1.3222  0.0619
 7434TIP3    H243718   6.411   4.340  12.202  0.1036 -2.8813  0.7886
 7435TIP3   OH243719   6.543   3.825  11.180  0.1243  0.0707  0.3088
 7435TIP3    H143720   6.624   3.781  11.206 -0.5231 -1.7591 -0.6696
 7435TIP3    H243721   6.479   3.754  11.172 -1.0456  1.2501 -0.9700
 7436TIP3   OH243722   3.546   3.912  12.208 -0.1280 -0.4350 -0.1270
 7436TIP3    H143723   3.554   3.818  12.223  1.4041 -0.6861 -2.1902
 7436TIP3    H243724   3.453   3.925  12.188 -0.5867 -1.3020  1.3385
 7437TIP3   OH243725   3.658   5.055  12.286  0.1068 -0.1596 -0.6014
 7437TIP3    H143726   3.635   4.980  12.230  0.5586  0.4851 -1.6706
 7437TIP3    H243727   3.722   5.104  12.234 -0.7062  1.3498 -0.2037
 7438TIP3   OH243728   0.569   1.917  17.117 -0.4350  0.4674 -0.2903
 7438TIP3    H143729   0.520   1.847  17.161 -1.5937  0.4224 -1.6512
 7438TIP3    H243730   0.641   1.937  17.178 -1.1560 -0.6267  0.9451
 7439TIP3   OH243731   0.557   5.449   5.289  0.5587 -0.1319  0.3008
 7439TIP3    H143732   0.586   5.517   5.229  0.2169 -0.0282  0.2558
 7439TIP3    H243733   0.463   5.442   5.275  0.4321  0.0919  1.0261
 7440TIP3   OH243734   1.714   1.243   0.117 -0.3243  0.6610 -0.2081
 7440TIP3    H143735   1.728   1.200   0.202  0.3065  0.1989 -0.5439
 7440TIP3    H243736   1.754   1.329   0.127 -0.8491  0.8612  0.1879
 7441TIP3   OH243737   5.345   4.973   2.641  0.0564 -0.0167  0.2862
 7441TIP3    H143738   5.335   4.963   2.546 -0.0506  1.2565  0.1620
 7441TIP3    H243739   5.258   4.996   2.672 -0.1986 -1.6826  0.8745
 7442TIP3   OH243740   2.475   0.250  11.878  0.2861  0.0657  0.4030
 7442TIP3    H143741   2.400   0.274  11.824 -1.3085 -1.7805  1.7204
 7442TIP3    H243742   2.535   0.207  11.818 -0.4247  0.1184 -0.3525
 7443TIP3   OH243743   1.527   4.022   3.193 -0.0449 -0.5688 -0.1867
 7443TIP3    H143744   1.593   3.964   3.156  0.1914 -0.4747  0.0857
 7443TIP3    H243745   1.471   4.046   3.119 -1.1624 -2.4999  0.0062
 7444TIP3   OH243746   2.774   1.334   1.515  0.4766  0.0552  0.0578
 7444TIP3    H143747   2.753   1.341   1.422  0.7439  1.2953  0.0866
 7444TIP3    H243748   2.688   1.328   1.559  0.2507  1.8660 -0.0862
 7445TIP3   OH243749   0.143   3.595  12.856  0.3852 -0.2299 -0.1928
 7445TIP3    H143750   0.096   3.662  12.807  0.3503 -0.5779 -0.6357
 7445TIP3    H243751   0.214   3.643  12.900  0.5481  0.0457 -0.7564
 7446TIP3   OH243752   3.798   3.423   0.077 -0.4598  0.0066  0.6025
 7446TIP3    H143753   3.857   3.466   0.140  1.1136 -0.7581 -0.3362
 7446TIP3    H243754   3.719   3.404   0.128 -0.7584  2.9387  1.3564
 7447TIP3   OH243755   4.147   6.030   1.818  0.1066  0.3400  0.2516
 7447TIP3    H143756   4.076   5.995   1.873  0.1832 -0.5650 -0.2121
 7447TIP3    H243757   4.210   5.958   1.813  0.4584  0.6915 -0.3884
 7448TIP3   OH243758   6.403   6.295  13.581  0.6605  0.7364  0.6365
 7448TIP3    H143759   6.343   6.354  13.627  1.1010  0.6517  1.3271
 7448TIP3    H243760   6.379   6.303  13.489 -1.7513 -0.7664  1.0697
 7449TIP3   OH243761   6.497   0.100  16.651  0.0062 -0.2476  0.4137
 7449TIP3    H143762   6.469   0.187  16.623 -0.9903 -1.2365 -1.7810
 7449TIP3    H243763   6.591   0.098  16.634 -0.1169  0.1006 -0.3272
 7450TIP3   OH243764   2.177   5.887   0.112 -0.1954 -0.2427 -0.4347
 7450TIP3    H143765   2.270   5.909   0.121 -0.6224  0.5774  2.3779
 7450TIP3    H243766   2.177   5.795   0.088  1.3581 -0.3359 -0.1582
 7451TIP3   OH243767   0.855   3.097  15.416  0.4152 -0.6549  0.8206
 7451TIP3    H143768   0.944   3.105  15.382 -0.0630  3.6086  0.3001
 7451TIP3    H243769   0.865   3.094  15.511  1.0578  0.9739  0.8040
 7452TIP3   OH243770   1.644   6.462   5.296  0.2005  0.9300 -0.2131
 7452TIP3    H143771   1.627   6.544   5.342 -0.0243  0.8557 -0.1610
 7452TIP3    H243772   1.697   6.487   5.221  0.0927  1.1293 -0.2233
 7453TIP3   OH243773   1.925   3.028  13.613  0.2770  0.2479 -0.4302
 7453TIP3    H143774   1.848   3.078  13.638  0.1514 -0.2198  0.1450
 7453TIP3    H243775   1.981   3.090  13.566  0.3397  1.0599  0.7008
 7454TIP3   OH243776   4.228   1.762  14.002 -0.2053 -0.2900  0.6554
 7454TIP3    H143777   4.314   1.770  13.962 -1.1243 -1.4635 -1.6819
 7454TIP3    H243778   4.219   1.840  14.057  1.9857  0.2539  0.2657
 7455TIP3   OH243779   2.861   0.699   0.358  0.5030  0.4841 -0.3877
 7455TIP3    H143780   2.933   0.648   0.395  1.8636  1.6162 -1.4043
 7455TIP3    H243781   2.844   0.767   0.423 -0.3966 -0.4342  0.3489
 7456TIP3   OH243782   1.189   6.719  13.431  0.3806  0.1665 -0.5030
 7456TIP3    H143783   1.184   6.805  13.473 -0.9259 -0.2697  0.2579
 7456TIP3    H243784   1.134   6.662  13.485  1.0688 -1.1077 -1.1156
 7457TIP3   OH243785   1.669   6.257  16.795 -0.0918  0.0956  0.4155
 7457TIP3    H143786   1.672   6.183  16.854  0.3348  0.1680  0.4842
 7457TIP3    H243787   1.755   6.259  16.753  0.6348  1.7751  1.9223
 7458TIP3   OH243788   6.623   0.691  15.637 -0.3120  0.4719 -0.5991
 7458TIP3    H143789   6.577   0.659  15.715  0.5756 -0.8425 -0.5985
 7458TIP3    H243790   6.690   0.749  15.672  0.4465 -0.5505 -0.3257
 7459TIP3   OH243791   6.246   4.383   5.685  0.1512 -0.2558  0.0288
 7459TIP3    H143792   6.226   4.476   5.699  0.8488 -0.2781  1.3371
 7459TIP3    H243793   6.246   4.346   5.774  1.6835 -1.1120 -0.3113
 7460TIP3   OH243794   0.964   1.966   3.698  0.5143 -0.6817  0.0034
 7460TIP3    H143795   1.043   1.914   3.712  0.7297 -0.2915  0.2446
 7460TIP3    H243796   0.900   1.904   3.663  1.3159 -0.7449 -1.4210
 7461TIP3   OH243797   4.895   1.865  11.539  0.5264  0.2107 -0.0240
 7461TIP3    H143798   4.870   1.856  11.631  2.0185 -0.2200  0.3488
 7461TIP3    H243799   4.976   1.814  11.531  0.3179  0.1095 -1.6135
 7462TIP3   OH243800   4.535   3.244  15.969  0.2997  0.6950  0.7638
 7462TIP3    H143801   4.478   3.190  15.913  0.8610  0.5103  0.3619
 7462TIP3    H243802   4.559   3.318  15.914  1.2391  0.2709  0.5828
 7463TIP3   OH243803   1.970   4.453  13.852 -0.1548 -0.2431 -0.1227
 7463TIP3    H143804   2.041   4.429  13.791  0.2390  0.6419 -0.0159
 7463TIP3    H243805   1.898   4.395  13.827  0.1748 -0.2637 -1.0833
 7464TIP3   OH243806   3.981   3.005   4.188 -0.2047  0.2727  0.0312
 7464TIP3    H143807   4.069   2.980   4.215 -0.0359  0.8420  0.0216
 7464TIP3    H243808   3.944   3.050   4.263 -0.9969 -1.1576  0.5263
 7465TIP3   OH243809   5.290   2.277   5.884 -0.4095 -0.1465 -0.1275
 7465TIP3    H143810   5.272   2.184   5.869 -0.2655 -0.4160  1.2765
 7465TIP3    H243811   5.378   2.291   5.849  0.0593 -0.8271  0.7751
 7466TIP3   OH243812   2.148   4.722  16.822  0.3924  0.0492 -0.3776
 7466TIP3    H143813   2.073   4.779  16.837 -0.6005 -0.1241 -4.2720
 7466TIP3    H243814   2.220   4.781  16.801 -0.1176 -0.0248 -2.3632
 7467TIP3   OH243815   4.891   5.449  13.640  0.1125 -0.6581  0.2317
 7467TIP3    H143816   4.856   5.478  13.724  3.7142  1.0584  1.2481
 7467TIP3    H243817   4.865   5.518  13.578  0.6397  0.0033  0.7346
 7468TIP3   OH243818   2.085   2.692  11.240 -0.1474 -0.0152  0.5054
 7468TIP3    H143819   2.124   2.627  11.182  1.7489  1.0198  0.5941
 7468TIP3    H243820   2.109   2.664  11.328  1.9915  1.6196  0.4666
 7469TIP3   OH243821   1.347   3.676   1.328 -0.0284  0.2536  0.3715
 7469TIP3    H143822   1.328   3.732   1.403 -1.2521 -0.7487  0.8342
 7469TIP3    H243823   1.408   3.726   1.275 -2.0535  2.5740  0.1422
 7470TIP3   OH243824   6.002   1.214   3.025  0.3958  0.3238  0.1613
 7470TIP3    H143825   5.920   1.204   2.976  1.9789 -2.8303 -2.0174
 7470TIP3    H243826   5.979   1.190   3.114 -1.2345  0.3065 -0.2338
 7471TIP3   OH243827   1.959   4.099   3.325 -0.2946 -0.5025 -0.0970
 7471TIP3    H143828   1.887   4.050   3.364 -0.3430 -0.9306 -0.7072
 7471TIP3    H243829   1.925   4.127   3.240  0.4146 -1.1086 -0.5875
 7472TIP3   OH243830   1.798   4.941  12.412 -0.4710 -0.2967 -0.6315
 7472TIP3    H143831   1.850   5.015  12.444 -2.0305  0.9758 -0.9348
 7472TIP3    H243832   1.751   4.977  12.336 -1.4468 -1.5322 -0.6187
 7473TIP3   OH243833   4.554   0.975   0.661 -0.2512 -0.0360  0.2115
 7473TIP3    H143834   4.626   1.032   0.687 -1.1498  1.1184  0.2121
 7473TIP3    H243835   4.596   0.892   0.636  0.9794  0.3104  1.1110
 7474TIP3   OH243836   1.826   2.689  14.988  0.5213  0.1920 -0.1937
 7474TIP3    H143837   1.755   2.722  15.044  1.3367 -0.8911  1.5193
 7474TIP3    H243838   1.896   2.754  14.997  0.2219  0.6283 -0.9197
 7475TIP3   OH243839   2.506   4.127   1.511  0.0889  0.4319  0.5243
 7475TIP3    H143840   2.500   4.196   1.445  1.3046  0.2986  0.2693
 7475TIP3    H243841   2.579   4.072   1.483 -0.6906 -0.8099  0.8699
 7476TIP3   OH243842   0.831   1.451   2.516 -0.2064 -0.2628 -0.1391
 7476TIP3    H143843   0.740   1.476   2.525 -0.3756 -0.2738 -1.6205
 7476TIP3    H243844   0.875   1.530   2.484 -0.0523 -0.7826 -1.2299
 7477TIP3   OH243845   6.768   4.871  11.287  0.0098 -0.0439  0.5963
 7477TIP3    H143846   6.690   4.829  11.251 -0.4872  2.2490 -1.1047
 7477TIP3    H243847   6.741   4.901  11.374 -1.3180  1.5337 -0.3348
 7478TIP3   OH243848   4.883   6.059  14.932  0.0667 -0.2949 -0.4395
 7478TIP3    H143849   4.906   6.052  15.024  0.8457 -0.9018 -0.6751
 7478TIP3    H243850   4.845   6.147  14.923 -2.3663 -1.1529  0.9559
 7479TIP3   OH243851   1.872   2.238  17.097 -0.0598  0.0088 -0.0091
 7479TIP3    H143852   1.832   2.152  17.082 -0.7270  0.4614 -0.8434
 7479TIP3    H243853   1.819   2.278  17.165  0.7403 -0.5618  0.9579
 7480TIP3   OH243854   6.505   4.085  13.694 -0.0538  0.4570 -0.4162
 7480TIP3    H143855   6.489   3.991  13.682 -2.0092  0.6220  0.7628
 7480TIP3    H243856   6.600   4.091  13.708 -0.0934 -1.5029  0.9378
 7481TIP3   OH243857   2.043   3.609  11.901  0.2862 -0.1090  0.3280
 7481TIP3    H143858   2.017   3.673  11.835  0.3246 -0.8191 -0.3940
 7481TIP3    H243859   2.137   3.621  11.911  0.1978  0.3375  0.6224
 7482TIP3   OH243860   4.478   0.919  10.890  0.3437 -0.2574 -0.1872
 7482TIP3    H143861   4.410   0.893  10.952 -0.2892 -1.4716 -1.3375
 7482TIP3    H243862   4.534   0.842  10.882  1.3447  0.4353  0.0732
 7483TIP3   OH243863   0.459   3.243   1.935 -0.2789 -0.2523 -0.5263
 7483TIP3    H143864   0.514   3.169   1.909 -1.5834 -0.6714 -2.1954
 7483TIP3    H243865   0.380   3.203   1.972 -0.3911  0.3053 -0.1570
 7484TIP3   OH243866   6.225   5.993   4.055 -1.1002  0.4934  0.2784
 7484TIP3    H143867   6.294   5.952   4.003  0.0926  1.2689  1.2124
 7484TIP3    H243868   6.203   6.073   4.008  0.3826  1.4870  1.2201
 7485TIP3   OH243869   2.425   2.227  15.604 -0.6457  0.5658 -0.1978
 7485TIP3    H143870   2.429   2.176  15.522 -1.2281  0.1481  0.0230
 7485TIP3    H243871   2.388   2.311  15.577  1.6023  1.3916 -0.7947
 7486TIP3   OH243872   4.313   5.652   4.751 -0.3000  0.8307  0.3890
 7486TIP3    H143873   4.307   5.561   4.722 -1.9792  0.8165  0.7291
 7486TIP3    H243874   4.407   5.670   4.756  0.0848 -1.4548  2.0355
 7487TIP3   OH243875   5.588   6.709  12.966  0.1430 -0.5217  0.2046
 7487TIP3    H143876   5.500   6.670  12.969 -0.5325  0.8137 -1.1960
 7487TIP3    H243877   5.572   6.803  12.954  1.7563 -0.2902 -0.2800
 7488TIP3   OH243878   0.428   1.565   1.967 -0.0948 -0.0346 -0.7044
 7488TIP3    H143879   0.516   1.533   1.987 -0.8192 -0.5872  1.8505
 7488TIP3    H243880   0.398   1.510   1.895  1.1040 -0.8224 -0.6226
 7489TIP3   OH243881   6.395   6.156  11.075  0.2318  0.2350 -0.7325
 7489TIP3    H143882   6.300   6.168  11.071 -0.0266 -0.4551  2.3418
 7489TIP3    H243883   6.429   6.242  11.098  0.2237  0.1734 -0.4849
 7490TIP3   OH243884   1.442   5.364  14.610  0.0069  0.2030 -0.1259
 7490TIP3    H143885   1.386   5.432  14.648 -0.9820  0.0414 -1.2682
 7490TIP3    H243886   1.409   5.354  14.521  0.9765 -0.8756 -0.3596
 7491TIP3   OH243887   1.314   0.819  12.050 -0.6503 -0.3320  0.1292
 7491TIP3    H143888   1.307   0.726  12.072 -0.4536 -0.4647 -0.3700
 7491TIP3    H243889   1.308   0.821  11.954 -1.1841  0.2141  0.1717
 7492TIP3   OH243890   2.393   2.937   4.619 -0.3028 -0.0672  0.5428
 7492TIP3    H143891   2.392   2.924   4.714  1.1793 -0.4644  0.5211
 7492TIP3    H243892   2.437   3.021   4.607 -0.9034  0.2049  0.2217
 7493TIP3   OH243893   2.303   0.879   5.252 -0.0868  0.2197 -0.7375
 7493TIP3    H143894   2.377   0.936   5.276  0.4519 -0.4752 -0.7376
 7493TIP3    H243895   2.237   0.940   5.219  0.6362  0.8171 -1.1110
 7494TIP3   OH243896   6.122   1.102  14.413 -0.3320 -0.1372  0.4666
 7494TIP3    H143897   6.068   1.175  14.385 -0.1064  0.6220  1.9624
 7494TIP3    H243898   6.094   1.084  14.503  1.2095 -0.3593  0.9262
 7495TIP3   OH243899   5.250   6.723   6.273  0.2656 -1.0354  0.1504
 7495TIP3    H143900   5.244   6.631   6.247 -0.9445 -1.7046  2.6134
 7495TIP3    H243901   5.343   6.738   6.288  0.4557 -1.8804 -0.1259
 7496TIP3   OH243902   5.516   5.168   1.888 -0.3341  0.1023  0.0581
 7496TIP3    H143903   5.482   5.247   1.930 -2.1729 -0.3165 -0.5712
 7496TIP3    H243904   5.592   5.143   1.940 -0.5321  1.5282  1.0534
 7497TIP3   OH243905   6.059   4.978  12.871 -0.1074  0.4060 -0.0401
 7497TIP3    H143906   6.018   4.900  12.908  2.5657 -0.9359  0.1517
 7497TIP3    H243907   6.119   5.009  12.939  0.4829  1.3548 -0.9713
 7498TIP3   OH243908   6.367   5.167  14.341  0.3615  0.6024  0.0311
 7498TIP3    H143909   6.363   5.201  14.430 -0.1776 -1.9544  1.0300
 7498TIP3    H243910   6.276   5.169  14.311  0.6536  2.2306 -0.7815
 7499TIP3   OH243911   4.232   1.986   2.881 -0.8514 -0.2299  0.4125
 7499TIP3    H143912   4.307   2.044   2.869 -1.3152  0.2981  0.0203
 7499TIP3    H243913   4.270   1.898   2.888 -0.3758 -0.3193 -2.6358
 7500TIP3   OH243914   6.434   5.904   0.175 -0.2823  0.1697  0.3006
 7500TIP3    H143915   6.389   5.983   0.147 -0.3762 -0.2685 -0.8137
 7500TIP3    H243916   6.396   5.883   0.260 -2.4868 -0.4063 -0.7887
 7501TIP3   OH243917   0.624   4.455   2.566 -0.2829  0.4538 -0.2162
 7501TIP3    H143918   0.676   4.532   2.540  1.2607 -0.3588  0.4178
 7501TIP3    H243919   0.632   4.395   2.491 -0.7441  0.5277 -0.3286
 7502TIP3   OH243920   3.624   1.331   2.033  0.2439  0.3474  0.0852
 7502TIP3    H143921   3.682   1.279   1.977  0.7355 -0.6197  1.4729
 7502TIP3    H243922   3.669   1.415   2.043 -0.8495  1.3447 -2.6816
 7503TIP3   OH243923   4.863   4.797  16.519  0.1383 -0.1883 -0.8293
 7503TIP3    H143924   4.807   4.725  16.491  1.2549 -1.5767  0.4322
 7503TIP3    H243925   4.935   4.799  16.456  1.2236 -1.5588  0.3528
 7504TIP3   OH243926   3.638   6.096   1.741  0.2323 -0.1275  0.4658
 7504TIP3    H143927   3.673   6.112   1.653 -0.5117 -1.9989 -0.2078
 7504TIP3    H243928   3.574   6.165   1.754  1.4844  1.1190  0.2038
 7505TIP3   OH243929   1.564   4.743   5.131  0.0210 -0.0584  0.3109
 7505TIP3    H143930   1.547   4.652   5.107 -2.4522  0.5343 -0.3382
 7505TIP3    H243931   1.656   4.745   5.156 -0.1890 -2.9897  1.4968
 7506TIP3   OH243932   5.125   1.059  11.415  0.3899  0.3350 -0.1319
 7506TIP3    H143933   5.188   1.127  11.391  2.1197 -0.9500  0.6161
 7506TIP3    H243934   5.144   0.987  11.355  2.3092 -1.5293  2.5854
 7507TIP3   OH243935   0.042   2.335  12.793 -0.0024 -0.8145  0.2302
 7507TIP3    H143936   0.076   2.266  12.850 -0.9152 -1.9113 -0.5271
 7507TIP3    H243937   0.038   2.295  12.706 -0.9831  0.0314 -0.1344
 7508TIP3   OH243938   0.549   3.755   2.874 -0.0008  0.1655  0.2308
 7508TIP3    H143939   0.552   3.846   2.842  1.0708  0.5923  1.4990
 7508TIP3    H243940   0.456   3.736   2.883 -0.2632  0.8350 -0.8834
 7509TIP3   OH243941   5.665   0.446  13.287 -0.0454 -0.5703  0.5557
 7509TIP3    H143942   5.681   0.356  13.257  0.6582 -0.6320  1.1199
 7509TIP3    H243943   5.684   0.444  13.380 -3.7064 -0.7415  1.3992
 7510TIP3   OH243944   0.205   3.662  11.784 -0.1513  0.4040 -0.6542
 7510TIP3    H143945   0.247   3.746  11.766 -1.8447  1.2803 -0.6444
 7510TIP3    H243946   0.112   3.678  11.770 -0.3659 -1.9037 -2.1951
 7511TIP3   OH243947   3.181   3.288  11.445 -0.0433 -0.0686 -0.3824
 7511TIP3    H143948   3.266   3.276  11.403 -0.0667 -0.4151 -0.3312
 7511TIP3    H243949   3.180   3.225  11.517  0.0120  0.5535  0.1612
 7512TIP3   OH243950   0.630   1.144  12.157 -0.7838 -0.1829 -0.2128
 7512TIP3    H143951   0.672   1.151  12.243  0.4976 -0.1276 -0.8341
 7512TIP3    H243952   0.584   1.228  12.147 -1.2886 -0.3511  0.5897
 7513TIP3   OH243953   1.891   3.502  11.301 -0.1243  0.2112  0.3471
 7513TIP3    H143954   1.823   3.533  11.360 -0.2005  1.6843 -0.4754
 7513TIP3    H243955   1.948   3.448  11.355 -1.5177 -0.4074  1.2108
 7514TIP3   OH243956   1.107   2.735  13.828  0.4369 -0.3038  0.5582
 7514TIP3    H143957   1.194   2.703  13.802  0.9904  1.4761  0.1707
 7514TIP3    H243958   1.124   2.802  13.893 -0.6773 -0.1538  0.7060
 7515TIP3   OH243959   6.650   3.730  13.830 -0.6666  0.1181  0.7920
 7515TIP3    H143960   6.716   3.796  13.852 -0.5207  0.4570 -0.5789
 7515TIP3    H243961   6.688   3.647  13.857  0.4265  0.2847 -0.2050
 7516TIP3   OH243962   4.637   1.646   0.945 -0.4746  0.6961  0.4748
 7516TIP3    H143963   4.621   1.569   0.891 -1.4429 -0.0477  1.8035
 7516TIP3    H243964   4.577   1.712   0.911 -0.2631  0.6006 -0.0972
 7517TIP3   OH243965   2.935   1.118   5.061  0.4429 -0.2409 -0.3070
 7517TIP3    H143966   3.014   1.067   5.077 -0.1804 -1.0415  0.2850
 7517TIP3    H243967   2.865   1.052   5.056 -0.4769  0.5920  1.1858
 7518TIP3   OH243968   2.130   1.912   5.585 -0.0866 -0.0343 -0.2326
 7518TIP3    H143969   2.164   1.988   5.539  0.2398 -0.4632 -0.7099
 7518TIP3    H243970   2.099   1.946   5.669 -1.5804  0.9319 -1.1389
 7519TIP3   OH243971   5.823   4.623   4.176 -0.6589  0.1085  0.1673
 7519TIP3    H143972   5.905   4.671   4.187 -0.0687 -0.3609 -1.9388
 7519TIP3    H243973   5.755   4.690   4.173 -0.3994  0.4890  2.1487
 7520TIP3   OH243974   0.263   0.830   0.233 -0.2149  0.0362  0.6185
 7520TIP3    H143975   0.260   0.905   0.175  0.5191  0.0791  0.6341
 7520TIP3    H243976   0.173   0.822   0.266 -0.0531  1.5888  1.4892
 7521TIP3   OH243977   2.737   5.699  15.599 -0.0763  0.6777 -0.2597
 7521TIP3    H143978   2.780   5.621  15.632  1.6592  0.8719 -1.9550
 7521TIP3    H243979   2.649   5.696  15.636  0.1364 -1.7864  0.1158
 7522TIP3   OH243980   6.183   4.650  17.117  0.0432  0.0394  0.0290
 7522TIP3    H143981   6.247   4.626  17.185  0.0425  1.4453  0.5479
 7522TIP3    H243982   6.180   4.745  17.120 -2.4302 -0.0065  0.3298
 7523TIP3   OH243983   1.929   1.091  16.133  0.4621 -0.3278 -0.1996
 7523TIP3    H143984   1.916   1.066  16.225  0.3969 -0.6663 -0.3035
 7523TIP3    H243985   1.914   1.186  16.132 -0.3452 -0.4501 -0.0132
 7524TIP3   OH243986   5.353   5.643   5.429 -0.1044 -0.9345 -0.4689
 7524TIP3    H143987   5.296   5.592   5.485 -0.0043  0.2510  0.7346
 7524TIP3    H243988   5.442   5.625   5.460 -0.0659 -0.0660 -0.0461
 7525TIP3   OH243989   1.491   2.219   3.989  0.0357 -0.3808 -0.8936
 7525TIP3    H143990   1.476   2.258   3.902 -0.2441  1.5478 -0.0217
 7525TIP3    H243991   1.570   2.263   4.021  0.0437 -0.9678 -0.1116
 7526TIP3   OH243992   5.278   3.519  16.638  0.8050 -0.1308 -0.2683
 7526TIP3    H143993   5.306   3.428  16.641  1.5515  0.0559 -1.2468
 7526TIP3    H243994   5.228   3.532  16.719 -0.4540 -1.7817 -0.7398
 7527TIP3   OH243995   1.754   4.960  13.839 -1.0776 -0.0576  0.1161
 7527TIP3    H143996   1.781   4.868  13.840  2.0666  0.7535 -1.4739
 7527TIP3    H243997   1.800   4.999  13.913 -0.9895  0.5942 -0.2830
 7528TIP3   OH243998   2.783   1.734  14.974 -0.0994  0.5062  0.6542
 7528TIP3    H143999   2.768   1.644  14.944  0.6863  0.8015 -0.7059
 7528TIP3    H244000   2.697   1.765  15.003 -0.5933 -0.3117  0.0853
 7529TIP3   OH244001   4.769   3.070  13.818  0.1730  0.0776 -0.1904
 7529TIP3    H144002   4.714   3.149  13.814 -0.0584 -0.1006 -0.5468
 7529TIP3    H244003   4.770   3.047  13.911  0.6954  0.8201 -0.0081
 7530TIP3   OH244004   3.025   3.388   0.264 -0.1462  0.4406 -0.0944
 7530TIP3    H144005   3.010   3.437   0.183 -0.4491  1.8956  0.8206
 7530TIP3    H244006   2.988   3.301   0.247 -2.7942  1.5909 -0.5707
 7531TIP3   OH244007   0.255   2.891  14.165 -1.0516  0.5910 -0.5598
 7531TIP3    H144008   0.250   2.847  14.080  1.0916  0.6174 -0.7206
 7531TIP3    H244009   0.232   2.822  14.229 -0.5507  0.0062 -1.0044
 7532TIP3   OH244010   3.007   5.847  15.633  0.2329  0.4499 -0.2633
 7532TIP3    H144011   2.921   5.812  15.607 -0.0652 -0.0868  1.3759
 7532TIP3    H244012   3.052   5.772  15.671  1.4737  0.7204 -1.1805
 7533TIP3   OH244013   2.726   3.736   1.780  0.4389  0.3689  0.2820
 7533TIP3    H144014   2.694   3.664   1.835  0.3788 -0.6261 -1.0452
 7533TIP3    H244015   2.780   3.789   1.839 -0.1363 -0.3377  1.4578
 7534TIP3   OH244016   4.085   0.984  13.241  0.3082  0.2507  0.2540
 7534TIP3    H144017   4.168   0.955  13.279 -0.2329 -1.1098  0.4443
 7534TIP3    H244018   4.032   0.904  13.235  0.4067  0.3838 -3.4494
 7535TIP3   OH244019   0.900   5.107  11.250  0.4702  0.3540  0.1953
 7535TIP3    H144020   0.953   5.028  11.236  1.0193  0.4964  1.3489
 7535TIP3    H244021   0.811   5.074  11.263  0.4939  0.0148 -0.4916
 7536TIP3   OH244022   5.387   3.195   5.675 -0.2737 -0.1282 -0.1648
 7536TIP3    H144023   5.365   3.250   5.600  0.2672  0.7413  0.3026
 7536TIP3    H244024   5.459   3.140   5.644  0.9027  1.2172  0.1384
 7537TIP3   OH244025   2.302   3.601   3.472  0.1502 -0.1678  0.2621
 7537TIP3    H144026   2.306   3.569   3.382 -0.3233 -1.8538  0.8179
 7537TIP3    H244027   2.321   3.523   3.525  1.6808  1.0809  1.5763
 7538TIP3   OH244028   5.814   1.437  14.614  0.1327  0.4162  0.3804
 7538TIP3    H144029   5.893   1.477  14.577  0.3532 -0.2159  0.1727
 7538TIP3    H244030   5.847   1.373  14.677 -0.1902 -0.8188 -0.6934
 7539TIP3   OH244031   2.906   1.399   4.008 -0.3718  0.1277  0.2325
 7539TIP3    H144032   2.825   1.393   4.058 -0.8471  2.2166 -0.2639
 7539TIP3    H244033   2.972   1.421   4.074 -0.9480  2.5948 -0.0003
 7540TIP3   OH244034   0.006   1.331   5.852  0.5203  0.2576  0.3551
 7540TIP3    H144035  -0.042   1.293   5.926  0.4900 -1.0661 -0.3346
 7540TIP3    H244036  -0.054   1.323   5.778  1.0253  0.4764 -0.0772
 7541TIP3   OH244037   4.255   0.177  13.273  0.4992 -0.1937 -0.4943
 7541TIP3    H144038   4.165   0.209  13.274  0.8476  0.8086  0.3975
 7541TIP3    H244039   4.252   0.096  13.223 -1.0838 -0.7241  0.4512
 7542TIP3   OH244040   6.040   3.909   3.735  0.3082 -0.3760 -0.6381
 7542TIP3    H144041   6.062   4.002   3.729 -1.8482  0.2602  0.7536
 7542TIP3    H244042   5.944   3.906   3.731  0.3774 -2.6243 -1.5694
 7543TIP3   OH244043   3.790   6.652   5.174 -0.1895  0.5801  0.5083
 7543TIP3    H144044   3.756   6.678   5.260  1.3066  3.0359  0.4109
 7543TIP3    H244045   3.855   6.585   5.193  2.3391  3.2353  1.6355
 7544TIP3   OH244046   4.665   6.567  14.973 -0.0241  0.5295 -0.5558
 7544TIP3    H144047   4.655   6.545  14.880 -0.6718 -0.5694 -0.2399
 7544TIP3    H244048   4.672   6.662  14.975 -2.3549  0.7450 -1.5398
 7545TIP3   OH244049   0.221   4.960  10.265 -0.3975  0.1496 -0.2797
 7545TIP3    H144050   0.286   5.009  10.315 -0.7358  2.1624 -1.7087
 7545TIP3    H244051   0.269   4.887  10.227  0.7569  0.8863 -0.2595
 7546TIP3   OH244052   4.182   3.368   0.528 -0.2439 -0.0037  0.1143
 7546TIP3    H144053   4.278   3.371   0.529 -0.2391 -0.2406  1.2695
 7546TIP3    H244054   4.160   3.293   0.583 -1.0962  0.2484  0.1276
 7547TIP3   OH244055   1.102   3.034   0.214 -0.1639  0.1461  0.6330
 7547TIP3    H144056   1.108   3.129   0.204  0.7568  0.2118  1.6923
 7547TIP3    H244057   1.010   3.013   0.195 -1.1167  1.6347  3.3567
 7548TIP3   OH244058   4.384   1.572  14.262  0.1998  0.1796 -0.0556
 7548TIP3    H144059   4.381   1.658  14.221 -2.4568  0.1355 -0.0381
 7548TIP3    H244060   4.353   1.586  14.351 -2.9410 -1.1699 -0.8550
 7549TIP3   OH244061   3.525   2.898   5.334  0.2273  0.0254 -0.9443
 7549TIP3    H144062   3.437   2.860   5.326 -0.3350  0.8036  1.1543
 7549TIP3    H244063   3.510   2.992   5.326  0.9300  0.1334 -0.9677
 7550TIP3   OH244064   4.930   0.910   1.774 -0.2132 -0.4046 -0.4710
 7550TIP3    H144065   4.848   0.876   1.738 -0.9558  0.7803  0.0717
 7550TIP3    H244066   4.945   0.858   1.853 -0.4386 -0.6134 -0.5644
 7551TIP3   OH244067   3.075   0.455   4.512 -0.3581  0.1738 -0.5641
 7551TIP3    H144068   3.044   0.401   4.440 -0.5038 -0.5891  0.0713
 7551TIP3    H244069   3.014   0.437   4.584  0.3589  0.1934  0.0556
 7552TIP3   OH244070   0.840   1.582  16.462 -0.2385 -0.0343 -0.0733
 7552TIP3    H144071   0.910   1.519  16.479 -0.9864 -0.6583  0.7263
 7552TIP3    H244072   0.794   1.546  16.386 -0.1367 -0.0028 -0.1513
 7553TIP3   OH244073   4.629   3.162   4.344  0.1248 -0.4437  0.4348
 7553TIP3    H144074   4.694   3.099   4.376  2.9693  1.4581 -1.2764
 7553TIP3    H244075   4.618   3.224   4.416  0.2151 -0.7585  0.7215
 7554TIP3   OH244076   5.951   5.679  12.117 -0.3854  0.1589  0.1275
 7554TIP3    H144077   5.923   5.590  12.137 -3.4003  1.0014 -0.1812
 7554TIP3    H244078   5.877   5.734  12.140  0.5840  2.3805 -1.8245
 7555TIP3   OH244079   2.443   0.206   3.462  0.4098 -0.0256 -0.2498
 7555TIP3    H144080   2.377   0.259   3.506 -0.3584 -2.1800  1.2904
 7555TIP3    H244081   2.510   0.191   3.529  2.1471  1.5448 -1.5870
 7556TIP3   OH244082   2.520   4.627  16.914 -0.0699  0.0432 -0.6937
 7556TIP3    H144083   2.531   4.570  16.838  1.4634 -0.0349 -0.4278
 7556TIP3    H244084   2.510   4.567  16.988  2.5466  0.0656 -0.2661
 7557TIP3   OH244085   0.338   4.476  15.853  0.1750 -0.0392  0.3136
 7557TIP3    H144086   0.363   4.564  15.824  1.5410 -0.3981  0.4138
 7557TIP3    H244087   0.411   4.420  15.830 -0.4451 -1.0662  0.7726
 7558TIP3   OH244088   1.918   2.491   6.422  0.0783  0.0002  1.0774
 7558TIP3    H144089   1.958   2.576   6.409  1.0058 -0.2534  2.1390
 7558TIP3    H244090   1.991   2.429   6.423 -0.7129 -1.0735 -1.5260
 7559TIP3   OH244091   4.488   6.518   4.737  0.1817 -0.1887 -0.4809
 7559TIP3    H144092   4.492   6.584   4.667 -2.1159 -1.7039 -2.1062
 7559TIP3    H244093   4.556   6.454   4.713  0.5361  0.1548 -0.4039
 7560TIP3   OH244094   3.896   4.780   0.923  0.1892 -0.1375  0.4866
 7560TIP3    H144095   3.890   4.718   0.850 -0.5050  0.2331  0.2207
 7560TIP3    H244096   3.989   4.780   0.947  0.3956 -0.3906 -0.2948
 7561TIP3   OH244097   6.699   5.965   0.646 -0.1559 -0.1162  0.5567
 7561TIP3    H144098   6.743   5.954   0.562  0.5832  1.4163  0.7237
 7561TIP3    H244099   6.729   6.050   0.678 -1.1687 -0.2529  1.9298
 7562TIP3   OH244100   0.680   4.619  13.587 -0.4118 -0.0023  0.0059
 7562TIP3    H144101   0.663   4.636  13.494  0.2097  1.2237  0.1009
 7562TIP3    H244102   0.640   4.534  13.604 -0.5360 -0.2309 -1.3887
 7563TIP3   OH244103   0.337   4.966   1.175  0.3143 -0.4089 -0.0854
 7563TIP3    H144104   0.264   4.959   1.113  0.7682 -0.5118 -0.6056
 7563TIP3    H244105   0.316   4.901   1.242 -0.1445 -0.3439 -0.1602
 7564TIP3   OH244106   0.755   5.594  14.574  0.3823  0.5131  0.0899
 7564TIP3    H144107   0.838   5.612  14.532  0.6261  1.5858  0.9752
 7564TIP3    H244108   0.725   5.680  14.605 -0.9285  0.1096  0.0005
 7565TIP3   OH244109   6.724   2.617  11.977 -0.5301  0.0607  0.7459
 7565TIP3    H144110   6.651   2.664  11.935  0.6326  0.8386 -0.4273
 7565TIP3    H244111   6.681   2.549  12.028 -2.0300 -0.7909 -1.5402
 7566TIP3   OH244112   1.452   3.818  12.767 -1.4257 -0.2554  0.3661
 7566TIP3    H144113   1.391   3.754  12.804 -1.6827  0.6799  1.6044
 7566TIP3    H244114   1.409   3.848  12.687 -1.2983 -1.6386 -0.2198
 7567TIP3   OH244115   1.709   4.499  15.345 -0.1962 -0.4368  0.3879
 7567TIP3    H144116   1.711   4.467  15.255 -1.6540 -2.3076  0.9938
 7567TIP3    H244117   1.619   4.485  15.374 -0.0677  1.3276  1.7360
 7568TIP3   OH244118   0.667   3.277   0.380  0.5187  0.0650 -0.1904
 7568TIP3    H144119   0.735   3.322   0.429 -0.4322  0.4029  0.8192
 7568TIP3    H244120   0.628   3.344   0.325 -1.1858  0.6005  1.6263
 7569TIP3   OH244121   0.298   3.667   2.856 -0.8504 -0.2322 -0.4087
 7569TIP3    H144122   0.230   3.631   2.798  0.4213 -2.3107 -0.6660
 7569TIP3    H244123   0.251   3.689   2.936 -1.9536 -1.0974 -0.7983
 7570TIP3   OH244124   3.533   4.659  11.226  0.1636 -0.3389 -0.1620
 7570TIP3    H144125   3.538   4.565  11.210 -1.9900 -0.5909  0.4370
 7570TIP3    H244126   3.449   4.671  11.272 -0.0831  1.9954 -1.1614
 7571TIP3   OH244127   0.228   5.976   0.156 -0.4991  0.4566 -0.0761
 7571TIP3    H144128   0.176   5.928   0.221 -0.5606 -0.4617 -0.7849
 7571TIP3    H244129   0.317   5.973   0.190 -0.9226  2.2510  1.2719
 7572TIP3   OH244130   5.370   0.578  16.444  0.6833 -0.1288 -0.6085
 7572TIP3    H144131   5.420   0.587  16.364 -1.0184 -1.1991 -1.8159
 7572TIP3    H244132   5.365   0.484  16.460 -1.2664 -0.0584 -0.7244
 7573TIP3   OH244133   6.101   3.560  12.108  0.1732 -0.1330  0.1524
 7573TIP3    H144134   6.078   3.494  12.173 -2.0887 -0.7058 -1.1611
 7573TIP3    H244135   6.161   3.516  12.048  0.7503 -0.1732  0.7501
 7574TIP3   OH244136   1.854   1.287  11.310  0.2963  0.1155 -0.1267
 7574TIP3    H144137   1.808   1.338  11.244  1.0832 -0.1724 -0.9034
 7574TIP3    H244138   1.798   1.292  11.387  0.0618  1.6382 -0.3766
 7575TIP3   OH244139   5.680   0.221  17.200 -0.0206 -0.6724 -0.6976
 7575TIP3    H144140   5.720   0.307  17.184 -3.1007  0.6024 -1.8021
 7575TIP3    H244141   5.670   0.217  17.295 -1.0482  0.7581 -0.7290
 7576TIP3   OH244142   5.196   0.288   5.840  0.5230  0.4229  0.3259
 7576TIP3    H144143   5.227   0.235   5.912  2.6574  1.2291  0.0297
 7576TIP3    H244144   5.188   0.376   5.876 -0.6611  0.3819  0.1833
 7577TIP3   OH244145   6.694   2.682   5.522  0.1598  0.2355  0.4639
 7577TIP3    H144146   6.609   2.725   5.527 -0.0653 -0.1710  0.1986
 7577TIP3    H244147   6.730   2.689   5.610  0.3076  1.3314  0.3199
 7578TIP3   OH244148   2.375   3.682  12.605  0.4280 -0.3092 -0.5632
 7578TIP3    H144149   2.282   3.704  12.597  1.1523  2.0845 -3.3894
 7578TIP3    H244150   2.376   3.587  12.613 -2.2996 -0.3279  0.0789
 7579TIP3   OH244151   6.024   6.480   2.990  0.5286  0.2096 -0.6265
 7579TIP3    H144152   5.988   6.554   3.039 -1.0444 -1.2788  0.5072
 7579TIP3    H244153   6.113   6.508   2.967  0.0760  2.3096  0.0759
 7580TIP3   OH244154   5.655   1.220   0.341 -0.5245  0.3595 -0.1382
 7580TIP3    H144155   5.696   1.159   0.280 -0.9304  0.0138 -0.0696
 7580TIP3    H244156   5.561   1.207   0.328 -0.6144  0.4078  0.4338
 7581TIP3   OH244157   0.016   5.984   5.988 -0.1327  0.0908 -0.3307
 7581TIP3    H144158  -0.036   5.904   5.989 -1.7569  1.1266 -0.9766
 7581TIP3    H244159   0.042   5.995   5.896  0.7133 -0.0771 -0.1212
 7582TIP3   OH244160   4.344   5.743  16.767 -0.0356  0.2567 -0.3349
 7582TIP3    H144161   4.358   5.832  16.734  0.9176  0.5121  0.7384
 7582TIP3    H244162   4.350   5.751  16.862  0.4876 -1.0269 -0.2421
 7583TIP3   OH244163   2.846   6.542  10.597  0.0420 -0.2699 -0.2411
 7583TIP3    H144164   2.780   6.479  10.627  0.7014 -0.1910  1.4274
 7583TIP3    H244165   2.805   6.586  10.523 -1.7530 -0.2912  0.7160
 7584TIP3   OH244166   2.309   4.276  14.428  0.4564  0.1955  0.1302
 7584TIP3    H144167   2.400   4.304  14.437  0.7954 -0.8383 -0.0001
 7584TIP3    H244168   2.309   4.183  14.453 -0.7593  0.4657  1.2097
 7585TIP3   OH244169   5.569   6.730  15.342 -0.0829 -0.5158 -0.1346
 7585TIP3    H144170   5.642   6.728  15.403  0.3322  0.3196 -0.6019
 7585TIP3    H244171   5.581   6.652  15.287 -0.6103 -1.4247  0.9956
 7586TIP3   OH244172   1.007   2.330  15.313 -0.2647 -0.1738  0.0135
 7586TIP3    H144173   0.987   2.242  15.280  3.1191 -0.6276 -1.0251
 7586TIP3    H244174   1.073   2.363  15.252  0.5358  2.0012  2.0114
 7587TIP3   OH244175   3.003   6.266  13.848  0.0306 -0.9557  0.3445
 7587TIP3    H144176   2.994   6.340  13.788  2.3250 -0.7198  0.2721
 7587TIP3    H244177   2.978   6.301  13.933  0.8862 -0.1600  0.2713
 7588TIP3   OH244178   0.622   0.131   4.207  0.0432  0.1654 -0.4039
 7588TIP3    H144179   0.633   0.124   4.113  0.5456  1.8810 -0.4879
 7588TIP3    H244180   0.684   0.199   4.234 -0.1276 -0.2669  1.1561
 7589TIP3   OH244181   2.297   5.156  15.116  0.1313 -0.2667 -0.3997
 7589TIP3    H144182   2.246   5.078  15.137  0.4750 -0.4950 -0.4134
 7589TIP3    H244183   2.242   5.229  15.144  0.3637 -0.5482  0.8029
 7590TIP3   OH244184   1.889   0.212   4.649 -0.1146  0.8119  0.4674
 7590TIP3    H144185   1.849   0.189   4.565  2.0400  3.3238 -1.3123
 7590TIP3    H244186   1.942   0.135   4.671 -0.9915 -0.0238 -0.2320
 7591TIP3   OH244187   6.063   1.831   1.596 -0.0165 -0.2387 -0.3296
 7591TIP3    H144188   6.004   1.803   1.667  2.1292 -0.2621  1.5116
 7591TIP3    H244189   6.131   1.763   1.595  1.1944  0.9730 -0.8726
 7592TIP3   OH244190   0.976   3.500  13.160 -0.0860 -0.6968  0.5176
 7592TIP3    H144191   0.973   3.407  13.183  2.4668 -1.4270 -1.8287
 7592TIP3    H244192   0.886   3.522  13.135 -0.5450 -2.7315  0.3209
 7593TIP3   OH244193   0.449   3.157   5.399  0.0307 -0.2344 -0.1326
 7593TIP3    H144194   0.356   3.177   5.388  0.3000  1.9682  1.4201
 7593TIP3    H244195   0.450   3.081   5.457 -0.7772  0.5445  0.9201
 7594TIP3   OH244196   2.564   1.906   2.742  0.3165  0.4673  0.4389
 7594TIP3    H144197   2.550   1.813   2.729 -0.5805  0.5153  0.9705
 7594TIP3    H244198   2.581   1.915   2.836  2.1278  0.6373  0.1022
 7595TIP3   OH244199   1.622   1.898  10.734 -0.1393  0.0723 -0.2421
 7595TIP3    H144200   1.608   1.910  10.641  0.1605  0.6696 -0.2126
 7595TIP3    H244201   1.557   1.955  10.776 -1.0232 -1.0363 -0.0763
 7596TIP3   OH244202   0.065   5.165  12.533 -0.5445 -0.4592  0.4051
 7596TIP3    H144203   0.112   5.224  12.474 -3.5288  1.0905 -0.5303
 7596TIP3    H244204   0.106   5.179  12.619  2.3366 -1.0631 -0.8298
 7597TIP3   OH244205   4.700   6.637   0.332  0.6481  0.4336  0.3275
 7597TIP3    H144206   4.606   6.634   0.313  0.8488 -0.2668 -0.6282
 7597TIP3    H244207   4.741   6.614   0.249  1.6289 -0.5948  1.0912
 7598TIP3   OH244208   4.856   5.012   2.460 -0.4551 -0.6006 -0.1065
 7598TIP3    H144209   4.761   5.008   2.460 -0.4293 -1.3197 -1.5962
 7598TIP3    H244210   4.883   4.958   2.385  1.1466 -1.1564  0.8402
 7599TIP3   OH244211   2.137   4.699   0.732 -0.4310 -0.0467  0.5034
 7599TIP3    H144212   2.222   4.743   0.734 -1.3834  1.8140  1.0628
 7599TIP3    H244213   2.146   4.627   0.794  0.5091  0.5779  1.1089
 7600TIP3   OH244214   0.685   3.626  13.284 -0.1704 -0.4905 -0.0036
 7600TIP3    H144215   0.644   3.607  13.200  1.9636  0.0370 -1.2035
 7600TIP3    H244216   0.632   3.696  13.321  0.8688  1.7304 -2.5283
 7601TIP3   OH244217   4.096   1.344   6.838 -0.0502  0.4527  0.5167
 7601TIP3    H144218   4.086   1.417   6.900 -1.8954 -0.1142  0.9249
 7601TIP3    H244219   4.085   1.266   6.892  0.3426 -0.0896 -0.1885
 7602TIP3   OH244220   3.013   2.288  12.758 -0.2223  0.1889 -0.5714
 7602TIP3    H144221   3.100   2.267  12.793 -0.8811 -0.8729  0.4612
 7602TIP3    H244222   3.001   2.381  12.780  1.1451  0.6799 -1.8183
 7603TIP3   OH244223   6.479   1.732   3.591  0.1984  0.5544 -0.2690
 7603TIP3    H144224   6.472   1.732   3.495  1.0940  0.0003 -0.3450
 7603TIP3    H244225   6.433   1.653   3.618  0.2924  0.4988 -0.2715
 7604TIP3   OH244226   3.902   0.505   4.701  0.0624 -0.2280  0.2348
 7604TIP3    H144227   3.928   0.422   4.742 -2.1412  0.2489  2.6716
 7604TIP3    H244228   3.918   0.571   4.768 -1.0161  0.9265 -0.6376
 7605TIP3   OH244229   2.798   5.641  14.734 -0.0538  0.1618 -0.3624
 7605TIP3    H144230   2.873   5.699  14.718 -0.6627  0.7666 -1.0941
 7605TIP3    H244231   2.782   5.648  14.828  0.8352 -0.0023 -0.2010
 7606TIP3   OH244232   6.703   3.171  13.447 -0.1491  0.3470 -0.6695
 7606TIP3    H144233   6.690   3.261  13.417  0.4836 -0.1120 -2.3542
 7606TIP3    H244234   6.781   3.141  13.401 -1.4051 -1.6742 -1.5714
 7607TIP3   OH244235   5.808   1.217   5.396 -0.0270  0.2355  0.2584
 7607TIP3    H144236   5.876   1.163   5.436  0.9387  1.4848  0.3380
 7607TIP3    H244237   5.804   1.187   5.305 -2.4764 -2.8560  1.3111
 7608TIP3   OH244238   5.970   2.859  15.817 -0.4652  0.3439 -0.3894
 7608TIP3    H144239   6.036   2.853  15.747  1.0381 -1.1692  1.1071
 7608TIP3    H244240   5.996   2.937  15.866  0.8493 -0.8002  0.7845
 7609TIP3   OH244241   4.500   6.084  13.740 -0.4266 -0.7096  0.2591
 7609TIP3    H144242   4.425   6.142  13.728 -0.2429 -0.8709 -1.8559
 7609TIP3    H244243   4.468   6.014  13.797 -1.2143  0.4114  1.2151
 7610TIP3   OH244244   3.745   3.238  13.585  0.4666  0.2263  0.1237
 7610TIP3    H144245   3.706   3.233  13.672 -0.7381  0.3604 -0.3951
 7610TIP3    H244246   3.695   3.306  13.540  1.6443  0.7534 -0.3870
 7611TIP3   OH244247   5.603   0.211  16.915  0.2817  0.4073 -0.1720
 7611TIP3    H144248   5.610   0.262  16.996 -0.0754  0.2440 -0.0346
 7611TIP3    H244249   5.523   0.243  16.873  0.2233  0.1805 -0.2388
 7612TIP3   OH244250   2.124   5.359   4.080 -0.7239 -0.3187 -0.0369
 7612TIP3    H144251   2.034   5.330   4.094 -0.9545 -0.1329 -1.1032
 7612TIP3    H244252   2.145   5.411   4.158 -1.3522 -0.7973  0.4580
 7613TIP3   OH244253   3.160   4.606   6.007  0.1229 -0.0255 -0.2392
 7613TIP3    H144254   3.233   4.626   5.948  0.5867  0.4667  0.4962
 7613TIP3    H244255   3.202   4.571   6.086 -0.5387 -1.5596 -0.5427
 7614TIP3   OH244256   1.856   5.392   3.682 -0.9249  0.0160 -0.2890
 7614TIP3    H144257   1.829   5.347   3.762 -0.9097  1.3780  0.4798
 7614TIP3    H244258   1.778   5.439   3.654 -1.8697 -2.8231 -2.7646
 7615TIP3   OH244259   1.004   2.708   0.222  0.5927  0.3239  0.3254
 7615TIP3    H144260   0.976   2.799   0.209  0.9267  0.1835 -1.5614
 7615TIP3    H244261   1.028   2.678   0.134  0.2430 -1.6719  0.8891
 7616TIP3   OH244262   1.340   0.733   3.821  0.1709  0.3286  0.3474
 7616TIP3    H144263   1.248   0.722   3.845  0.0630  0.7014  0.1088
 7616TIP3    H244264   1.388   0.708   3.899 -0.1342  0.1753  0.4889
 7617TIP3   OH244265   1.141   5.147   1.848 -0.4140  0.1605 -0.1889
 7617TIP3    H144266   1.219   5.134   1.795  0.9609  3.1692  0.9814
 7617TIP3    H244267   1.170   5.132   1.938 -1.1332  1.4045  0.2626
 7618TIP3   OH244268   2.504   2.853   0.576 -0.1446 -0.4466  0.5281
 7618TIP3    H144269   2.433   2.841   0.513 -0.0134  2.1801 -0.1630
 7618TIP3    H244270   2.569   2.787   0.551 -1.5189 -1.6249 -0.0073
 7619TIP3   OH244271   0.011   2.254   4.464  0.4788 -0.0320 -0.0756
 7619TIP3    H144272  -0.026   2.220   4.383 -0.2827  1.5596 -0.4090
 7619TIP3    H244273   0.039   2.343   4.443  1.6083 -0.1129  1.0234
 7620TIP3   OH244274   0.213   2.516  13.361  0.3651 -0.1083 -0.0562
 7620TIP3    H144275   0.196   2.474  13.276  1.2329 -1.9033  0.6330
 7620TIP3    H244276   0.128   2.516  13.405  0.0992  0.0003 -0.5606
 7621TIP3   OH244277   6.400   5.947  14.800 -0.4888  0.6425  0.1231
 7621TIP3    H144278   6.313   5.964  14.835 -0.1778  0.0312  1.2214
 7621TIP3    H244279   6.394   5.861  14.759  0.5252 -1.1555  3.5270
 7622TIP3   OH244280   6.217   5.224   2.795  0.2809 -0.1466  0.3018
 7622TIP3    H144281   6.213   5.299   2.854  1.9860  0.9717 -0.9623
 7622TIP3    H244282   6.151   5.243   2.728  0.5075  0.0929  0.1441
 7623TIP3   OH244283   3.296   6.459  14.482 -0.3077  0.2954 -0.1514
 7623TIP3    H144284   3.236   6.400  14.436 -0.6083  0.6474 -0.2155
 7623TIP3    H244285   3.239   6.528  14.517  0.1421  0.9864 -0.7813
 7624TIP3   OH244286   2.935   1.833   0.477  0.4643 -0.1567 -0.4089
 7624TIP3    H144287   2.872   1.762   0.464  0.8054 -0.7526  1.1188
 7624TIP3    H244288   2.888   1.912   0.450 -0.4746 -0.7554 -0.5530
 7625TIP3   OH244289   6.438   3.635   0.394 -0.0585  0.5547  0.2317
 7625TIP3    H144290   6.462   3.542   0.393 -0.7104  0.3794 -1.5398
 7625TIP3    H244291   6.522   3.681   0.393  0.2716 -0.0082  1.3651
 7626TIP3   OH244292   1.887   2.370  11.134  0.0579  0.3620 -0.3947
 7626TIP3    H144293   1.969   2.322  11.147  0.5863  0.9720 -1.4227
 7626TIP3    H244294   1.838   2.317  11.071 -0.1883  0.1843 -0.0572
 7627TIP3   OH244295   3.660   2.456  11.188 -0.3278  0.0759 -0.0014
 7627TIP3    H144296   3.650   2.538  11.141 -1.0004 -0.1409 -0.2374
 7627TIP3    H244297   3.745   2.423  11.161 -1.0494 -0.4528 -1.6902
 7628TIP3   OH244298   1.816   3.640   2.227 -0.1414 -0.1977 -0.3673
 7628TIP3    H144299   1.909   3.651   2.204 -0.2996  0.8546 -0.4959
 7628TIP3    H244300   1.807   3.546   2.241  0.9856 -0.2922 -0.2081
 7629TIP3   OH244301   2.344   1.423  11.501  0.3988 -0.1159 -0.2549
 7629TIP3    H144302   2.304   1.376  11.429  1.7095 -1.0044 -0.4262
 7629TIP3    H244303   2.438   1.420  11.483  0.7691 -0.5757  1.6035
 7630TIP3   OH244304   2.866   1.025  16.445 -0.1545  0.3248  0.4273
 7630TIP3    H144305   2.922   1.084  16.496  0.9405 -0.5344  0.2331
 7630TIP3    H244306   2.845   0.954  16.506 -1.1616  0.7244  0.5453
 7631TIP3   OH244307   0.476   6.384   3.024  0.2151 -0.0647  0.0109
 7631TIP3    H144308   0.422   6.305   3.029 -1.3542  0.6956 -3.4963
 7631TIP3    H244309   0.559   6.353   2.987 -0.7065  0.0361 -2.1865
 7632TIP3   OH244310   0.850   3.788   4.653  0.0361 -0.2008 -0.6035
 7632TIP3    H144311   0.810   3.742   4.727 -2.1988  0.6210 -1.2680
 7632TIP3    H244312   0.783   3.851   4.624  1.7165  1.0326 -1.9171
 7633TIP3   OH244313   5.417   5.393   4.710  0.6870  0.5047  0.6666
 7633TIP3    H144314   5.453   5.416   4.796  1.0119  0.0519  0.6572
 7633TIP3    H244315   5.379   5.474   4.677  0.7357  0.7289  1.1554
 7634TIP3   OH244316   5.995   1.897  16.290 -0.0558  0.0814  0.2046
 7634TIP3    H144317   6.042   1.844  16.354  0.1845 -1.1688 -0.9693
 7634TIP3    H244318   6.049   1.975  16.279 -0.1099  0.3048  1.5280
 7635TIP3   OH244319   3.904   5.554  15.544  0.4311  0.0624 -0.2738
 7635TIP3    H144320   3.995   5.582  15.555  0.3222 -0.6425  3.0230
 7635TIP3    H244321   3.861   5.627  15.500  1.8757  1.7554  1.0756
 7636TIP3   OH244322   0.702   5.077   1.753 -0.4893  0.2839  0.9929
 7636TIP3    H144323   0.724   5.059   1.662  0.3469  0.7681  1.0865
 7636TIP3    H244324   0.617   5.119   1.750  0.0136  1.2748  0.3444
 7637TIP3   OH244325   1.541   3.199   0.926 -0.0010 -0.1878 -0.5532
 7637TIP3    H144326   1.576   3.123   0.880 -0.4317  0.1246 -1.4084
 7637TIP3    H244327   1.593   3.204   1.006  0.2719 -1.1654 -0.6612
 7638TIP3   OH244328   3.928   1.880   5.448  0.1379  0.1213  0.2342
 7638TIP3    H144329   3.906   1.880   5.355  1.1431 -1.3403 -0.0327
 7638TIP3    H244330   4.008   1.827   5.453  1.1514  1.7578  1.6917
 7639TIP3   OH244331   1.825   0.319  12.796  0.6297  0.6477  0.0369
 7639TIP3    H144332   1.783   0.264  12.730 -2.5190  0.5953  1.9619
 7639TIP3    H244333   1.795   0.407  12.777  0.0490  0.6922  1.1213
 7640TIP3   OH244334   3.753   2.977   2.830  0.2319  0.5686  0.0755
 7640TIP3    H144335   3.825   3.039   2.839  1.5226 -0.7976 -0.5485
 7640TIP3    H244336   3.761   2.943   2.741 -1.4385  0.7019 -0.1442
 7641TIP3   OH244337   5.443   1.088  13.039  0.3121  0.3252  0.6177
 7641TIP3    H144338   5.535   1.101  13.062  0.4204 -0.1497  0.4620
 7641TIP3    H244339   5.443   1.077  12.944  0.1521 -0.1459  0.6682
 7642TIP3   OH244340   2.938   1.350  14.121  0.1564 -0.1892  0.1713
 7642TIP3    H144341   2.846   1.362  14.098  0.6992 -0.1943 -2.1374
 7642TIP3    H244342   2.945   1.258  14.147 -0.1497 -0.6694 -1.4006
 7643TIP3   OH244343   1.479   6.179   5.043  0.1941  0.0099 -0.1113
 7643TIP3    H144344   1.424   6.102   5.057 -1.8130  1.5045  0.5779
 7643TIP3    H244345   1.464   6.203   4.951 -0.7492  0.7027  0.2066
 7644TIP3   OH244346   2.846   5.898  11.409 -0.1533 -0.1840 -0.1767
 7644TIP3    H144347   2.891   5.876  11.328 -1.6076  0.3106 -1.1222
 7644TIP3    H244348   2.764   5.849  11.406 -0.0398 -0.4896  1.1942
 7645TIP3   OH244349   1.961   4.629  15.826  0.2392  0.0826 -0.2673
 7645TIP3    H144350   1.992   4.541  15.806 -1.8623 -0.3592 -1.6907
 7645TIP3    H244351   1.985   4.681  15.750 -0.2688  0.3149 -0.2690
 7646TIP3   OH244352   3.538   6.249  11.458 -0.1017  0.2260 -0.4680
 7646TIP3    H144353   3.501   6.297  11.532  0.6462  1.4547 -0.8676
 7646TIP3    H244354   3.609   6.197  11.495 -0.2461  0.2225 -0.1983
 7647TIP3   OH244355   5.584   2.755  11.634 -0.3631 -0.0864 -0.3789
 7647TIP3    H144356   5.623   2.757  11.547  0.7290  3.4653  0.1279
 7647TIP3    H244357   5.648   2.708  11.688  0.2368  0.1311 -0.9015
 7648TIP3   OH244358   0.202   3.167  10.644  0.2756 -0.4584  0.1275
 7648TIP3    H144359   0.293   3.182  10.666 -0.2044  1.7713  0.7109
 7648TIP3    H244360   0.189   3.211  10.560 -0.2512 -0.7705  0.0389
 7649TIP3   OH244361   3.370   3.759  11.867 -0.2831 -0.1277  0.0699
 7649TIP3    H144362   3.308   3.792  11.932 -1.1597  2.3775 -1.9556
 7649TIP3    H244363   3.425   3.834  11.846 -1.5046 -0.1951 -3.7588
 7650TIP3   OH244364   0.057   3.671  13.589  0.0639 -0.5002 -0.0990
 7650TIP3    H144365   0.113   3.738  13.628  0.4793 -0.5464 -0.6084
 7650TIP3    H244366  -0.012   3.720  13.545 -0.5773 -0.4574  0.9536
 7651TIP3   OH244367   1.500   2.386   4.482 -0.1807 -0.7059 -0.2100
 7651TIP3    H144368   1.578   2.441   4.477 -0.3838 -0.3558  0.4080
 7651TIP3    H244369   1.428   2.447   4.490 -0.4412 -1.0493  0.1061
 7652TIP3   OH244370   3.144   5.179   5.823  0.1793 -0.0413 -0.2704
 7652TIP3    H144371   3.156   5.274   5.829 -1.7246  0.1924  0.0410
 7652TIP3    H244372   3.211   5.144   5.882  1.6528  1.0329 -1.2484
 7653TIP3   OH244373   2.100   0.499  14.299 -0.5549  0.4873  0.7555
 7653TIP3    H144374   2.135   0.542  14.221 -1.3154  1.1383  0.7706
 7653TIP3    H244375   2.119   0.560  14.370  2.2391 -1.1540  1.4599
 7654TIP3   OH244376   5.730   6.386  14.209 -0.2897  0.0124  0.5227
 7654TIP3    H144377   5.753   6.383  14.116 -0.6855  1.0779  0.3762
 7654TIP3    H244378   5.695   6.475  14.222  0.1799  0.0220  1.7861
 7655TIP3   OH244379   3.005   5.477  15.519 -0.1878  0.0460 -0.0140
 7655TIP3    H144380   3.072   5.409  15.535 -1.2639 -0.8736  0.6222
 7655TIP3    H244381   2.967   5.494  15.604 -0.2130  1.1811 -0.2438
 7656TIP3   OH244382   4.298   1.430  15.030  0.7353 -0.2990 -0.2281
 7656TIP3    H144383   4.306   1.502  14.967 -0.7985  0.7061  0.7111
 7656TIP3    H244384   4.234   1.371  14.991 -1.8483  1.3975  1.3635
 7657TIP3   OH244385   1.263   0.452   0.286  0.0134 -0.1945  0.3962
 7657TIP3    H144386   1.307   0.435   0.202 -1.0994 -0.3595 -0.1613
 7657TIP3    H244387   1.335   0.466   0.348  0.8465  0.8184 -0.7663
 7658TIP3   OH244388   4.698   6.748  14.515  0.0102 -0.8459 -0.1390
 7658TIP3    H144389   4.766   6.802  14.556 -1.2243 -1.2881  2.5465
 7658TIP3    H244390   4.745   6.700  14.446  2.1708 -0.1876  0.8251
 7659TIP3   OH244391   3.837   5.635  11.654  0.4613  0.0989 -0.2927
 7659TIP3    H144392   3.907   5.591  11.702  1.1712 -0.1892 -1.5882
 7659TIP3    H244393   3.875   5.717  11.625  0.2319 -0.0096 -0.9122
 7660TIP3   OH244394   5.438   1.856  16.320 -0.2558  0.4539 -0.2829
 7660TIP3    H144395   5.412   1.947  16.331 -0.1069  0.6656 -1.5865
 7660TIP3    H244396   5.491   1.856  16.240 -1.2482 -0.9780 -0.9575
 7661TIP3   OH244397   2.178   3.268  13.234  0.2766  0.1768 -0.0622
 7661TIP3    H144398   2.192   3.266  13.139 -0.8892 -0.8338 -0.2225
 7661TIP3    H244399   2.253   3.221  13.270 -0.0892 -0.8132 -0.5884
 7662TIP3   OH244400   3.179   4.403  10.607 -0.1095 -0.2696 -0.5280
 7662TIP3    H144401   3.153   4.481  10.559  0.2689 -0.3936 -0.9351
 7662TIP3    H244402   3.204   4.436  10.694 -0.8865 -0.0627 -0.3832
 7663TIP3   OH244403   0.168   5.461   6.328  0.3467  1.2231 -0.0556
 7663TIP3    H144404   0.117   5.493   6.402  0.6084 -0.7448  1.0287
 7663TIP3    H244405   0.153   5.366   6.328  1.4535  1.0153 -1.6837
 7664TIP3   OH244406   3.252   1.784   4.508 -0.0112  0.3765 -0.2768
 7664TIP3    H144407   3.215   1.848   4.569  0.4237  0.3451  0.0238
 7664TIP3    H244408   3.336   1.759   4.547  1.0464  1.5725 -1.7121
 7665TIP3   OH244409   5.412   3.496   5.777 -0.6001 -0.3808  0.6563
 7665TIP3    H144410   5.427   3.432   5.847 -1.1263 -1.2396 -0.0055
 7665TIP3    H244411   5.317   3.506   5.774 -0.5970 -0.5559 -0.1168
 7666TIP3   OH244412   5.358   4.247  15.277 -0.1015  0.2317 -0.0076
 7666TIP3    H144413   5.319   4.194  15.208 -1.2026  0.7456  0.2181
 7666TIP3    H244414   5.346   4.196  15.357  2.2073 -0.9015 -0.3366
 7667TIP3   OH244415   4.274   1.091   2.435  0.0253  0.5250 -0.1980
 7667TIP3    H144416   4.256   1.088   2.341 -1.7376  0.4122  0.1356
 7667TIP3    H244417   4.354   1.144   2.442  0.4432  0.1257 -1.7861
 7668TIP3   OH244418   5.561   0.027   6.598  0.1362  0.3250  0.4542
 7668TIP3    H144419   5.545  -0.029   6.522 -0.3654 -0.8408  1.4074
 7668TIP3    H244420   5.504   0.103   6.584 -1.2867 -0.7101  0.5271
 7669TIP3   OH244421   0.181   5.424  16.713  0.0156 -0.1468  0.6816
 7669TIP3    H144422   0.123   5.420  16.789 -2.0392  0.8246 -0.7800
 7669TIP3    H244423   0.201   5.517  16.704 -0.1896 -0.1918 -0.2573
 7670TIP3   OH244424   4.820   4.701  13.055  0.2210  0.0156 -0.1699
 7670TIP3    H144425   4.839   4.619  13.010  1.4915  1.1615 -1.8224
 7670TIP3    H244426   4.905   4.728  13.091 -0.8578 -1.0717  3.3064
 7671TIP3   OH244427   0.963   3.950   1.836 -0.4100 -0.4014 -0.2773
 7671TIP3    H144428   0.882   3.902   1.817  0.0479 -1.0213 -0.6829
 7671TIP3    H244429   1.012   3.892   1.894 -0.5171  0.2348  0.4498
 7672TIP3   OH244430   2.550   5.002   2.423 -0.2608  0.3498 -0.2310
 7672TIP3    H144431   2.587   4.916   2.441 -0.6719  0.4569  1.1605
 7672TIP3    H244432   2.611   5.064   2.464 -0.6388  0.6586 -0.1314
 7673TIP3   OH244433   0.340   0.959  11.940 -0.4096 -0.1974 -0.0756
 7673TIP3    H144434   0.415   0.920  11.896  1.0212  0.1388  2.0140
 7673TIP3    H244435   0.318   0.898  12.011  1.3887  2.3142  2.7606
 7674TIP3   OH244436   0.920   3.196   2.210 -0.4603  0.3584  0.0534
 7674TIP3    H144437   0.831   3.195   2.175 -0.8232 -0.5085  0.9842
 7674TIP3    H244438   0.909   3.174   2.303  0.8241 -0.7632 -0.0558
 7675TIP3   OH244439   2.753   4.144  10.480 -0.0415 -0.3291  0.0765
 7675TIP3    H144440   2.688   4.208  10.450 -0.1097 -0.7920 -0.7868
 7675TIP3    H244441   2.831   4.196  10.498  0.0419 -0.0417 -1.0476
 7676TIP3   OH244442   2.698   6.182   5.067 -0.5152  0.4290  0.5069
 7676TIP3    H144443   2.792   6.166   5.065 -0.5528 -0.0482  2.0372
 7676TIP3    H244444   2.689   6.269   5.106 -0.6663  0.9533 -0.6777
 7677TIP3   OH244445   3.980   2.404  11.933  0.7498 -0.0108  0.0603
 7677TIP3    H144446   4.007   2.400  11.842 -0.2981 -0.4558 -0.2444
 7677TIP3    H244447   4.046   2.354  11.981 -0.3005 -2.3616 -0.8511
 7678TIP3   OH244448   0.717   1.825  15.938  0.3417 -0.1508 -0.3357
 7678TIP3    H144449   0.696   1.879  16.015  0.7981 -0.6999  0.1792
 7678TIP3    H244450   0.631   1.805  15.900 -0.0717 -1.7885  1.3582
 7679TIP3   OH244451   6.294   1.552   4.422 -0.3143  0.0870  0.0571
 7679TIP3    H144452   6.316   1.622   4.483 -0.3850 -0.9407  1.2911
 7679TIP3    H244453   6.265   1.597   4.343  0.5488  1.4446  0.4933
 7680TIP3   OH244454   3.799   5.874   6.348 -0.0635 -0.1912  0.2745
 7680TIP3    H144455   3.875   5.836   6.390  0.6633  0.3109 -0.5573
 7680TIP3    H244456   3.783   5.955   6.396  0.2766 -0.0145  0.0910
 7681TIP3   OH244457   2.889   3.719  14.893 -0.1368 -0.2198  0.7259
 7681TIP3    H144458   2.978   3.726  14.928  0.4350 -0.4372 -0.6539
 7681TIP3    H244459   2.833   3.740  14.967  1.1058  2.2993  1.0074
 7682TIP3   OH244460   3.227   3.524  15.526 -0.1905  0.3007  0.3064
 7682TIP3    H144461   3.294   3.572  15.476 -0.4978  0.4535  0.0437
 7682TIP3    H244462   3.276   3.485  15.598  0.3057 -0.1490 -0.2596
 7683TIP3   OH244463   0.802   1.247   4.055  0.1395  0.0858 -0.3713
 7683TIP3    H144464   0.881   1.196   4.037 -1.4871 -1.9920 -1.9682
 7683TIP3    H244465   0.781   1.227   4.146  1.6122  0.9358  0.1784
 7684TIP3   OH244466   3.574   2.237   0.884  0.2148  0.5421 -0.3377
 7684TIP3    H144467   3.604   2.147   0.900 -0.5264  0.0173 -1.7565
 7684TIP3    H244468   3.588   2.282   0.967 -1.0402 -1.3478  0.9631
 7685TIP3   OH244469   2.926   3.433   1.717  0.1805 -0.8613  0.3117
 7685TIP3    H144470   2.990   3.447   1.647  0.7639  0.6337  1.1389
 7685TIP3    H244471   2.852   3.391   1.673  1.3579 -1.7990 -0.8238
 7686TIP3   OH244472   5.700   2.274   0.599  0.2031  0.2098 -0.0857
 7686TIP3    H144473   5.682   2.191   0.555 -1.9195  0.8443 -0.4744
 7686TIP3    H244474   5.701   2.339   0.529  1.6596  0.5543  0.2441
 7687TIP3   OH244475   2.110   1.831  16.874  0.1068  0.4156 -0.5155
 7687TIP3    H144476   2.021   1.803  16.897  0.1454  0.5118 -0.2482
 7687TIP3    H244477   2.097   1.909  16.820  0.0201  0.2673 -0.7068
 7688TIP3   OH244478   1.262   5.172  15.653  0.1773 -0.2187 -0.7740
 7688TIP3    H144479   1.282   5.167  15.559  0.8070 -0.8658 -0.6067
 7688TIP3    H244480   1.347   5.175  15.696 -0.1064 -0.3590 -0.1957
 7689TIP3   OH244481   1.321   3.620   1.667  0.1510  0.0584  0.1785
 7689TIP3    H144482   1.237   3.579   1.686  0.6249 -1.0249 -0.0383
 7689TIP3    H244483   1.384   3.571   1.720  0.6223  1.0181  0.5280
 7690TIP3   OH244484   3.793   4.188  11.453  0.2357 -0.4215  0.0111
 7690TIP3    H144485   3.839   4.114  11.494 -0.8336 -0.4012  1.2714
 7690TIP3    H244486   3.830   4.265  11.494  0.0448 -0.3463  0.0444
 7691TIP3   OH244487   4.989   4.676   6.550  0.2348 -0.8118 -0.5704
 7691TIP3    H144488   4.995   4.584   6.576  0.5337 -0.7568 -0.4344
 7691TIP3    H244489   5.067   4.716   6.588  0.0734 -0.4882 -0.5776
 7692TIP3   OH244490   2.108   5.678   1.213 -0.1473  0.7011  0.0594
 7692TIP3    H144491   2.084   5.729   1.135 -1.8618  0.9062  0.7087
 7692TIP3    H244492   2.200   5.700   1.227  0.6510 -0.5399 -2.8161
 7693TIP3   OH244493   5.131   3.154   2.493  0.0318 -0.2504 -0.4777
 7693TIP3    H144494   5.075   3.171   2.568 -0.3705  1.2077 -1.0792
 7693TIP3    H244495   5.207   3.109   2.529 -0.5069 -0.2466  0.6821
 7694TIP3   OH244496   0.936   6.651  16.621  0.1090  0.3038 -0.5604
 7694TIP3    H144497   1.026   6.661  16.592 -0.0951 -1.9812 -2.1020
 7694TIP3    H244498   0.895   6.596  16.554 -1.9227 -0.2725  1.0990
 7695TIP3   OH244499   4.450   0.360   1.601 -0.0908 -0.2221 -0.1559
 7695TIP3    H144500   4.427   0.271   1.575  1.4952 -0.7315  0.0879
 7695TIP3    H244501   4.470   0.405   1.519  0.2554 -0.4351 -0.1877
 7696TIP3   OH244502   6.153   1.373  14.172 -0.0701 -0.1778  0.4644
 7696TIP3    H144503   6.189   1.441  14.229 -0.0970  1.2540 -1.1766
 7696TIP3    H244504   6.068   1.351  14.211 -0.6806  1.7381  0.2607
 7697TIP3   OH244505   4.990   3.209  13.739 -0.5252  0.7568  0.6677
 7697TIP3    H144506   4.911   3.172  13.777 -2.1709  1.2704 -2.1308
 7697TIP3    H244507   5.059   3.147  13.763 -2.6501 -2.4717 -1.1242
 7698TIP3   OH244508   5.879   2.453   1.207 -0.3508 -0.1816 -0.4605
 7698TIP3    H144509   5.905   2.453   1.115 -0.2900  1.1181 -0.4480
 7698TIP3    H244510   5.824   2.375   1.216  3.3571 -2.9619 -0.5131
 7699TIP3   OH244511   4.527   3.831  14.937 -0.1743  0.3716  0.3001
 7699TIP3    H144512   4.616   3.834  14.902 -0.1165  0.6808  0.4729
 7699TIP3    H244513   4.475   3.882  14.875 -0.3538 -0.3236 -0.1382
 7700TIP3   OH244514   1.280   5.870   5.622  0.1011  0.0941 -0.0852
 7700TIP3    H144515   1.323   5.863   5.536  1.3483 -2.2061  0.6823
 7700TIP3    H244516   1.198   5.820   5.611  0.8131 -1.1976  0.3784
 7701TIP3   OH244517   5.853   1.529  13.515 -0.0719 -0.0497 -0.0958
 7701TIP3    H144518   5.856   1.564  13.604 -1.1852  1.5326 -0.6493
 7701TIP3    H244519   5.921   1.462  13.513  0.4292  0.3752  1.7432
 7702TIP3   OH244520   1.780   3.020   6.331 -0.3450 -0.1783 -0.2603
 7702TIP3    H144521   1.840   3.048   6.262 -1.2377 -1.2289 -1.4757
 7702TIP3    H244522   1.722   2.957   6.289 -1.2599 -0.4187  1.3141
 7703TIP3   OH244523   6.320   2.725   4.927  0.6820 -0.2809 -0.1044
 7703TIP3    H144524   6.375   2.686   4.859  1.4590  1.7374 -0.6732
 7703TIP3    H244525   6.231   2.714   4.894  0.6117 -4.3117  1.2166
 7704TIP3   OH244526   4.185   6.400  16.939  0.3789 -0.3462  0.4957
 7704TIP3    H144527   4.270   6.358  16.942 -0.4055 -2.0555 -0.4790
 7704TIP3    H244528   4.194   6.478  16.994  2.1790 -1.1944  1.4233
 7705TIP3   OH244529   2.736   3.435   5.117 -0.5401 -0.1556  0.3003
 7705TIP3    H144530   2.725   3.502   5.184 -0.3224 -0.3860  0.5719
 7705TIP3    H244531   2.831   3.432   5.101 -0.9074  2.5300 -2.7533
 7706TIP3   OH244532   2.597   5.142   3.361  0.2664 -0.1648 -0.4959
 7706TIP3    H144533   2.523   5.201   3.374  1.6910  1.8425 -1.1378
 7706TIP3    H244534   2.602   5.130   3.266  0.2056 -1.0540 -0.3944
 7707TIP3   OH244535   0.517   2.194  16.615  0.8233 -0.1018 -0.1721
 7707TIP3    H144536   0.532   2.241  16.533 -0.9625  0.2700 -0.3049
 7707TIP3    H244537   0.556   2.108  16.600  0.1366 -0.1923 -1.6061
 7708TIP3   OH244538   2.714   6.038  16.776 -0.6170  0.0079  0.5370
 7708TIP3    H144539   2.666   5.960  16.750  1.0359 -0.6166 -0.7532
 7708TIP3    H244540   2.718   6.034  16.872 -1.4837 -0.9173  0.5307
 7709TIP3   OH244541   6.775   4.562  10.772 -0.0880  0.1497  0.4442
 7709TIP3    H144542   6.780   4.589  10.863 -0.2700  1.2475  0.1301
 7709TIP3    H244543   6.684   4.578  10.747 -0.1996 -0.7598  0.2594
 7710TIP3   OH244544   1.885   4.586   1.518 -0.3789 -0.1181  0.0587
 7710TIP3    H144545   1.899   4.673   1.479  1.2452  0.6051  2.1418
 7710TIP3    H244546   1.827   4.601   1.592 -0.5508 -0.9052  0.0908
 7711TIP3   OH244547   3.653   0.197   3.257  0.3237 -0.3847 -0.6295
 7711TIP3    H144548   3.739   0.182   3.217  0.3954  0.7424 -0.9124
 7711TIP3    H244549   3.623   0.279   3.218 -0.7224 -0.5851 -0.2524
 7712TIP3   OH244550   4.304   6.207  13.079 -0.0921  0.7428 -0.6178
 7712TIP3    H144551   4.329   6.133  13.023  2.4576  0.0683  1.2973
 7712TIP3    H244552   4.221   6.179  13.119  0.1809 -0.5260 -0.9053
 7713TIP3   OH244553   2.792   0.590  12.606 -0.2860  0.0424  0.6232
 7713TIP3    H144554   2.768   0.539  12.683  0.3611 -1.0111  0.1436
 7713TIP3    H244555   2.751   0.543  12.533 -0.1302  0.5121  0.2330
 7714TIP3   OH244556   5.397   2.116  16.351  0.3013 -0.3621 -0.0049
 7714TIP3    H144557   5.476   2.132  16.402  0.2472 -0.0525 -0.0199
 7714TIP3    H244558   5.337   2.186  16.377 -0.1768 -0.9324  0.4419
 7715TIP3   OH244559   5.047   1.146   0.275  0.9919  0.3461  0.1367
 7715TIP3    H144560   5.099   1.094   0.214  0.1149 -0.8348  0.3912
 7715TIP3    H244561   5.099   1.147   0.356  1.5402  0.8346 -0.2114
 7716TIP3   OH244562   2.555   1.638   2.660  0.0342 -0.1961 -0.0944
 7716TIP3    H144563   2.522   1.609   2.575  2.3043  1.2069 -1.5046
 7716TIP3    H244564   2.579   1.557   2.705 -2.7111 -1.0607 -0.0936
 7717TIP3   OH244565   3.257   2.434  11.976 -0.2402 -0.0398  0.4880
 7717TIP3    H144566   3.204   2.414  11.899  1.0621  3.0868 -1.3195
 7717TIP3    H244567   3.211   2.506  12.018  1.7468  1.7602 -0.3262
 7718TIP3   OH244568   3.650   2.306   4.687 -0.4938  0.1339  0.0460
 7718TIP3    H144569   3.722   2.335   4.744  0.0665 -0.9994 -0.0671
 7718TIP3    H244570   3.626   2.220   4.721 -1.0113  0.0031 -0.6416
 7719TIP3   OH244571   3.062   3.297  15.808 -0.8699 -0.1500  0.4324
 7719TIP3    H144572   3.130   3.229  15.809  0.2069  0.9103  0.9875
 7719TIP3    H244573   2.989   3.258  15.856  0.2782 -0.3988  2.0325
 7720TIP3   OH244574   1.249   3.853   0.089  0.2343  0.7645  0.4106
 7720TIP3    H144575   1.256   3.853   0.185  0.6068 -2.2000  0.4392
 7720TIP3    H244576   1.157   3.869   0.072 -0.0787  0.0395  1.3288
 7721TIP3   OH244577   5.433   1.683   6.162  0.1084 -0.4474 -0.5844
 7721TIP3    H144578   5.417   1.689   6.256 -1.1455 -1.9291 -0.6875
 7721TIP3    H244579   5.524   1.655   6.156  1.4701  3.5397  0.0880
 7722TIP3   OH244580   3.462   0.302  17.189 -0.6033  0.4673  0.7949
 7722TIP3    H144581   3.534   0.323  17.130 -0.9646  1.4678  0.7001
 7722TIP3    H244582   3.475   0.210  17.211 -0.2262  0.1999 -0.5149
 7723TIP3   OH244583   6.149   4.832  12.648 -0.1881  0.6334 -0.0682
 7723TIP3    H144584   6.147   4.755  12.706 -1.4596  1.0123  0.4044
 7723TIP3    H244585   6.117   4.904  12.702  1.1747  1.5474 -0.4614
 7724TIP3   OH244586   3.026   4.156  13.478  0.0052 -0.1408 -0.3617
 7724TIP3    H144587   2.936   4.187  13.480 -0.1378 -0.6150  1.5064
 7724TIP3    H244588   3.023   4.070  13.519  0.6906 -1.9299 -3.8763
 7725TIP3   OH244589   5.673   2.096  11.560  0.2219  0.3974  0.1640
 7725TIP3    H144590   5.658   2.188  11.541  1.5253  0.7661  0.8689
 7725TIP3    H244591   5.590   2.053  11.538  0.4561  1.3245 -2.7818
 7726TIP3   OH244592   0.942   1.146  15.672 -0.3078  0.3335 -0.3323
 7726TIP3    H144593   0.907   1.217  15.617 -0.2954  1.0192  0.5363
 7726TIP3    H244594   0.872   1.081  15.673 -0.8064  0.8617 -0.1731
 7727TIP3   OH244595   1.619   6.712   4.637  0.8375  0.1345  0.0627
 7727TIP3    H144596   1.688   6.682   4.578 -0.0409 -2.5840  0.3361
 7727TIP3    H244597   1.656   6.702   4.724  1.6512  2.8949  0.0845
 7728TIP3   OH244598   1.350   2.966  14.220 -0.6906  0.0535  0.0793
 7728TIP3    H144599   1.435   3.009  14.215 -1.3073  1.1176 -1.6139
 7728TIP3    H244600   1.370   2.876  14.248  1.0931 -0.0235 -1.3793
 7729TIP3   OH244601   5.135   0.911   4.026  0.3284  0.2335  0.1304
 7729TIP3    H144602   5.184   0.889   4.106 -0.0228 -1.1874 -0.0278
 7729TIP3    H244603   5.043   0.903   4.052  0.1999  1.1836 -0.0375
 7730TIP3   OH244604   2.327   4.132  16.727 -0.4726 -0.0205  0.2806
 7730TIP3    H144605   2.317   4.143  16.822 -2.0027 -0.9511  0.2313
 7730TIP3    H244606   2.336   4.038  16.715 -2.6415 -0.1238 -0.7023
 7731TIP3   OH244607   5.734   0.257   3.187 -0.3999  0.3170 -0.4229
 7731TIP3    H144608   5.789   0.309   3.129 -2.6311  0.7093 -2.2438
 7731TIP3    H244609   5.712   0.316   3.259 -2.1212  1.6389 -1.9867
 7732TIP3   OH244610   1.969   6.375   0.133  0.2276 -0.2475 -0.1983
 7732TIP3    H144611   1.920   6.344   0.056 -0.2971  2.2239 -0.9155
 7732TIP3    H244612   2.047   6.320   0.135 -0.5141 -1.3941 -1.5835
 7733TIP3   OH244613   1.049   3.676  10.372  0.4882  0.1428 -0.2341
 7733TIP3    H144614   1.070   3.601  10.317  0.5907 -1.3131  1.7670
 7733TIP3    H244615   0.983   3.725  10.321  1.0823 -0.7844 -1.9392
 7734TIP3   OH244616   6.221   3.605  15.137 -0.4265  0.2039 -0.1292
 7734TIP3    H144617   6.215   3.560  15.221  0.0466  1.4726  0.5946
 7734TIP3    H244618   6.136   3.591  15.096 -0.7889 -0.1068  0.7274
 7735TIP3   OH244619   3.926   5.465   0.838 -0.0633 -0.3509  0.1760
 7735TIP3    H144620   3.853   5.477   0.898  0.8512 -2.1532  1.7273
 7735TIP3    H244621   3.982   5.541   0.852 -0.9217  0.3085  0.0353
 7736TIP3   OH244622   4.625   5.102  16.121 -0.1323 -0.6456 -0.7858
 7736TIP3    H144623   4.684   5.161  16.169 -1.4903  0.6511 -0.6599
 7736TIP3    H244624   4.680   5.027  16.098  1.8727  0.9960 -1.6194
 7737TIP3   OH244625   2.276   5.760  14.111 -0.1220  0.4061  0.0715
 7737TIP3    H144626   2.332   5.700  14.159 -0.8688 -0.0383  0.3980
 7737TIP3    H244627   2.199   5.708  14.088  0.0430  0.7284 -1.2473
 7738TIP3   OH244628   1.586   3.827  13.753 -0.4291  0.1942  0.0835
 7738TIP3    H144629   1.647   3.757  13.777 -0.8495  0.0699  0.7876
 7738TIP3    H244630   1.560   3.865  13.837  1.1469  2.3387 -0.3386
 7739TIP3   OH244631   5.208   3.239   4.779  0.6142  0.4137  0.2762
 7739TIP3    H144632   5.189   3.276   4.866 -0.7565 -0.9749  0.5977
 7739TIP3    H244633   5.144   3.280   4.721 -1.0104 -1.5242  0.6636
 7740TIP3   OH244634   1.356   3.246  13.989 -0.0185  0.1924 -0.0970
 7740TIP3    H144635   1.426   3.240  14.054  0.0453  1.1193 -0.0647
 7740TIP3    H244636   1.366   3.168  13.935 -2.1738 -2.4462  3.0806
 7741TIP3   OH244637   1.561   2.713   3.510 -0.5363  0.4765 -0.4721
 7741TIP3    H144638   1.466   2.718   3.521 -0.3018  1.4839  1.2028
 7741TIP3    H244639   1.575   2.726   3.416 -2.1661 -1.6433 -1.0602
 7742TIP3   OH244640   5.633   1.996  14.420 -0.4192 -0.1328  0.9684
 7742TIP3    H144641   5.546   1.961  14.405 -0.4475  0.6097 -0.6676
 7742TIP3    H244642   5.623   2.091  14.411  1.1816 -0.2342 -2.7893
 7743TIP3   OH244643   2.241   3.401  13.769 -0.7857  0.0202 -0.1598
 7743TIP3    H144644   2.326   3.402  13.726  0.0882  2.3904  1.5077
 7743TIP3    H244645   2.180   3.435  13.703 -0.0556  0.4111 -0.6411
 7744TIP3   OH244646   4.115   4.233   4.713  0.3349 -0.5699 -0.2964
 7744TIP3    H144647   4.090   4.150   4.674  1.0607 -1.0801  0.2971
 7744TIP3    H244648   4.122   4.215   4.807 -1.9113  0.7589  0.1686
 7745TIP3   OH244649   4.601   6.635  15.655  0.0250 -0.2293 -0.2691
 7745TIP3    H144650   4.595   6.618  15.561  0.0914 -0.3137 -0.2581
 7745TIP3    H244651   4.629   6.726  15.662  2.2520 -0.8753 -0.3532
 7746TIP3   OH244652   3.194   4.747  12.096  0.1969 -0.6756  0.1751
 7746TIP3    H144653   3.206   4.703  12.012  3.4646  0.0559  0.1658
 7746TIP3    H244654   3.178   4.676  12.159  1.2997 -1.5329 -0.4989
 7747TIP3   OH244655   5.164   0.595  16.678 -0.0066 -0.5793 -0.1090
 7747TIP3    H144656   5.221   0.556  16.613  1.5876  0.8575  0.3929
 7747TIP3    H244657   5.152   0.526  16.744  0.5278 -1.1408 -0.5970
 7748TIP3   OH244658   2.499   3.917  14.939  0.4803  0.1719 -0.4542
 7748TIP3    H144659   2.498   4.006  14.904  1.5069  0.1410 -0.5473
 7748TIP3    H244660   2.468   3.862  14.867  1.1964  0.2835 -0.8454
 7749TIP3   OH244661   4.988   5.091  10.860  0.3409  0.0036 -0.0985
 7749TIP3    H144662   5.074   5.099  10.818  0.5355 -0.3602  0.2243
 7749TIP3    H244663   4.978   4.997  10.876  0.3745  0.1578  0.8757
 7750TIP3   OH244664   0.132   2.473  12.166  0.0955  0.0152 -0.7074
 7750TIP3    H144665   0.219   2.453  12.133  0.5205  2.0277 -0.8772
 7750TIP3    H244666   0.081   2.495  12.089  0.1087  1.1862 -0.3969
 7751TIP3   OH244667   3.972   6.493  14.399  0.0592 -0.2836 -0.2030
 7751TIP3    H144668   4.020   6.526  14.475 -2.0304 -1.2644  1.6093
 7751TIP3    H244669   3.957   6.401  14.419 -1.9625 -0.1565 -1.0021
 7752TIP3   OH244670   0.794   0.490   0.344 -0.9017  0.2149 -0.2010
 7752TIP3    H144671   0.733   0.543   0.292 -0.9254 -0.3074 -0.6997
 7752TIP3    H244672   0.737   0.435   0.398 -0.8790  0.9536  0.5818
 7753TIP3   OH244673   4.234   4.254   5.824 -0.2187  0.2787 -0.5935
 7753TIP3    H144674   4.167   4.314   5.857 -0.9428 -0.2309 -1.1321
 7753TIP3    H244675   4.313   4.278   5.872 -1.3451 -0.7589  1.8516
 7754TIP3   OH244676   4.788   5.243  11.007 -0.0963  0.2967  0.4107
 7754TIP3    H144677   4.838   5.189  10.946 -1.0473 -0.5226  0.3478
 7754TIP3    H244678   4.851   5.265  11.076  0.4704 -0.3854  0.1189
 7755TIP3   OH244679   0.956   3.520  11.456 -0.1602  0.2797  0.0079
 7755TIP3    H144680   0.931   3.428  11.448 -0.2716  0.2843  0.3010
 7755TIP3    H244681   1.049   3.521  11.434  0.0088 -0.0140  0.7066
 7756TIP3   OH244682   2.137   6.620  13.709  0.7343  0.1125 -0.2146
 7756TIP3    H144683   2.162   6.709  13.685 -0.3114  0.3986 -0.2647
 7756TIP3    H244684   2.067   6.631  13.774  1.6222 -0.6644  0.9093
 7757TIP3   OH244685   4.755   6.428   3.467  0.1133 -0.2154  0.2486
 7757TIP3    H144686   4.674   6.389   3.435  1.0672 -0.5180 -1.9473
 7757TIP3    H244687   4.821   6.361   3.452  0.9238  0.3605  1.1821
 7758TIP3   OH244688   3.279   5.306  12.795 -0.4313  0.0660  0.1225
 7758TIP3    H144689   3.339   5.240  12.829 -1.1399 -2.8427 -3.8461
 7758TIP3    H244690   3.333   5.361  12.738 -0.9059 -0.7560 -1.1530
 7759TIP3   OH244691   2.671   3.678   0.765 -0.2813 -0.2267  0.4826
 7759TIP3    H144692   2.588   3.633   0.777 -1.2127  1.1142 -0.7448
 7759TIP3    H244693   2.715   3.630   0.695  1.0676 -2.3882  2.7313
 7760TIP3   OH244694   2.147   6.371   4.790  0.4074 -0.1036  0.5081
 7760TIP3    H144695   2.147   6.292   4.844  2.7335  0.8760  2.0264
 7760TIP3    H244696   2.210   6.353   4.720 -1.1967 -0.6528 -0.8189
 7761TIP3   OH244697   1.737   0.369   0.339 -0.1891 -0.5883 -0.3207
 7761TIP3    H144698   1.647   0.403   0.332 -0.3104 -1.3857 -3.2439
 7761TIP3    H244699   1.789   0.446   0.363 -1.5444  0.0355  0.6948
 7762TIP3   OH244700   0.348   6.582   0.280 -0.3116  0.2511 -0.2087
 7762TIP3    H144701   0.270   6.637   0.284 -0.4847  0.1709 -1.9669
 7762TIP3    H244702   0.413   6.629   0.332 -1.3118  0.6574  0.7097
 7763TIP3   OH244703   0.305   2.812  13.728 -0.0975 -0.3693 -0.7078
 7763TIP3    H144704   0.347   2.763  13.657  2.1071  0.0215  0.2740
 7763TIP3    H244705   0.353   2.894  13.733  0.5841 -0.8576  1.9663
 7764TIP3   OH244706   4.951   5.214   1.905  0.6833  0.7170 -0.4665
 7764TIP3    H144707   4.982   5.294   1.863 -0.3183  0.9493 -0.7719
 7764TIP3    H244708   5.018   5.194   1.970  1.7168  0.9421 -1.4355
 7765TIP3   OH244709   6.752   5.139   3.147  0.4886 -0.0840  1.3318
 7765TIP3    H144710   6.692   5.214   3.150  0.6928  0.1347  0.3157
 7765TIP3    H244711   6.698   5.067   3.113  0.6158 -0.0687  1.0955
 7766TIP3   OH244712   4.256   4.297  11.189  0.2593 -0.0737  0.7471
 7766TIP3    H144713   4.289   4.329  11.105  1.0655  1.5987  1.6801
 7766TIP3    H244714   4.219   4.374  11.232 -1.8207 -1.2775  1.1585
 7767TIP3   OH244715   0.846   5.273   0.821 -1.0022  0.6192  0.0793
 7767TIP3    H144716   0.797   5.213   0.765  1.2084 -1.2146  0.0458
 7767TIP3    H244717   0.809   5.261   0.908 -1.0568 -0.2520 -0.0660
 7768TIP3   OH244718   0.894   1.208   4.995 -0.4156 -0.6891 -0.6313
 7768TIP3    H144719   0.984   1.199   4.964 -0.7973 -1.4436 -1.5743
 7768TIP3    H244720   0.902   1.244   5.083  0.6928  1.8282 -1.7244
 7769TIP3   OH244721   5.330   6.620  13.023 -0.2919 -0.2707  0.1290
 7769TIP3    H144722   5.276   6.691  13.059  1.4472  0.2702  1.7416
 7769TIP3    H244723   5.305   6.543  13.073 -0.1861 -0.2033  0.2852
 7770TIP3   OH244724   2.488   2.004  14.043 -0.4046  0.3016  0.2540
 7770TIP3    H144725   2.434   1.959  13.978 -0.3732  0.3316  0.2068
 7770TIP3    H244726   2.507   1.938  14.109 -1.6413  0.6400  0.9752
 7771TIP3   OH244727   1.838   1.729  16.560  0.0287  0.2315  0.0015
 7771TIP3    H144728   1.931   1.729  16.539  0.4763 -0.4881  1.8659
 7771TIP3    H244729   1.826   1.806  16.615  0.3779 -1.8237  3.1076
 7772TIP3   OH244730   5.924   1.960   3.379 -0.0698 -0.6844 -0.9249
 7772TIP3    H144731   6.001   1.964   3.436 -1.7312  1.6430  1.2288
 7772TIP3    H244732   5.883   1.876   3.400 -0.4775  0.0083  1.0871
 7773TIP3   OH244733   5.850   0.182   4.197 -0.1448  0.1294 -0.1263
 7773TIP3    H144734   5.826   0.121   4.127  1.0605 -0.2148 -0.2596
 7773TIP3    H244735   5.845   0.268   4.156 -0.3978  0.0010 -0.3667
 7774TIP3   OH244736   2.958   6.703  14.311  0.2227  0.1433  0.2491
 7774TIP3    H144737   2.916   6.675  14.230  0.4163  1.1646 -0.2179
 7774TIP3    H244738   2.890   6.752  14.358 -0.1440 -1.1462  1.0990
 7775TIP3   OH244739   3.938   0.197  15.648 -0.0310  0.1021 -0.3178
 7775TIP3    H144740   3.962   0.281  15.608 -0.5477  0.5281  0.2722
 7775TIP3    H244741   3.975   0.201  15.736  1.5530 -1.0477 -0.9091
 7776TIP3   OH244742   4.997   1.810  16.894 -0.5026 -0.0429 -0.2039
 7776TIP3    H144743   4.981   1.717  16.876 -0.8800  0.1213 -0.7326
 7776TIP3    H244744   4.912   1.852  16.882 -0.3102  0.3878 -0.0671
 7777TIP3   OH244745   0.631   1.364   0.250 -0.1630  0.8107 -0.2583
 7777TIP3    H144746   0.617   1.389   0.341  0.3017  2.0349 -0.5107
 7777TIP3    H244747   0.553   1.315   0.226  0.5273 -1.1597  1.3513
 7778TIP3   OH244748   0.321   2.622   4.136 -0.7014  0.6954  0.1590
 7778TIP3    H144749   0.324   2.544   4.081 -0.9587  0.2669  0.7424
 7778TIP3    H244750   0.401   2.618   4.189 -0.7113  0.8252  0.1847
 7779TIP3   OH244751   2.032   6.080  15.238  0.1645 -0.4073  0.1168
 7779TIP3    H144752   2.107   6.027  15.211  0.3332 -0.0106 -0.2023
 7779TIP3    H244753   1.955   6.030  15.209  0.3434  0.0232 -1.1312
 7780TIP3   OH244754   5.680   4.978   3.774  0.0276  0.2353  1.0866
 7780TIP3    H144755   5.627   5.007   3.700 -1.1023 -2.7032  0.6657
 7780TIP3    H244756   5.770   4.976   3.739 -0.6700 -2.5018 -0.7202
 7781TIP3   OH244757   5.889   2.090  11.751  0.2508 -0.6222 -0.2314
 7781TIP3    H144758   5.872   2.063  11.841 -1.8317  0.2529 -0.3337
 7781TIP3    H244759   5.803   2.107  11.714  1.1359 -0.0672 -2.1191
 7782TIP3   OH244760   1.759   1.951   4.236 -0.0176  0.0735  0.1125
 7782TIP3    H144761   1.687   1.980   4.180 -0.2926 -0.7594  0.0317
 7782TIP3    H244762   1.830   2.012   4.216  0.1821 -0.7391 -1.8065
 7783TIP3   OH244763   3.864   0.558  15.980 -0.1868  0.3358  0.4634
 7783TIP3    H144764   3.820   0.629  15.934 -1.2837 -0.3329  0.4548
 7783TIP3    H244765   3.813   0.546  16.060 -1.1281 -1.6321 -0.3833
 7784TIP3   OH244766   5.647   4.217   2.567 -0.4409  0.1317  0.4272
 7784TIP3    H144767   5.593   4.141   2.548  0.4659 -0.7237  1.1822
 7784TIP3    H244768   5.734   4.180   2.583  0.0705  1.3608  0.5006
 7785TIP3   OH244769   5.403   0.641  12.856 -0.0987  0.0023  0.7322
 7785TIP3    H144770   5.449   0.643  12.772  0.3939  1.1431  1.0191
 7785TIP3    H244771   5.336   0.573  12.845 -0.2912  0.4113 -0.7011
 7786TIP3   OH244772   1.990   1.488   4.801 -0.7491 -0.0604  0.5377
 7786TIP3    H144773   1.942   1.556   4.754 -1.6451 -0.0078  1.5067
 7786TIP3    H244774   1.929   1.458   4.868 -0.0818 -1.2918  0.6029
 7787TIP3   OH244775   2.982   4.204   5.336  0.1642 -0.5620 -0.0520
 7787TIP3    H144776   2.896   4.246   5.326  0.3863 -0.2077 -0.4427
 7787TIP3    H244777   2.981   4.171   5.426  0.5022  1.4443  0.7097
 7788TIP3   OH244778   2.446   4.432  11.157  0.1124 -0.2915 -0.3349
 7788TIP3    H144779   2.386   4.401  11.224  1.4372 -1.2326  0.4645
 7788TIP3    H244780   2.416   4.520  11.136 -1.1094 -0.4824  0.5422
 7789TIP3   OH244781   0.454   3.014  14.612 -0.2018 -0.6681 -0.0754
 7789TIP3    H144782   0.492   3.089  14.568 -1.2532  0.1408  0.3591
 7789TIP3    H244783   0.361   3.037  14.622  0.1117 -0.4969  3.1491
 7790TIP3   OH244784   6.145   2.563  10.641 -0.0201  0.0761  0.0214
 7790TIP3    H144785   6.060   2.575  10.599 -0.8986 -1.0618  1.4041
 7790TIP3    H244786   6.205   2.620  10.592 -0.8614 -1.5862 -3.0468
 7791TIP3   OH244787   6.435   0.181   1.878  0.0450 -0.2287 -0.2106
 7791TIP3    H144788   6.416   0.199   1.786 -0.0096  1.1591  0.0618
 7791TIP3    H244789   6.462   0.089   1.880  1.6873  0.1826 -1.8884
 7792TIP3   OH244790   5.789   3.056  14.903  0.7543 -0.1998  0.0388
 7792TIP3    H144791   5.764   3.041  14.812 -0.1577  1.8767 -0.0805
 7792TIP3    H244792   5.734   2.996  14.953 -1.5090  1.3108 -0.5416
 7793TIP3   OH244793   4.349   1.560   1.602 -0.0833  0.4678  0.1038
 7793TIP3    H144794   4.361   1.655   1.606 -0.1679  0.4265  2.6809
 7793TIP3    H244795   4.265   1.545   1.645  0.3376 -0.8306  0.4981
 7794TIP3   OH244796   5.886   3.090   2.687  0.1869 -0.6623  0.5122
 7794TIP3    H144797   5.855   3.148   2.618  1.2357  0.0048  0.5905
 7794TIP3    H244798   5.827   3.107   2.761  0.4340  0.2501  0.5058
 7795TIP3   OH244799   0.588   0.825  11.848 -0.5401  0.1224 -0.3950
 7795TIP3    H144800   0.681   0.838  11.831 -0.8754  0.7953 -1.8711
 7795TIP3    H244801   0.569   0.739  11.810 -0.8062  0.6201 -1.4241
 7796TIP3   OH244802   5.777   2.421   2.781 -0.0452 -0.2669  0.5038
 7796TIP3    H144803   5.872   2.425   2.768 -0.0175  0.9004  1.0147
 7796TIP3    H244804   5.748   2.512   2.771 -0.8970 -0.3725  1.9863
 7797TIP3   OH244805   5.257   4.464  15.099 -0.6771 -0.1645  0.0664
 7797TIP3    H144806   5.314   4.533  15.067 -0.6432  0.0017  0.4874
 7797TIP3    H244807   5.316   4.400  15.139 -0.9265  0.9127  2.1935
 7798TIP3   OH244808   1.066   4.019   3.188 -0.4294 -0.5543 -0.1769
 7798TIP3    H144809   1.040   3.955   3.254 -0.7325  0.5065  0.7326
 7798TIP3    H244810   1.152   4.051   3.217  0.3215 -1.4753 -1.3127
 7799TIP3   OH244811   4.324   4.935  15.079 -0.4186  0.5322 -0.0758
 7799TIP3    H144812   4.289   5.004  15.135  1.6652 -1.3586  3.7870
 7799TIP3    H244813   4.377   4.982  15.014 -2.2825  2.7483 -0.0796
 7800TIP3   OH244814   6.044   2.155  13.115  0.0803  0.4119 -0.5966
 7800TIP3    H144815   6.029   2.197  13.031  1.6404  1.4179 -0.3943
 7800TIP3    H244816   6.129   2.189  13.144 -0.3398 -0.0877  1.2766
 7801TIP3   OH244817   4.211   5.174   5.879  0.6602  0.3795  0.2009
 7801TIP3    H144818   4.275   5.149   5.945  1.9376  1.8758 -0.4532
 7801TIP3    H244819   4.129   5.184   5.928  1.2103 -0.2395  1.2583
 7802TIP3   OH244820   0.992   1.457  11.468 -0.1317  0.0652  0.7399
 7802TIP3    H144821   1.078   1.414  11.465 -0.8036 -1.3195  0.8336
 7802TIP3    H244822   0.954   1.428  11.552 -1.1466 -0.2503  0.1784
 7803TIP3   OH244823   0.330   4.496  11.146  0.6425 -0.6910  0.7781
 7803TIP3    H144824   0.394   4.460  11.207  1.2656 -1.0825 -0.0848
 7803TIP3    H244825   0.352   4.455  11.062  0.6585  0.8536  0.0092
 7804TIP3   OH244826   3.018   4.695  10.847  0.0132  0.1320  0.4903
 7804TIP3    H144827   3.005   4.611  10.890 -0.7029  0.0247  0.0669
 7804TIP3    H244828   3.107   4.691  10.811 -0.1140 -0.5369  0.2557
 7805TIP3   OH244829   6.439   1.278  15.096 -0.6182  0.4685  0.8484
 7805TIP3    H144830   6.441   1.184  15.116 -0.3171  0.1022 -0.8273
 7805TIP3    H244831   6.370   1.286  15.030 -1.0006  1.5141  1.3681
 7806TIP3   OH244832   3.901   4.734   3.081  0.8517  0.6126  0.1077
 7806TIP3    H144833   3.833   4.791   3.043  0.5993  0.8073  0.8498
 7806TIP3    H244834   3.962   4.720   3.008  1.1538  2.2002  0.0210
 7807TIP3   OH244835   5.001   1.457   4.459  0.1208 -0.7708  0.3974
 7807TIP3    H144836   5.077   1.461   4.517  0.7040 -1.3752 -0.3184
 7807TIP3    H244837   5.029   1.502   4.379 -0.2666 -1.0162  0.1219
 7808TIP3   OH244838   6.431   5.190   0.142  0.3367  0.0965 -0.4204
 7808TIP3    H144839   6.395   5.102   0.134 -0.8624  0.6729 -1.5521
 7808TIP3    H244840   6.522   5.177   0.167 -0.5847 -1.4022  2.3259
 7809TIP3   OH244841   1.581   3.032  11.575  0.6584 -0.1192 -0.1222
 7809TIP3    H144842   1.586   2.937  11.562 -1.4087 -0.4477  1.1692
 7809TIP3    H244843   1.617   3.046  11.663 -2.6885 -0.2401  1.3441
 7810TIP3   OH244844   0.506   5.222  10.736  0.5320  0.4875  0.1454
 7810TIP3    H144845   0.532   5.312  10.718  1.9573  0.6285  2.6302
 7810TIP3    H244846   0.464   5.226  10.822  2.4619 -1.5187  1.2318
 7811TIP3   OH244847   1.568   6.113  13.136  0.3603  0.2307 -0.8659
 7811TIP3    H144848   1.574   6.060  13.057 -0.3951 -2.0901  0.6011
 7811TIP3    H244849   1.658   6.133  13.159  0.7634 -2.2033 -0.2551
 7812TIP3   OH244850   1.628   2.904   1.587 -0.1358 -0.3698 -0.4416
 7812TIP3    H144851   1.644   2.815   1.618 -0.7337 -0.5773 -0.7333
 7812TIP3    H244852   1.659   2.960   1.659 -0.0912 -0.8135 -0.1125
 7813TIP3   OH244853   6.079   2.213   5.014  0.1521 -0.2264 -0.0065
 7813TIP3    H144854   6.024   2.211   4.936 -1.2756 -1.9460  1.0143
 7813TIP3    H244855   6.042   2.284   5.067  2.0935  2.0007 -1.5337
 7814TIP3   OH244856   6.248   1.639  16.930  0.2034  0.1789 -0.3461
 7814TIP3    H144857   6.263   1.734  16.930  1.0797  0.0525 -1.4856
 7814TIP3    H244858   6.191   1.624  16.854 -0.2459 -0.1577  0.0588
 7815TIP3   OH244859   5.329   1.479  13.391 -0.3802  0.7362  0.2353
 7815TIP3    H144860   5.340   1.574  13.394 -0.0630  0.6632  3.1680
 7815TIP3    H244861   5.252   1.462  13.446  0.1035 -0.7596  0.4768
 7816TIP3   OH244862   6.335   1.922   1.058  0.2406  0.5417  0.0757
 7816TIP3    H144863   6.355   1.901   0.966 -1.9957  1.4299 -0.6466
 7816TIP3    H244864   6.414   1.965   1.090  2.0838 -2.1279 -0.6219
 7817TIP3   OH244865   0.149   0.387   6.431  0.1082  0.1526  0.0300
 7817TIP3    H144866   0.155   0.304   6.478  1.1184 -0.5221 -1.2693
 7817TIP3    H244867   0.066   0.383   6.385 -1.0961  1.0029  2.0809
 7818TIP3   OH244868   2.480   0.803  16.790  0.6081 -0.8483 -0.3588
 7818TIP3    H144869   2.498   0.720  16.746  0.3543 -0.4909 -1.1427
 7818TIP3    H244870   2.407   0.840  16.741  0.5289 -0.2963  0.1750
 7819TIP3   OH244871   3.570   4.334  16.384  0.0033 -0.4582  0.1681
 7819TIP3    H144872   3.614   4.304  16.304 -0.2476 -2.4522  0.7520
 7819TIP3    H244873   3.498   4.273  16.397 -2.3418  2.1587 -0.1756
 7820TIP3   OH244874   3.408   3.252  13.025 -0.1925  0.3093  0.2234
 7820TIP3    H144875   3.486   3.200  13.047 -0.2658 -0.0684 -0.3957
 7820TIP3    H244876   3.377   3.214  12.943 -2.0417 -0.6943  1.3547
 7821TIP3   OH244877   5.692   2.399  14.810  0.1843  0.0970 -0.1399
 7821TIP3    H144878   5.766   2.457  14.825 -0.1658  0.5889 -0.2985
 7821TIP3    H244879   5.714   2.351  14.730  0.5127 -0.0519  0.0423
 7822TIP3   OH244880   6.282   4.234   0.726 -0.6924 -0.3415 -0.4499
 7822TIP3    H144881   6.307   4.318   0.764  0.2867 -0.1198 -1.5568
 7822TIP3    H244882   6.186   4.238   0.719 -0.7651  0.1348  0.7416
 7823TIP3   OH244883   6.402   3.044   0.104  0.1988  0.3379 -0.9011
 7823TIP3    H144884   6.494   3.069   0.114 -0.6338  3.1751  0.3764
 7823TIP3    H244885   6.373   3.024   0.194 -0.0257 -2.2048 -1.5064
 7824TIP3   OH244886   5.023   4.440  14.323 -0.4534 -0.2191 -0.1596
 7824TIP3    H144887   5.092   4.503  14.343 -1.8901  0.8495  1.5820
 7824TIP3    H244888   4.950   4.493  14.292 -0.8342 -1.2573 -1.0697
 7825TIP3   OH244889   2.793   3.672   3.041 -0.7989  0.3368  0.1579
 7825TIP3    H144890   2.769   3.696   2.952 -3.2170 -2.8532 -0.1740
 7825TIP3    H244891   2.740   3.729   3.096 -1.4062  0.4055 -0.4902
 7826TIP3   OH244892   1.370   6.274  17.222  0.1804  0.3724  0.0531
 7826TIP3    H144893   1.358   6.289  17.316  0.4333 -2.1096  0.5292
 7826TIP3    H244894   1.284   6.292  17.185 -1.1007 -2.5670  1.3824
 7827TIP3   OH244895   6.157   4.644  16.713  0.1591  0.4124 -0.0201
 7827TIP3    H144896   6.103   4.568  16.691 -1.2269  1.7881 -1.4885
 7827TIP3    H244897   6.214   4.613  16.784 -0.5451 -1.9101 -0.4207
 7828TIP3   OH244898   5.204   6.739   4.838 -0.4367 -0.1264  0.3021
 7828TIP3    H144899   5.189   6.670   4.773 -0.0482 -0.2303  0.3197
 7828TIP3    H244900   5.255   6.696   4.906  0.3075  0.3287  0.0380
 7829TIP3   OH244901   2.184   5.069   2.534 -0.0116  0.0799  0.0049
 7829TIP3    H144902   2.203   4.978   2.510 -0.6836 -0.1676  0.3819
 7829TIP3    H244903   2.144   5.063   2.621  2.3341  0.9599  1.1765
 7830TIP3   OH244904   3.655   2.720   2.956 -0.1321 -0.1026  0.1312
 7830TIP3    H144905   3.646   2.662   2.880 -0.9206 -0.1496  0.2646
 7830TIP3    H244906   3.706   2.794   2.923 -0.7596  0.0367 -0.5312
 7831TIP3   OH244907   0.621   1.137  16.587  0.3047 -0.0418  0.0938
 7831TIP3    H144908   0.592   1.075  16.521  1.5196 -1.5184  0.9256
 7831TIP3    H244909   0.647   1.083  16.661  1.1945  1.4731  0.9108
 7832TIP3   OH244910   3.194   3.179   1.344  0.0734 -0.0207 -0.1158
 7832TIP3    H144911   3.272   3.140   1.383 -0.6161 -0.6093  0.6984
 7832TIP3    H244912   3.121   3.133   1.385 -0.7838  2.4207  1.2011
 7833TIP3   OH244913   6.641   3.429  13.361 -0.3088 -0.1469  0.6356
 7833TIP3    H144914   6.690   3.488  13.418 -1.3065  0.2783  1.0489
 7833TIP3    H244915   6.682   3.440  13.275 -0.0892  0.6825  0.8456
 7834TIP3   OH244916   1.686   6.525  10.637  0.3715  0.1710 -0.1931
 7834TIP3    H144917   1.781   6.531  10.649  0.4358  1.2137 -1.0839
 7834TIP3    H244918   1.671   6.434  10.613  1.3975  0.4163 -1.8864
 7835TIP3   OH244919   2.407   1.219  15.077 -0.0195 -0.4899  0.3295
 7835TIP3    H144920   2.436   1.310  15.069 -2.8447  0.3052 -1.3855
 7835TIP3    H244921   2.483   1.173  15.112  2.2202  2.0978 -0.9631
 7836TIP3   OH244922   4.931   3.761   1.663 -0.0363  0.3953 -0.5833
 7836TIP3    H144923   5.017   3.737   1.696  0.5640  0.0218 -2.3441
 7836TIP3    H244924   4.945   3.846   1.620 -0.8198  0.9292  0.1934
 7837TIP3   OH244925   2.671   2.428  13.031 -0.0295 -0.2813 -0.2547
 7837TIP3    H144926   2.760   2.462  13.043 -1.3060  3.9533 -2.0762
 7837TIP3    H244927   2.680   2.361  12.964  2.1599 -1.7204  1.4079
 7838TIP3   OH244928   5.242   4.366  13.656  0.4740 -0.0518 -0.7860
 7838TIP3    H144929   5.223   4.273  13.661 -0.4348  0.1231 -0.7890
 7838TIP3    H244930   5.331   4.375  13.688  0.6779 -0.9582 -1.0903
 7839TIP3   OH244931   0.514   1.171  14.620  0.4300 -0.2745 -0.0947
 7839TIP3    H144932   0.478   1.086  14.592  1.1861 -0.0497 -1.8342
 7839TIP3    H244933   0.441   1.214  14.665 -1.4341 -0.0190 -3.1746
 7840TIP3   OH244934   4.378   5.371   0.031  0.3921 -0.0336 -0.3010
 7840TIP3    H144935   4.341   5.432   0.095  1.1878 -0.1138  0.2346
 7840TIP3    H244936   4.301   5.334  -0.013 -0.1718 -0.0915  0.7107
 7841TIP3   OH244937   0.725   5.637  11.140 -0.3842  0.2921 -0.3243
 7841TIP3    H144938   0.808   5.631  11.188 -0.0066 -1.8505 -1.1778
 7841TIP3    H244939   0.744   5.695  11.066  1.1925 -2.3472 -2.0770
 7842TIP3   OH244940   3.100   3.699  15.666  0.3510 -0.3759  0.3817
 7842TIP3    H144941   3.100   3.786  15.627  1.8833 -0.4485  0.1720
 7842TIP3    H244942   3.103   3.639  15.592 -0.4864 -0.6026  0.5301
 7843TIP3   OH244943   5.832   2.908   5.834 -0.1081 -0.2782 -0.0325
 7843TIP3    H144944   5.798   2.926   5.921 -0.0926  0.3254 -0.1444
 7843TIP3    H244945   5.905   2.847   5.848 -0.6574 -0.8578  0.2874
 7844TIP3   OH244946   4.591   1.554   0.571 -0.7671 -0.0536  0.7418
 7844TIP3    H144947   4.499   1.576   0.585 -0.4976  0.2167  2.2705
 7844TIP3    H244948   4.590   1.469   0.527 -1.7438 -0.2790  1.1922
 7845TIP3   OH244949   2.993   2.159  12.338  0.0609  0.2062 -0.0226
 7845TIP3    H144950   2.921   2.179  12.279 -0.0338  1.2684  0.4473
 7845TIP3    H244951   2.980   2.067  12.361 -0.0258 -0.1428 -1.4688
 7846TIP3   OH244952   5.184   5.899   4.535  0.0816  0.2834  0.0792
 7846TIP3    H144953   5.267   5.924   4.494  0.3268 -0.1651  0.3051
 7846TIP3    H244954   5.200   5.910   4.629  0.0130 -0.2041  0.1455
 7847TIP3   OH244955   4.894   3.913   3.226  0.5026  0.6207 -0.3391
 7847TIP3    H144956   4.805   3.913   3.260  0.5959 -3.1781  0.0434
 7847TIP3    H244957   4.885   3.921   3.131 -0.2462  0.3942 -0.2844
 7848TIP3   OH244958   6.219   5.720  16.516  0.0127 -0.2132 -0.0049
 7848TIP3    H144959   6.272   5.800  16.510 -0.2912  0.1116  1.3749
 7848TIP3    H244960   6.246   5.667  16.441 -0.2155  1.4434 -1.2742
 7849TIP3   OH244961   1.085   3.175  14.063  0.7612  0.0341  0.0740
 7849TIP3    H144962   1.158   3.226  14.100  0.2923  0.4222  0.4842
 7849TIP3    H244963   1.015   3.186  14.127  0.1952  0.0456 -0.5494
 7850TIP3   OH244964   2.774   3.281   5.707  0.1785  0.1457 -0.3707
 7850TIP3    H144965   2.757   3.230   5.628 -1.6470 -2.7747  1.7809
 7850TIP3    H244966   2.855   3.244   5.742  1.0434  1.5040 -0.8966
 7851TIP3   OH244967   2.669   5.605   2.715  0.5720 -0.1494 -0.6134
 7851TIP3    H144968   2.577   5.578   2.719  0.5751 -0.2391 -1.1882
 7851TIP3    H244969   2.674   5.662   2.638  0.6379  1.2106  0.3769
 7852TIP3   OH244970   5.027   4.200  13.388  0.8658 -0.6544 -0.5537
 7852TIP3    H144971   5.038   4.105  13.382 -0.0863 -0.7957 -0.0251
 7852TIP3    H244972   5.111   4.235  13.358  1.4902 -1.6735 -0.0326
 7853TIP3   OH244973   1.188   4.006   0.941 -0.0246 -0.0300 -0.8856
 7853TIP3    H144974   1.231   3.921   0.939 -0.3674 -0.1935 -1.3721
 7853TIP3    H244975   1.233   4.054   1.010 -1.1340 -1.3142  0.7815
 7854TIP3   OH244976   6.486   2.715   0.194  0.4241 -0.3550 -0.1692
 7854TIP3    H144977   6.528   2.716   0.281  1.0829 -0.5543 -0.4842
 7854TIP3    H244978   6.545   2.664   0.139 -0.2211 -0.6105 -0.6290
 7855TIP3   OH244979   4.329   1.355  16.275  0.4022 -0.0095  0.5100
 7855TIP3    H144980   4.321   1.265  16.307  0.3864  0.3244  1.4584
 7855TIP3    H244981   4.380   1.347  16.194 -1.1927 -1.0722 -0.4338
 7856TIP3   OH244982   0.180   5.832   5.123  0.2946 -0.4117  0.5269
 7856TIP3    H144983   0.238   5.865   5.192 -0.3862 -0.0805  0.9477
 7856TIP3    H244984   0.229   5.844   5.042  1.0709 -0.7233  0.9407
 7857TIP3   OH244985   0.793   2.649  13.372  0.1287  0.3944  0.4795
 7857TIP3    H144986   0.761   2.688  13.291 -1.0132  0.1911  0.8194
 7857TIP3    H244987   0.848   2.717  13.412 -1.9761  1.7338  1.1523
 7858TIP3   OH244988   6.541   0.524   3.077 -0.1180 -0.0663 -0.3623
 7858TIP3    H144989   6.509   0.613   3.089 -1.6219 -0.8559  1.9770
 7858TIP3    H244990   6.635   0.534   3.068 -0.1333  1.6964  1.0175
 7859TIP3   OH244991   4.237   6.240   5.060  0.0894 -0.2610 -0.2062
 7859TIP3    H144992   4.322   6.284   5.070 -0.3258  0.0158  2.3609
 7859TIP3    H244993   4.181   6.306   5.019  0.9591 -0.2889 -1.4875
 7860TIP3   OH244994   4.331   3.370  11.638 -0.3174  0.3382  0.5885
 7860TIP3    H144995   4.370   3.299  11.587 -1.2363 -0.1131  0.5055
 7860TIP3    H244996   4.348   3.448  11.585 -2.6747 -0.3306 -1.2496
 7861TIP3   OH244997   2.646   4.231   4.510  0.2420 -0.0722  0.8856
 7861TIP3    H144998   2.608   4.279   4.436  0.3762  1.6008  1.8792
 7861TIP3    H244999   2.627   4.139   4.491  0.5173  0.3120 -1.3561
 7862TIP3   OH245000   0.088   2.261   0.847  0.1671  0.3774  0.3191
 7862TIP3    H145001   0.010   2.213   0.820  1.9303 -1.7241 -1.1973
 7862TIP3    H245002   0.081   2.345   0.802 -1.6024  0.5323  0.8370
 7863TIP3   OH245003   2.838   3.109  13.850 -0.1041 -0.3170 -0.2029
 7863TIP3    H145004   2.787   3.030  13.866 -0.0650 -1.1624 -3.7968
 7863TIP3    H245005   2.928   3.085  13.872 -0.1775 -1.1283 -0.7653
 7864TIP3   OH245006   2.298   4.790   3.242  0.3727  0.6058  0.0324
 7864TIP3    H145007   2.325   4.881   3.255  0.0843  0.4866  1.5771
 7864TIP3    H245008   2.279   4.758   3.330 -1.0572 -0.4809 -0.6473
 7865TIP3   OH245009   0.231   5.354  12.028  0.2787  0.5918  0.7116
 7865TIP3    H145010   0.233   5.373  11.934  0.2744 -0.0041  0.5908
 7865TIP3    H245011   0.233   5.258  12.034  0.4777  0.6284  1.3235
 7866TIP3   OH245012   0.712   3.075  13.211  0.1707 -0.4887 -0.1612
 7866TIP3    H145013   0.787   3.093  13.154 -0.0513  1.1684  0.0548
 7866TIP3    H245014   0.637   3.109  13.164 -0.2332 -0.6129  0.3830
 7867TIP3   OH245015   2.604   3.318  15.088  0.0168  0.2635 -0.3335
 7867TIP3    H145016   2.551   3.295  15.164  0.9014  1.6675  0.7365
 7867TIP3    H245017   2.553   3.287  15.013 -0.6841 -1.4813  0.8305
 7868TIP3   OH245018   6.445   0.762   0.435 -0.0565 -0.3480  0.1772
 7868TIP3    H145019   6.364   0.727   0.398  0.3428  0.0106 -1.0457
 7868TIP3    H245020   6.513   0.702   0.406  0.4002  0.5093 -0.5627
 7869TIP3   OH245021   1.854   2.546   5.754 -0.1475 -0.1857  0.2048
 7869TIP3    H145022   1.789   2.591   5.807  0.7341  2.3546 -0.7601
 7869TIP3    H245023   1.811   2.529   5.670 -0.7398 -1.9307  0.8421
 7870TIP3   OH245024   5.480   4.126  15.695 -0.7560  0.2801  0.0487
 7870TIP3    H145025   5.462   4.126  15.789 -0.3887 -0.0923  0.1244
 7870TIP3    H245026   5.419   4.060  15.659  0.6869 -1.2507  0.3563
 7871TIP3   OH245027   4.824   1.221  15.402 -0.7214  0.0410  0.0894
 7871TIP3    H145028   4.749   1.260  15.358  0.1676  0.1367 -1.3647
 7871TIP3    H245029   4.858   1.292  15.458 -0.4561  0.6625 -0.8479
 7872TIP3   OH245030   3.577   3.851  15.804 -0.2038  0.1604  0.3166
 7872TIP3    H145031   3.557   3.939  15.773 -0.3392  0.2784  0.7392
 7872TIP3    H245032   3.634   3.814  15.737 -0.7954  0.2847 -0.2506
 7873TIP3   OH245033   1.356   3.844  13.601 -0.2187  0.7714 -0.8177
 7873TIP3    H145034   1.318   3.757  13.589  1.4100 -0.0325 -0.3129
 7873TIP3    H245035   1.450   3.830  13.600  0.0724  2.4226  0.1188
 7874TIP3   OH245036   4.452   2.206   3.553 -0.4468  0.3724  0.0131
 7874TIP3    H145037   4.548   2.211   3.554 -0.2287 -2.2699 -1.7220
 7874TIP3    H245038   4.432   2.126   3.602 -1.7874  0.9178  0.3764
 7875TIP3   OH245039   2.028   0.129   3.352  0.2347  0.7499  0.3961
 7875TIP3    H145040   2.120   0.105   3.340 -0.0063  0.4703 -0.9324
 7875TIP3    H245041   2.011   0.192   3.283 -1.1192 -0.7127 -0.6453
 7876TIP3   OH245042   0.622   1.036   4.189 -0.0094 -0.6186  0.0784
 7876TIP3    H145043   0.668   0.982   4.124 -1.2118 -1.2533 -0.2744
 7876TIP3    H245044   0.691   1.087   4.231  1.0157 -1.5415 -0.4349
 7877TIP3   OH245045   3.148   3.977  15.906 -0.5858 -0.4505  0.1631
 7877TIP3    H145046   3.109   4.011  15.987  0.6415  0.4404  0.4003
 7877TIP3    H245047   3.212   3.913  15.935  1.2355  1.2636  0.0229
 7878TIP3   OH245048   0.475   1.086   0.264  0.4716  0.8262  0.4605
 7878TIP3    H145049   0.451   1.058   0.176 -1.1616  0.8329  0.8780
 7878TIP3    H245050   0.557   1.040   0.282 -0.1904 -0.7300 -0.3198
 7879TIP3   OH245051   3.417   2.151  13.050  0.1664 -0.2836 -0.4818
 7879TIP3    H145052   3.430   2.210  13.124 -0.3015 -2.2260  1.1796
 7879TIP3    H245053   3.502   2.151  13.005  1.0080 -0.4267  1.0594
 7880TIP3   OH245054   4.575   4.123  12.298  0.2030  0.8488  0.0533
 7880TIP3    H145055   4.665   4.134  12.266  0.3055  1.8669  0.6752
 7880TIP3    H245056   4.522   4.122  12.218  0.8519 -0.6946 -0.3686
 7881TIP3   OH245057   2.318   2.993  10.536 -0.3509 -0.4712  0.9330
 7881TIP3    H145058   2.334   3.087  10.545  1.5411 -0.6880  0.1034
 7881TIP3    H245059   2.354   2.955  10.616 -1.4606 -0.4533  1.4423
 7882TIP3   OH245060   2.064   3.554  12.861 -0.1048  0.6966 -0.2212
 7882TIP3    H145061   1.975   3.520  12.873  0.5599 -1.3940 -0.9825
 7882TIP3    H245062   2.117   3.501  12.920  0.9885  0.3064 -1.5439
 7883TIP3   OH245063   1.372   5.425  16.030  0.6240 -0.3592  0.5110
 7883TIP3    H145064   1.288   5.441  16.073 -0.1172 -1.0774 -0.6314
 7883TIP3    H245065   1.420   5.507  16.039  0.0774 -0.1725  1.7936
 7884TIP3   OH245066   1.856   5.950   1.321 -0.2312  0.2874  0.0875
 7884TIP3    H145067   1.941   5.919   1.290 -0.9552 -0.1409 -1.5296
 7884TIP3    H245068   1.858   6.045   1.308 -0.2606  0.1929 -0.5941
 7885TIP3   OH245069   6.040   4.477  12.178  0.0344 -0.1288  0.0183
 7885TIP3    H145070   6.108   4.504  12.117  0.8105 -1.0155  0.4760
 7885TIP3    H245071   5.975   4.431  12.125  0.6782 -0.8479 -0.1485
 7886TIP3   OH245072   6.284   4.434   4.639  0.0990 -0.1549  0.5361
 7886TIP3    H145073   6.332   4.395   4.713  0.2186 -0.6724  0.1881
 7886TIP3    H245074   6.192   4.432   4.667  0.0940 -0.7895  0.4784
 7887TIP3   OH245075   0.372   3.989   1.001  0.1160 -0.2068 -0.2240
 7887TIP3    H145076   0.433   3.988   0.927 -1.5272 -1.6667 -1.6071
 7887TIP3    H245077   0.428   3.991   1.079  1.8833  0.2993 -1.4885
 7888TIP3   OH245078   0.380   1.106   1.960 -0.2934  0.2379  0.1959
 7888TIP3    H145079   0.312   1.172   1.974 -1.9797 -1.2922 -0.4075
 7888TIP3    H245080   0.363   1.074   1.871 -0.2312 -1.7846  0.8887
 7889TIP3   OH245081   6.373   2.323  14.227 -0.5895 -0.2456 -0.1926
 7889TIP3    H145082   6.441   2.328  14.293 -0.5360 -0.4063 -0.2350
 7889TIP3    H245083   6.291   2.335  14.275 -0.5894 -0.9325 -0.0147
 7890TIP3   OH245084   6.573   6.099   1.565  0.2449 -0.0990 -0.1088
 7890TIP3    H145085   6.643   6.124   1.626 -0.8916  2.6506  0.1177
 7890TIP3    H245086   6.616   6.041   1.502  2.1294 -0.5194  1.5111
 7891TIP3   OH245087   0.641   2.538  13.593  0.2580 -0.1497  0.0925
 7891TIP3    H145088   0.676   2.450  13.576  1.9986  0.5845 -0.2634
 7891TIP3    H245089   0.668   2.590  13.518  2.0632  1.4669  1.7973
 7892TIP3   OH245090   3.460   6.578  16.018  0.1790 -0.2911  0.0520
 7892TIP3    H145091   3.554   6.591  16.015  0.2072  0.2984  2.4505
 7892TIP3    H245092   3.449   6.483  16.029  0.4133 -0.5853 -2.0599
 7893TIP3   OH245093   0.951   4.373  13.130 -0.4045  0.5317  0.5562
 7893TIP3    H145094   0.900   4.297  13.159  2.3352 -1.2527  0.8709
 7893TIP3    H245095   1.005   4.396  13.205 -0.0438  1.8012 -0.0834
 7894TIP3   OH245096   6.615   2.637   0.721  0.5583 -0.3796 -0.2044
 7894TIP3    H145097   6.524   2.645   0.749  1.2061  0.7436  1.6268
 7894TIP3    H245098   6.651   2.725   0.729  0.9510 -0.1039 -4.0696
 7895TIP3   OH245099   1.041   0.622  16.834 -0.0490 -0.3736 -0.3986
 7895TIP3    H145100   1.052   0.527  16.837  2.6624 -0.0740  2.4387
 7895TIP3    H245101   1.104   0.652  16.768  1.1002 -0.3456  0.7009
 7896TIP3   OH245102   5.035   2.859   3.116 -0.1564 -0.3429  0.0882
 7896TIP3    H145103   4.986   2.784   3.150  0.6745 -1.0865 -0.3326
 7896TIP3    H245104   4.997   2.935   3.162 -2.5867 -0.7302 -1.1700
 7897TIP3   OH245105   5.847   4.331  17.154 -0.4574  0.4295 -0.2389
 7897TIP3    H145106   5.880   4.370  17.072 -0.5120  0.9139 -0.0275
 7897TIP3    H245107   5.753   4.347  17.152 -0.5187  0.0822 -0.2704
 7898TIP3   OH245108   0.255   5.855  13.357  0.1775  0.0295  0.1070
 7898TIP3    H145109   0.328   5.861  13.419  0.3311  0.5752 -0.1230
 7898TIP3    H245110   0.295   5.826  13.275 -0.0556 -0.8802  0.3122
 7899TIP3   OH245111   4.940   3.119   1.886 -0.1485 -0.4551 -0.1627
 7899TIP3    H145112   5.015   3.161   1.844  1.5561 -1.2158  2.0071
 7899TIP3    H245113   4.924   3.171   1.965 -0.3723 -1.7041  0.6261
 7900TIP3   OH245114   3.057   3.347  16.329  0.7309  0.0360 -0.3916
 7900TIP3    H145115   3.115   3.423  16.333 -1.2107  1.4805  1.7044
 7900TIP3    H245116   3.063   3.308  16.416  0.9774 -1.6597 -1.1573
 7901TIP3   OH245117   6.147   0.193   6.289 -0.0700 -0.5535  0.9309
 7901TIP3    H145118   6.078   0.154   6.343  0.3778 -1.9113  0.5338
 7901TIP3    H245119   6.102   0.220   6.209  0.0489 -2.5729  0.1447
 7902TIP3   OH245120   3.874   5.418  17.058 -0.1669  0.4303  0.1929
 7902TIP3    H145121   3.838   5.367  17.130 -0.4082 -0.3636 -0.4817
 7902TIP3    H245122   3.810   5.408  16.988  0.9623 -0.3419 -0.7554
 7903TIP3   OH245123   5.401   2.168   4.794 -0.0760  0.0934  0.3774
 7903TIP3    H145124   5.327   2.229   4.801 -1.0466 -0.8426 -1.4208
 7903TIP3    H245125   5.374   2.106   4.727  2.3509 -0.2969 -0.2615
 7904TIP3   OH245126   5.323   2.022  14.132 -0.1929 -0.3685 -0.0749
 7904TIP3    H145127   5.277   1.958  14.078  1.2503 -1.5347  0.0702
 7904TIP3    H245128   5.410   2.029  14.093 -0.3544  1.6137 -0.1705
 7905TIP3   OH245129   5.472   4.390  13.447 -0.3017  0.4895 -0.2475
 7905TIP3    H145130   5.402   4.362  13.388 -1.8500  4.0536 -0.2513
 7905TIP3    H245131   5.468   4.329  13.521 -1.2348 -1.3349 -1.7789
 7906TIP3   OH245132   4.452   3.301  16.372  0.2574  0.2095  0.2012
 7906TIP3    H145133   4.515   3.347  16.428 -0.5491 -0.1085  1.3628
 7906TIP3    H245134   4.411   3.236  16.429 -0.5480 -0.1309 -0.7558
 7907TIP3   OH245135   5.178   6.017   5.139  0.4218  0.3684  0.7251
 7907TIP3    H145136   5.194   6.063   5.222  1.5163  0.1976  0.6212
 7907TIP3    H245137   5.137   5.934   5.165  0.4405  0.4651  1.0679
 7908TIP3   OH245138   1.168   4.093  11.139 -0.3188 -0.4318  0.2128
 7908TIP3    H145139   1.118   4.174  11.148 -2.1259 -1.6452  1.2265
 7908TIP3    H245140   1.170   4.076  11.044 -0.7212  0.3086  0.0718
 7909TIP3   OH245141   4.728   6.759   1.620  0.6111 -0.6965 -0.0772
 7909TIP3    H145142   4.804   6.703   1.635 -0.1100 -1.5296  0.5682
 7909TIP3    H245143   4.763   6.838   1.581  1.8000 -1.1008  0.1583
 7910TIP3   OH245144   5.506   2.330   3.134 -0.3658  0.4811  0.3760
 7910TIP3    H145145   5.597   2.304   3.125 -0.5495  0.2127 -0.7076
 7910TIP3    H245146   5.466   2.310   3.050 -0.7866  3.2176 -0.1475
 7911TIP3   OH245147   5.628   0.717   0.382 -0.1637 -0.1358 -0.4887
 7911TIP3    H145148   5.541   0.756   0.371 -0.5896 -1.0164 -0.1766
 7911TIP3    H245149   5.675   0.780   0.437 -0.7833  0.0561 -0.1714
 7912TIP3   OH245150   4.295   3.861   1.608 -0.0620  0.3891 -0.2835
 7912TIP3    H145151   4.361   3.836   1.673  0.3643  3.5816  0.6320
 7912TIP3    H245152   4.346   3.889   1.532 -0.5029 -0.9313 -1.0860
 7913TIP3   OH245153   6.038   1.147  13.231  0.3899 -0.1849 -0.0745
 7913TIP3    H145154   6.086   1.185  13.304 -0.4811  3.5750 -1.3438
 7913TIP3    H245155   5.951   1.129  13.267  0.3194  0.5676  0.1549
 7914TIP3   OH245156   6.626   3.630  12.545  0.1255 -0.1452 -0.0022
 7914TIP3    H145157   6.655   3.570  12.614  1.6989 -0.9936 -1.3505
 7914TIP3    H245158   6.560   3.581  12.496 -0.8541  0.3859  0.7892
 7915TIP3   OH245159   1.238   0.423  14.861 -0.3147 -0.2803  0.3235
 7915TIP3    H145160   1.329   0.435  14.886 -0.0535  0.5349 -0.9668
 7915TIP3    H245161   1.194   0.398  14.942  0.7570  0.9033  1.2865
 7916TIP3   OH245162   5.141   3.868   3.632 -0.3584 -0.5987  0.0608
 7916TIP3    H145163   5.190   3.847   3.552  0.0399  1.2430 -0.2179
 7916TIP3    H245164   5.185   3.946   3.666 -1.1102 -0.8265  1.5819
 7917TIP3   OH245165   4.308   2.735   5.450 -0.3907 -0.0874 -0.1054
 7917TIP3    H145166   4.293   2.782   5.368 -0.6591  0.5025  0.2785
 7917TIP3    H245167   4.325   2.645   5.423 -0.3632  0.1257 -0.8168
 7918TIP3   OH245168   1.556   1.502   1.776  0.0217  0.4186  0.3508
 7918TIP3    H145169   1.622   1.565   1.749 -0.0509  0.3730  0.0632
 7918TIP3    H245170   1.507   1.483   1.696 -1.9757  2.3720  1.0809
 7919TIP3   OH245171   4.602   5.006   0.203 -0.3162  0.3474  0.2356
 7919TIP3    H145172   4.527   5.018   0.261 -0.4093 -0.6837  0.3363
 7919TIP3    H245173   4.662   4.951   0.253  0.6664  1.4370  0.2851
 7920TIP3   OH245174   1.885   0.732  14.875  0.6573 -0.1348  0.6335
 7920TIP3    H145175   1.800   0.764  14.845  1.1403  1.1486  0.6047
 7920TIP3    H245176   1.898   0.775  14.960  2.1698  1.2858 -0.2712
 7921TIP3   OH245177   1.808   4.510  14.807 -0.0013  0.0051  0.0724
 7921TIP3    H145178   1.818   4.543  14.896  0.7643  0.2682 -0.1065
 7921TIP3    H245179   1.737   4.564  14.770 -0.9394 -0.7098  0.7962
 7922TIP3   OH245180   0.624   4.824  13.793 -0.0935 -0.4124 -0.4277
 7922TIP3    H145181   0.619   4.740  13.748  0.5115 -1.4379  1.3748
 7922TIP3    H245182   0.687   4.810  13.864 -0.0011  1.5545 -0.0862
 7923TIP3   OH245183   3.220   4.995   2.953 -0.2633 -0.1075  0.5869
 7923TIP3    H145184   3.139   4.947   2.970  0.1546 -0.4358  1.7089
 7923TIP3    H245185   3.208   5.078   3.000 -0.6184  0.5192 -0.6043
 7924TIP3   OH245186   2.966   0.101   4.881  0.1680 -0.5086  0.0319
 7924TIP3    H145187   3.050   0.119   4.922 -0.0563 -0.1794  0.3439
 7924TIP3    H245188   2.901   0.141   4.939 -0.2017 -0.7253 -0.2282
 7925TIP3   OH245189   1.576   2.123  15.712  0.7845 -0.2599 -0.4980
 7925TIP3    H145190   1.521   2.161  15.644  1.2214 -0.0008 -0.7148
 7925TIP3    H245191   1.537   2.038  15.730  0.5315 -0.2338 -0.9128
 7926TIP3   OH245192   5.557   2.843  15.460  1.0835 -0.2906 -0.3384
 7926TIP3    H145193   5.628   2.902  15.486  0.8981 -0.5098  0.6923
 7926TIP3    H245194   5.512   2.822  15.542  0.6574 -1.2281 -0.8026
 7927TIP3   OH245195   1.024   1.115   3.978 -0.7896  0.2281 -0.7793
 7927TIP3    H145196   1.008   1.133   3.885 -1.4899  1.1878 -0.4817
 7927TIP3    H245197   1.116   1.140   3.991 -1.0299  1.2351 -0.9485
 7928TIP3   OH245198   1.358   2.379  10.822 -0.5066 -0.0939  0.3978
 7928TIP3    H145199   1.363   2.311  10.889 -0.7251  0.9797  1.5171
 7928TIP3    H245200   1.448   2.394  10.796 -0.4518 -0.7645  0.1740
 7929TIP3   OH245201   0.094   2.422   6.521  0.2557  0.2203  0.2174
 7929TIP3    H145202   0.125   2.356   6.584  0.5991  1.0678  0.9355
 7929TIP3    H245203   0.080   2.372   6.440  4.2654 -0.0956 -0.4023
 7930TIP3   OH245204   6.000   0.608   0.921  0.0989  0.5163  0.2512
 7930TIP3    H145205   5.951   0.546   0.868 -0.2757  0.1499  1.0067
 7930TIP3    H245206   6.071   0.638   0.865 -0.3543  0.2163 -0.4802
 7931TIP3   OH245207   3.840   0.004   5.813  0.2925 -0.0534  0.2393
 7931TIP3    H145208   3.790  -0.065   5.770  0.4682  0.9267 -1.5598
 7931TIP3    H245209   3.777   0.075   5.826  0.2854 -0.2664  1.4665
 7932TIP3   OH245210   2.336   3.404   5.135 -0.3070 -0.5145 -0.3783
 7932TIP3    H145211   2.391   3.360   5.069  0.9678  0.1223  0.2366
 7932TIP3    H245212   2.279   3.335   5.168  1.9198 -1.8317  0.8419
 7933TIP3   OH245213   1.669   0.356   2.287  0.7162  0.2792  0.2159
 7933TIP3    H145214   1.617   0.366   2.366 -1.3944  0.8038 -1.1842
 7933TIP3    H245215   1.758   0.382   2.312  0.4459 -1.1659  2.7931
 7934TIP3   OH245216   3.111   5.213  16.211 -0.3252 -0.1520  0.7449
 7934TIP3    H145217   3.092   5.306  16.202  2.0385  0.2547 -0.3375
 7934TIP3    H245218   3.156   5.206  16.296 -0.7235 -0.3410  0.9411
 7935TIP3   OH245219   6.305   0.628  12.484  0.0397 -0.6455  0.1756
 7935TIP3    H145220   6.212   0.608  12.497  0.0002 -0.2936  0.4229
 7935TIP3    H245221   6.350   0.570  12.545 -0.1168  0.6040  1.4939
 7936TIP3   OH245222   5.993   6.522  11.191 -0.6976  0.8544  0.3417
 7936TIP3    H145223   5.953   6.532  11.104 -0.0861  0.3230 -0.0067
 7936TIP3    H245224   5.923   6.485  11.245 -0.7004 -0.0539 -0.2576
 7937TIP3   OH245225   5.899   2.645  11.425  0.7218  0.2677 -0.4501
 7937TIP3    H145226   5.896   2.582  11.354  0.1095 -0.2843  0.0659
 7937TIP3    H245227   5.989   2.678  11.424  1.1903 -1.0074 -0.3634
 7938TIP3   OH245228   1.548   3.902   0.530  0.6837 -0.2170  0.0353
 7938TIP3    H145229   1.471   3.863   0.571  1.1647 -2.0106 -0.7215
 7938TIP3    H245230   1.516   3.985   0.495 -1.0705 -1.2058 -0.7947
 7939TIP3   OH245231   3.643   1.171   2.802 -0.4740 -0.1336  0.4043
 7939TIP3    H145232   3.604   1.246   2.846  0.4158  0.2773  0.5206
 7939TIP3    H245233   3.703   1.209   2.738  0.7966 -0.7235  1.1973
 7940TIP3   OH245234   2.403   4.040   5.207  0.1362  0.2245 -0.3249
 7940TIP3    H145235   2.466   4.028   5.136 -0.3937  0.8017 -0.9154
 7940TIP3    H245236   2.430   3.979   5.275  0.1723 -0.9372 -1.3608
 7941TIP3   OH245237   2.544   6.388  11.703  0.2118 -0.1755  0.2342
 7941TIP3    H145238   2.458   6.357  11.729 -0.6807  0.0564 -2.3873
 7941TIP3    H245239   2.584   6.315  11.657  0.5859  0.4085 -0.3828
 7942TIP3   OH245240   3.563   3.254  12.459 -0.6306  0.3511 -0.2134
 7942TIP3    H145241   3.648   3.238  12.501 -1.3812 -1.9503  0.4917
 7942TIP3    H245242   3.532   3.335  12.498  0.4595  0.2836  0.8237
 7943TIP3   OH245243   5.096   3.299  11.595 -0.1136 -0.4647 -0.2058
 7943TIP3    H145244   5.082   3.394  11.594  0.8160 -0.3124  0.2395
 7943TIP3    H245245   5.045   3.268  11.669 -0.1070 -0.2602 -0.1153
 7944TIP3   OH245246   5.049   5.446  14.440 -0.3521  0.1254  0.3772
 7944TIP3    H145247   5.010   5.363  14.412 -0.7367 -0.0075  1.2783
 7944TIP3    H245248   4.974   5.504  14.455 -0.1954  0.0126  1.6748
 7945TIP3   OH245249   6.179   3.933  16.692  0.2774 -0.7038 -0.0943
 7945TIP3    H145250   6.143   3.847  16.711  0.3583 -0.6282  0.4039
 7945TIP3    H245251   6.274   3.922  16.697  0.4083 -1.2383 -2.8401
 7946TIP3   OH245252   4.262   1.696   2.600 -0.0500 -0.2312  0.1369
 7946TIP3    H145253   4.260   1.792   2.599 -1.0467 -0.2060  2.2519
 7946TIP3    H245254   4.175   1.670   2.571 -0.7960 -0.4220  2.4195
 7947TIP3   OH245255   1.568   3.423  13.770 -0.7384 -0.2423  0.2631
 7947TIP3    H145256   1.553   3.341  13.818 -4.3022  0.2386  0.1282
 7947TIP3    H245257   1.560   3.492  13.836 -1.3066  0.1721 -0.2283
 7948TIP3   OH245258   5.761   2.981  15.565 -0.7498 -0.5473 -0.3127
 7948TIP3    H145259   5.783   3.065  15.525 -2.7293 -0.0827 -0.4908
 7948TIP3    H245260   5.807   2.981  15.649 -0.7009  0.6874 -0.3343
 7949TIP3   OH245261   6.048   2.807  12.792  0.3098  0.4518 -0.2634
 7949TIP3    H145262   6.016   2.894  12.766  0.6634  0.6029 -0.1977
 7949TIP3    H245263   5.992   2.746  12.744  2.0112  0.7385 -2.6701
 7950TIP3   OH245264   3.140   3.632  14.381 -0.2431 -0.6338  0.3847
 7950TIP3    H145265   3.109   3.643  14.472  0.0717  1.2460  0.2970
 7950TIP3    H245266   3.235   3.627  14.389 -0.0674  1.5576  0.0244
 7951TIP3   OH245267   2.999   5.221   0.370 -0.0668 -0.0198 -0.2269
 7951TIP3    H145268   2.915   5.190   0.404 -0.6783  1.4410 -0.3700
 7951TIP3    H245269   2.994   5.204   0.276 -0.0927 -0.2055 -0.1912
 7952TIP3   OH245270   5.740   2.166   0.845  0.4630 -0.2294  0.2478
 7952TIP3    H145271   5.722   2.186   0.753  2.7584 -2.8067 -0.8282
 7952TIP3    H245272   5.673   2.102   0.870  0.2779 -0.0663  0.1706
 7953TIP3   OH245273   1.733   5.620   4.866  0.1351 -0.1804  0.0858
 7953TIP3    H145274   1.690   5.569   4.797 -1.1609 -1.5764  1.8604
 7953TIP3    H245275   1.736   5.709   4.832 -2.1545 -0.4895 -1.0364
 7954TIP3   OH245276   2.558   0.674   3.591 -0.0916  0.2585 -0.6174
 7954TIP3    H145277   2.622   0.743   3.606 -0.9336  0.7040  1.1374
 7954TIP3    H245278   2.508   0.703   3.515  0.8783  0.5698 -1.1482
 7955TIP3   OH245279   3.612   6.500   4.782 -0.3993 -0.1258  0.4394
 7955TIP3    H145280   3.611   6.594   4.766 -0.4752 -0.1596  0.2343
 7955TIP3    H245281   3.567   6.489   4.866 -0.9496 -0.0319  0.1629
 7956TIP3   OH245282   5.159   1.992  16.239 -0.1896  0.3557  0.2294
 7956TIP3    H145283   5.160   2.034  16.153  0.3538  0.6588  0.3784
 7956TIP3    H245284   5.234   2.030  16.285 -0.4474  0.1529  0.8154
 7957TIP3   OH245285   5.054   1.822  15.274  0.3789  0.2666  0.3753
 7957TIP3    H145286   5.006   1.774  15.207 -2.4212  0.9582  1.7911
 7957TIP3    H245287   5.095   1.895  15.227 -0.3266 -0.0985 -0.8171
 7958TIP3   OH245288   2.330   2.644  12.945  0.3756  0.3073 -0.7510
 7958TIP3    H145289   2.310   2.565  12.995  0.0635 -0.2965 -1.7932
 7958TIP3    H245290   2.417   2.670  12.975  1.0754 -1.2408 -1.3673
 7959TIP3   OH245291   5.869   2.199   4.075  0.0689  0.2005 -1.0472
 7959TIP3    H145292   5.797   2.138   4.094 -0.3961  1.2133  0.6022
 7959TIP3    H245293   5.843   2.242   3.994 -0.9151  0.1137 -0.7902
 7960TIP3   OH245294   1.418   5.258   5.495  0.1431 -0.4562 -0.7081
 7960TIP3    H145295   1.503   5.215   5.481  0.6085 -0.0917  0.8819
 7960TIP3    H245296   1.440   5.351   5.504 -0.1839 -0.5667  1.5755
 7961TIP3   OH245297   0.247   6.685  13.182 -0.0385  0.5025  0.0580
 7961TIP3    H145298   0.226   6.594  13.202  1.9404 -0.5241 -2.3015
 7961TIP3    H245299   0.281   6.721  13.264 -2.5286 -0.3100  1.5000
 7962TIP3   OH245300   1.542   2.874  17.194  0.2236  0.0123  0.2265
 7962TIP3    H145301   1.450   2.858  17.213  0.6845  0.5837  3.0617
 7962TIP3    H245302   1.575   2.921  17.270  3.0750 -0.9353 -0.3683
 7963TIP3   OH245303   2.573   5.682  11.722 -0.0026 -0.3620 -0.0773
 7963TIP3    H145304   2.513   5.634  11.779 -0.5605 -1.2444 -1.3756
 7963TIP3    H245305   2.632   5.727  11.782 -0.2346 -1.7001  1.1918
 7964TIP3   OH245306   0.442   3.427  13.730  0.0371 -0.6739  0.1322
 7964TIP3    H145307   0.508   3.381  13.782  0.4972  0.5147  0.6119
 7964TIP3    H245308   0.493   3.482  13.670 -0.4787 -2.1506 -1.7110
 7965TIP3   OH245309   2.179   6.463   3.432  0.3909 -0.0035  0.1631
 7965TIP3    H145310   2.210   6.553   3.441 -1.5434  0.5790  1.1268
 7965TIP3    H245311   2.239   6.424   3.369  2.3856  1.4183  1.1318
 7966TIP3   OH245312   6.274   2.786  11.621 -0.3512  0.2933  0.5617
 7966TIP3    H145313   6.216   2.862  11.610 -0.2842  0.5414  1.8607
 7966TIP3    H245314   6.277   2.772  11.716  2.4392  0.8475  0.5954
 7967TIP3   OH245315   5.461   6.061   0.597  0.0514  0.5105  0.1129
 7967TIP3    H145316   5.420   6.013   0.525  1.4792  0.1313 -0.4644
 7967TIP3    H245317   5.420   6.148   0.594 -0.9709  0.0223 -0.2055
 7968TIP3   OH245318   2.148   1.265   1.867 -0.1027 -0.1447  0.1323
 7968TIP3    H145319   2.162   1.213   1.946 -1.6222  0.9404  1.1451
 7968TIP3    H245320   2.170   1.354   1.892 -2.5323  0.5504 -0.0368
 7969TIP3   OH245321   2.309   2.026  15.906  0.1139  0.2492  0.1532
 7969TIP3    H145322   2.356   2.094  15.955 -0.9587  1.3245 -0.3205
 7969TIP3    H245323   2.238   2.071  15.863 -0.4629 -1.1395 -0.3807
 7970TIP3   OH245324   3.579   4.246  13.768  0.2782  0.1264  0.6125
 7970TIP3    H145325   3.671   4.217  13.765  0.2946  0.1730  0.6696
 7970TIP3    H245326   3.556   4.259  13.676  0.2777 -0.0455  0.5890
 7971TIP3   OH245327   3.133   1.714  16.254 -0.5400  0.1546  0.1898
 7971TIP3    H145328   3.100   1.649  16.192 -0.6825 -2.5360  2.9325
 7971TIP3    H245329   3.076   1.705  16.331  0.6813  2.1496  1.3919
 7972TIP3   OH245330   3.406   0.778   1.661 -0.0167  0.5940  0.2570
 7972TIP3    H145331   3.406   0.685   1.637  1.1858  0.9381 -1.1303
 7972TIP3    H245332   3.313   0.802   1.665 -0.3202 -0.5926  0.3599
 7973TIP3   OH245333   2.387   3.298   3.560 -0.0720 -0.8929 -0.7135
 7973TIP3    H145334   2.415   3.208   3.575  0.7535 -0.9441 -2.4789
 7973TIP3    H245335   2.405   3.314   3.468 -2.9476  0.1215 -1.1364
 7974TIP3   OH245336   3.229   2.523   2.907  0.0531  0.5146  0.2910
 7974TIP3    H145337   3.143   2.488   2.883 -1.0122  1.3148  2.7785
 7974TIP3    H245338   3.268   2.454   2.961  0.2877  0.8471  0.5432
 7975TIP3   OH245339   0.318   1.690  13.095  0.4383 -0.3159  0.1636
 7975TIP3    H145340   0.405   1.697  13.054  0.4732 -1.7196 -0.0316
 7975TIP3    H245341   0.319   1.755  13.165  1.1453  0.6419 -0.7194
 7976TIP3   OH245342   2.390   3.085   1.810 -0.3805  0.1692 -0.3421
 7976TIP3    H145343   2.419   3.042   1.730 -0.4339 -0.1340 -0.1986
 7976TIP3    H245344   2.471   3.102   1.858 -0.3005  0.8775 -0.7262
 7977TIP3   OH245345   1.962   0.041   5.022 -0.2087 -0.5781  0.2413
 7977TIP3    H145346   2.023   0.069   4.953 -0.5164  0.1949  0.2856
 7977TIP3    H245347   1.999  -0.042   5.053  0.6234 -0.3023  0.0141
 7978TIP3   OH245348   1.141   5.523   0.785 -0.0718 -0.0068 -0.3557
 7978TIP3    H145349   1.120   5.429   0.783 -0.2621 -0.0530  2.0116
 7978TIP3    H245350   1.235   5.526   0.798 -0.2872  0.0854  1.3274
 7979TIP3   OH245351   4.189   5.980   2.388  0.0826  0.1121 -0.1335
 7979TIP3    H145352   4.136   5.971   2.309 -0.5481  1.5656  0.1002
 7979TIP3    H245353   4.275   5.947   2.364 -0.2976 -0.0820 -1.2271
 7980TIP3   OH245354   4.554   0.498   2.638 -0.3008  0.3411  0.2178
 7980TIP3    H145355   4.469   0.454   2.632 -1.6012  2.7311  0.4602
 7980TIP3    H245356   4.586   0.477   2.726 -1.2260  0.4451  0.5847
 7981TIP3   OH245357   5.551   1.880   3.512 -0.4729 -0.1408  0.0356
 7981TIP3    H145358   5.565   1.961   3.464 -0.2682  0.1881  0.6389
 7981TIP3    H245359   5.613   1.818   3.473 -0.1312  0.1925  0.0427
 7982TIP3   OH245360   4.879   2.984   4.406 -0.1431 -0.1257 -0.2908
 7982TIP3    H145361   4.884   2.963   4.313  0.5557 -1.1327 -0.0388
 7982TIP3    H245362   4.950   2.934   4.446 -1.4020 -0.9485  1.0060
 7983TIP3   OH245363   2.431   0.989  15.598  0.2448 -0.0151  0.0681
 7983TIP3    H145364   2.522   0.991  15.566  0.5026 -1.1008  0.6752
 7983TIP3    H245365   2.403   0.899  15.581 -0.0354 -0.2439  1.7004
 7984TIP3   OH245366   5.665   0.929  12.747  0.3398  0.2085 -0.1460
 7984TIP3    H145367   5.654   0.901  12.838  0.0186  0.1998 -0.1857
 7984TIP3    H245368   5.719   0.861  12.707  1.0312  0.5447  0.1997
 7985TIP3   OH245369   5.956   3.993   4.448 -0.2548 -0.3375 -0.1371
 7985TIP3    H145370   5.895   3.941   4.396  1.3903 -0.6298 -1.8551
 7985TIP3    H245371   6.041   3.952   4.432  0.4634  0.3081  1.8762
 7986TIP3   OH245372   5.055   4.404   0.739  0.3174  0.1771  0.5779
 7986TIP3    H145373   5.126   4.365   0.688 -1.1335 -0.7220 -0.7855
 7986TIP3    H245374   4.982   4.410   0.679  0.1943  4.3114  0.9563
 7987TIP3   OH245375   4.349   3.097   1.144  0.2705  0.0463 -0.0076
 7987TIP3    H145376   4.262   3.113   1.179  0.4820  2.2134 -0.3820
 7987TIP3    H245377   4.368   3.175   1.092  0.3455 -2.6328 -4.2075
 7988TIP3   OH245378   3.475   1.919  16.494 -0.4871 -0.1187 -0.0102
 7988TIP3    H145379   3.488   1.914  16.589  0.3137  1.1257 -0.0460
 7988TIP3    H245380   3.563   1.933  16.459 -0.1380 -4.6292 -1.2832
 7989TIP3   OH245381   0.863   4.364   6.005  0.4256 -0.2605  0.3849
 7989TIP3    H145382   0.797   4.342   5.939  0.5967 -0.9779  0.4418
 7989TIP3    H245383   0.846   4.455   6.028 -1.9790 -1.0757  2.0391
 7990TIP3   OH245384   6.222   5.105  11.634  0.1829  0.1037  0.3611
 7990TIP3    H145385   6.309   5.079  11.667  0.4210  0.7388  0.2443
 7990TIP3    H245386   6.191   5.169  11.698  0.0376  0.2888  0.1057
 7991TIP3   OH245387   1.625   0.494  12.747  0.5099 -0.4017 -0.8181
 7991TIP3    H145388   1.632   0.415  12.800 -0.4949  0.0260 -0.0328
 7991TIP3    H245389   1.584   0.558  12.805 -0.9889 -0.0471 -2.2289
 7992TIP3   OH245390   6.437   0.894   1.065 -0.0274  0.2487  0.1111
 7992TIP3    H145391   6.420   0.986   1.085  1.4413  0.9522 -1.8330
 7992TIP3    H245392   6.531   0.889   1.053 -0.1165 -1.4985  0.0587
 7993TIP3   OH245393   0.548   5.476  10.962  0.0927  0.1215 -0.0054
 7993TIP3    H145394   0.633   5.478  11.007  0.6341 -1.0761 -0.9108
 7993TIP3    H245395   0.514   5.388  10.979 -1.3241  0.8545  0.9727
 7994TIP3   OH245396   0.679   3.851   1.246  0.3919 -0.7841  0.3605
 7994TIP3    H145397   0.724   3.935   1.254 -0.2340 -0.3041 -1.0543
 7994TIP3    H245398   0.741   3.788   1.284  1.7414  0.0293 -0.4216
 7995TIP3   OH245399   6.606   6.560   5.023 -0.1796  0.3732  0.1733
 7995TIP3    H145400   6.540   6.504   4.983  0.4877 -0.2323 -0.1103
 7995TIP3    H245401   6.568   6.586   5.107 -0.7523 -0.0031  0.0348
 7996TIP3   OH245402   4.357   6.303  13.524 -0.2168  0.8595 -0.7163
 7996TIP3    H145403   4.369   6.332  13.433  2.2772 -0.6311 -0.8917
 7996TIP3    H245404   4.436   6.331  13.569 -0.3679 -0.5233  0.4347
 7997TIP3   OH245405   0.144   1.920   0.874  0.0996  0.4877  0.6553
 7997TIP3    H145406   0.232   1.958   0.870  0.4211 -0.1583  1.6536
 7997TIP3    H245407   0.099   1.970   0.942 -0.6809  1.5733 -0.6273
 7998TIP3   OH245408   0.611   6.172  15.777  0.2655  0.1954 -0.3472
 7998TIP3    H145409   0.659   6.152  15.857 -1.8371  2.4845  1.5824
 7998TIP3    H245410   0.548   6.101  15.769  0.9788 -0.4326 -0.3572
 7999TIP3   OH245411   6.212   4.757  13.574  0.0878  0.0647 -0.5589
 7999TIP3    H145412   6.214   4.756  13.670  1.5059  0.6120 -0.5668
 7999TIP3    H245413   6.121   4.741  13.551 -0.1729 -0.5512  0.8796
 8000TIP3   OH245414   3.770   6.747  13.105 -0.4717 -0.3593  0.4953
 8000TIP3    H145415   3.751   6.825  13.053  1.4338 -0.1222  0.1019
 8000TIP3    H245416   3.774   6.676  13.041  0.9011 -0.2291  0.4073
 8001TIP3   OH245417   3.424   6.259  15.253  0.0823 -0.2354 -0.4863
 8001TIP3    H145418   3.348   6.299  15.295 -1.5187 -1.3737 -2.2482
 8001TIP3    H245419   3.392   6.229  15.168  2.5620 -0.5306 -1.3573
 8002TIP3   OH245420   2.883   3.381   4.697  0.9547 -0.2514 -0.4463
 8002TIP3    H145421   2.910   3.314   4.634 -0.5285  0.7400 -2.2160
 8002TIP3    H245422   2.943   3.454   4.680 -0.4341  0.5965 -1.8376
 8003TIP3   OH245423   4.863   1.573  16.411 -0.1982 -0.3505 -0.3719
 8003TIP3    H145424   4.929   1.610  16.351  0.8218 -1.2555  0.1875
 8003TIP3    H245425   4.908   1.565  16.495 -1.2299 -0.3477  0.1945
 8004TIP3   OH245426   5.434   0.288  15.886 -0.0737 -0.2830  0.0942
 8004TIP3    H145427   5.528   0.298  15.900  0.5515 -1.1924 -3.1519
 8004TIP3    H245428   5.401   0.257  15.970  2.5446 -0.2226  1.2113
 8005TIP3   OH245429   6.264   4.186  13.990 -0.5194  0.3089  0.0686
 8005TIP3    H145430   6.222   4.260  13.947 -2.1316 -1.5550 -1.6712
 8005TIP3    H245431   6.213   4.172  14.070 -0.8587  0.4152 -0.1300
 8006TIP3   OH245432   4.791   2.985  13.393  0.2861  0.8048  0.1361
 8006TIP3    H145433   4.824   2.964  13.306  1.2600 -0.2563  0.7515
 8006TIP3    H245434   4.836   3.066  13.417 -0.3791  1.3826 -0.5599
 8007TIP3   OH245435   6.427   5.332   5.533  0.2538  0.2185 -0.1742
 8007TIP3    H145436   6.505   5.291   5.495  0.0367 -0.2143 -0.1515
 8007TIP3    H245437   6.450   5.425   5.538  1.2538 -0.0666  1.0012
 8008TIP3   OH245438   1.687   0.523  12.477  0.4779  0.0956 -0.0619
 8008TIP3    H145439   1.659   0.555  12.563 -1.0882  0.6579 -0.7768
 8008TIP3    H245440   1.622   0.557  12.416  0.6421 -1.6854 -1.2659
 8009TIP3   OH245441   2.469   1.484   5.311  0.2849  0.3285  0.6758
 8009TIP3    H145442   2.419   1.502   5.391  1.1556  1.3144  1.0158
 8009TIP3    H245443   2.561   1.491   5.338  0.5926  1.9310 -0.6536
 8010TIP3   OH245444   3.728   4.224   0.767 -0.5106  0.3863 -0.6466
 8010TIP3    H145445   3.702   4.142   0.726  0.9023 -0.6511  0.4983
 8010TIP3    H245446   3.806   4.252   0.717  0.1192  0.0692  0.1604
 8011TIP3   OH245447   3.126   5.506  12.128  0.1628  0.0400 -0.3893
 8011TIP3    H145448   3.041   5.544  12.107 -0.8122 -2.1311 -0.5275
 8011TIP3    H245449   3.143   5.534  12.218 -1.7960 -1.4077  0.4534
 8012TIP3   OH245450   1.130   5.577  16.110  0.1428  0.4867  0.1468
 8012TIP3    H145451   1.067   5.643  16.081  0.8521  0.8620 -0.5615
 8012TIP3    H245452   1.178   5.619  16.181 -0.1363  0.3399  0.4262
 8013TIP3   OH245453   3.593   5.871  12.414  0.0104 -0.1779  0.5296
 8013TIP3    H145454   3.632   5.796  12.459  0.7812 -1.0357 -1.5278
 8013TIP3    H245455   3.613   5.857  12.322 -1.1508  1.7926 -0.0497
 8014TIP3   OH245456   5.478   1.470  15.418  0.1190  0.0409  0.2118
 8014TIP3    H145457   5.474   1.409  15.344 -1.5948  1.1518 -0.6502
 8014TIP3    H245458   5.509   1.417  15.491  0.2445 -1.4671 -0.9093
 8015TIP3   OH245459   6.472   1.907  11.337 -0.0668  0.5486  0.0554
 8015TIP3    H145460   6.442   1.919  11.427  0.8166 -1.4009  0.6368
 8015TIP3    H245461   6.561   1.942  11.336  0.2464 -0.2326  0.1781
 8016TIP3   OH245462   1.663   2.445  15.734 -0.1086 -0.4362  0.1741
 8016TIP3    H145463   1.643   2.394  15.813 -2.1899  1.8961  1.2182
 8016TIP3    H245464   1.600   2.414  15.669  1.1890 -1.9038 -0.4243
 8017TIP3   OH245465   2.645   5.637   4.698  0.2045 -0.6044 -0.9350
 8017TIP3    H145466   2.631   5.698   4.626 -2.9909 -0.5896 -0.4079
 8017TIP3    H245467   2.618   5.686   4.776  0.7446 -1.6031 -0.1122
 8018TIP3   OH245468   5.932   3.247   5.519  0.0073 -0.2090  0.3873
 8018TIP3    H145469   5.908   3.158   5.495 -0.0329 -0.7950  2.4927
 8018TIP3    H245470   6.024   3.242   5.544  0.0863  0.3904  0.2327
 8019TIP3   OH245471   2.957   4.442   0.561  0.2868  0.2774 -0.1981
 8019TIP3    H145472   3.007   4.367   0.529  0.2880  0.2210 -0.0672
 8019TIP3    H245473   2.881   4.403   0.605  0.5530  0.3358  0.3190
 8020TIP3   OH245474   1.946   2.662   1.054 -0.6206 -0.5412  0.0891
 8020TIP3    H145475   1.944   2.604   0.978  0.2846 -1.7506  0.9610
 8020TIP3    H245476   2.015   2.626   1.109 -2.1082 -0.4291  2.0757
 8021TIP3   OH245477   5.463   5.705  11.764 -0.0920  0.3392  0.3444
 8021TIP3    H145478   5.440   5.795  11.741 -0.3753 -0.0560 -0.9404
 8021TIP3    H245479   5.427   5.652  11.693  2.2417 -0.5666 -0.2067
 8022TIP3   OH245480   4.737   6.268  14.782  0.1756 -0.0645  0.3315
 8022TIP3    H145481   4.668   6.254  14.717  0.8075 -0.5630 -0.2414
 8022TIP3    H245482   4.787   6.343  14.749  0.3167 -0.1302  0.3907
 8023TIP3   OH245483   5.458   4.756  11.654  0.0273 -0.3453 -0.0202
 8023TIP3    H145484   5.529   4.777  11.713 -1.5319 -0.0718  1.8116
 8023TIP3    H245485   5.422   4.841  11.627  0.2819 -0.4809 -0.8092
 8024TIP3   OH245486   3.660   3.878   0.817 -0.1582 -0.6120  0.0521
 8024TIP3    H145487   3.686   3.787   0.830 -0.5939 -0.6805  0.4621
 8024TIP3    H245488   3.629   3.907   0.903 -1.7909 -0.6456 -0.5220
 8025TIP3   OH245489   6.688   3.162   2.251 -0.0541  0.4243 -0.2396
 8025TIP3    H145490   6.663   3.128   2.337 -1.4190  1.4804 -0.2044
 8025TIP3    H245491   6.748   3.234   2.271 -0.1493  0.4885 -0.1837
 8026TIP3   OH245492   2.041   5.621  15.558 -1.0412 -0.5197  0.0495
 8026TIP3    H145493   2.041   5.661  15.645  1.8138  0.9526 -0.5689
 8026TIP3    H245494   2.126   5.578  15.551 -1.6930 -1.5933 -1.5909
 8027TIP3   OH245495   3.257   5.300   0.160 -0.1353 -0.1940  0.5056
 8027TIP3    H145496   3.278   5.212   0.191  0.7316 -0.4036 -0.6296
 8027TIP3    H245497   3.309   5.359   0.215  0.5652 -0.4924  0.1566
 8028TIP3   OH245498   3.369   2.984   4.543  0.0797 -0.3239  0.1088
 8028TIP3    H145499   3.368   3.042   4.467  0.1050 -0.3923  0.0551
 8028TIP3    H245500   3.443   2.925   4.526  1.7212  1.3126  1.4428
 8029TIP3   OH245501   3.620   0.211   5.552  0.1206 -0.2536 -0.0241
 8029TIP3    H145502   3.597   0.254   5.470  0.9754 -0.1019 -0.1847
 8029TIP3    H245503   3.691   0.151   5.529 -0.6406 -1.3020  0.3143
 8030TIP3   OH245504   2.647   1.407   4.112  0.3987  0.5277 -0.3035
 8030TIP3    H145505   2.571   1.455   4.079 -0.0071  0.9974  1.2249
 8030TIP3    H245506   2.631   1.401   4.206  0.2716 -2.9854 -0.5098
 8031TIP3   OH245507   0.220   0.198   4.140  0.9364  0.2791 -0.2447
 8031TIP3    H145508   0.269   0.204   4.222 -0.0598  0.2549  0.3617
 8031TIP3    H245509   0.264   0.130   4.090  0.5737 -0.8454  0.9481
 8032TIP3   OH245510   1.590   0.205  14.296 -0.4404 -0.3931 -0.2422
 8032TIP3    H145511   1.666   0.185  14.242 -1.1471 -0.1395 -1.3275
 8032TIP3    H245512   1.574   0.298  14.281 -0.1728 -0.1310  1.0070
 8033TIP3   OH245513   4.818   0.579   1.425 -0.5228 -0.1459 -0.0255
 8033TIP3    H145514   4.726   0.555   1.434 -0.3336 -1.1153 -0.5743
 8033TIP3    H245515   4.855   0.566   1.512 -1.4369  2.6755  0.8358
 8034TIP3   OH245516   5.721   5.077   2.032  0.3743  0.1629 -0.9185
 8034TIP3    H145517   5.703   4.985   2.051  1.6527  0.0830 -0.0244
 8034TIP3    H245518   5.793   5.100   2.091  1.6009  1.1150 -2.7416
 8035TIP3   OH245519   2.932   0.621  10.648 -0.1674  0.2816 -0.0941
 8035TIP3    H145520   2.855   0.600  10.595  0.3732 -0.7640 -0.4769
 8035TIP3    H245521   2.995   0.551  10.629  0.2313  0.1770  1.5304
 8036TIP3   OH245522   6.361   6.111  11.454  0.5857  0.0092  0.3240
 8036TIP3    H145523   6.304   6.138  11.382  0.1120 -0.3049  0.5722
 8036TIP3    H245524   6.304   6.057  11.510  1.2515 -0.6916  0.3363
 8037TIP3   OH245525   3.501   1.109  14.232  0.3853  0.0155 -0.1796
 8037TIP3    H145526   3.563   1.181  14.243 -0.5310  0.8459 -0.3625
 8037TIP3    H245527   3.517   1.051  14.306  0.5845  0.8166  0.4077
 8038TIP3   OH245528   5.154   5.035  13.830 -0.6049  0.0425  0.0993
 8038TIP3    H145529   5.078   4.977  13.823 -0.5236 -0.0713  0.1676
 8038TIP3    H245530   5.130   5.112  13.778 -0.7919  0.0330  0.1717
 8039TIP3   OH245531   3.361   6.024  16.610  0.2907 -0.5691 -0.0963
 8039TIP3    H145532   3.293   6.045  16.546  0.0229  1.2805  0.7521
 8039TIP3    H245533   3.365   6.101  16.667  1.3312 -1.6894  1.4047
 8040TIP3   OH245534   6.582   0.815  14.005  0.0084  0.1720 -0.1439
 8040TIP3    H145535   6.566   0.781  13.916  0.7942  0.8281 -0.5491
 8040TIP3    H245536   6.634   0.894  13.991 -1.3538  1.2509  0.8222
 8041TIP3   OH245537   1.963   5.080  15.626 -0.2436 -0.2415  0.1660
 8041TIP3    H145538   1.932   4.990  15.638 -1.3435  0.0182 -0.6580
 8041TIP3    H245539   1.957   5.119  15.713 -1.3461 -0.4745  0.1930
 8042TIP3   OH245540   0.544   4.834   2.715  0.2642 -0.5947  0.6718
 8042TIP3    H145541   0.586   4.913   2.683  0.1892  0.0692  2.2036
 8042TIP3    H245542   0.588   4.763   2.668  0.3133  0.3372 -0.7263
 8043TIP3   OH245543   4.269   0.957  17.165 -0.3333 -0.0652  0.2582
 8043TIP3    H145544   4.278   0.958  17.070  0.5203  1.7652  0.3512
 8043TIP3    H245545   4.187   0.909  17.180  1.0142 -3.0063 -1.2430
 8044TIP3   OH245546   2.813   1.062   0.096 -0.1305  0.0828 -0.0296
 8044TIP3    H145547   2.838   1.108   0.016 -1.6460 -1.1699 -1.2224
 8044TIP3    H245548   2.762   1.126   0.146 -0.5231  0.3450 -0.7719
 8045TIP3   OH245549   5.648   4.951   5.219  0.0939 -0.2488 -0.0721
 8045TIP3    H145550   5.579   4.949   5.285 -1.3292 -2.0171 -1.5861
 8045TIP3    H245551   5.725   4.915   5.263 -0.1058  1.0570  1.3933
 8046TIP3   OH245552   1.410   4.362  11.322 -0.0973  0.1110  0.4778
 8046TIP3    H145553   1.455   4.440  11.353  0.3065  0.4376 -0.8736
 8046TIP3    H245554   1.389   4.382  11.231  0.8399 -1.6989 -0.1682
 8047TIP3   OH245555   5.582   3.735   5.692 -0.2505  0.0836  0.3988
 8047TIP3    H145556   5.578   3.797   5.765  0.9219  0.4501  0.1723
 8047TIP3    H245557   5.491   3.712   5.674 -0.8080  2.6493 -0.2601
 8048TIP3   OH245558   2.871   6.670  12.747 -0.4198  0.0514 -0.1724
 8048TIP3    H145559   2.786   6.665  12.791  0.2766  1.6869  1.3982
 8048TIP3    H245560   2.849   6.670  12.653 -2.0454 -1.1400  0.1736
 8049TIP3   OH245561   0.782   2.440  14.716 -0.7317  0.1544 -0.0753
 8049TIP3    H145562   0.801   2.393  14.635  0.8555  0.0443  0.3451
 8049TIP3    H245563   0.848   2.409  14.778  0.7277  3.3138  0.0471
 8050TIP3   OH245564   2.404   6.325   0.463 -0.6866 -0.1526 -0.3807
 8050TIP3    H145565   2.356   6.373   0.395 -3.1392 -0.3082  1.1588
 8050TIP3    H245566   2.430   6.391   0.526 -2.3644 -0.5325  0.7560
 8051TIP3   OH245567   3.651   0.312   6.485  0.2558  0.5301 -0.4812
 8051TIP3    H145568   3.598   0.258   6.426  0.0690  0.5864 -0.3627
 8051TIP3    H245569   3.711   0.249   6.527 -1.3578  0.0779  1.2205
 8052TIP3   OH245570   2.771   3.929  12.869 -0.5124  0.7564 -0.3817
 8052TIP3    H145571   2.724   3.862  12.919 -1.0098  1.3354 -0.0670
 8052TIP3    H245572   2.721   3.937  12.787 -1.2058  1.6584  0.1209
 8053TIP3   OH245573   4.114   1.053   6.008 -0.2418  0.4186 -0.0250
 8053TIP3    H145574   4.057   1.007   6.070  1.0658 -1.4813 -0.1866
 8053TIP3    H245575   4.188   0.994   5.996  0.2423  1.4407 -2.2464
 8054TIP3   OH245576   4.158   5.841   2.053 -0.2108 -0.2513  0.0099
 8054TIP3    H145577   4.187   5.764   2.004  0.5693  2.4186 -3.9347
 8054TIP3    H245578   4.239   5.888   2.074 -0.8066  0.4679  0.7236
 8055TIP3   OH245579   6.624   1.282   1.524 -0.0057  0.2890 -0.1329
 8055TIP3    H145580   6.606   1.191   1.500  1.9568 -0.3310  0.6809
 8055TIP3    H245581   6.646   1.325   1.441 -0.2577 -0.1360 -0.4221
 8056TIP3   OH245582   4.078   5.799   4.106 -0.1899 -0.4677 -0.5344
 8056TIP3    H145583   4.099   5.884   4.068 -0.0631 -0.1192  0.3078
 8056TIP3    H245584   4.034   5.752   4.035  0.0964  0.1467 -1.1337
 8057TIP3   OH245585   0.935   2.675   4.085 -0.1162 -0.1916  0.0397
 8057TIP3    H145586   0.890   2.657   4.003 -0.5687 -0.8715  0.4380
 8057TIP3    H245587   0.876   2.644   4.153 -0.1139  1.1253  0.6634
 8058TIP3   OH245588   2.805   4.165  11.002 -0.0472 -0.2130  0.3285
 8058TIP3    H145589   2.875   4.137  11.061 -1.1215 -1.4705  1.0408
 8058TIP3    H245590   2.781   4.086  10.954  0.7134  0.7687 -1.7382
 8059TIP3   OH245591   0.567   2.611  10.879  0.3591 -0.2949 -0.0449
 8059TIP3    H145592   0.651   2.607  10.833  0.2379  0.2830 -0.3126
 8059TIP3    H245593   0.511   2.664  10.823 -0.2126 -0.7505  0.0959
 8060TIP3   OH245594   2.690   5.443  15.970  0.8392 -0.4217  0.1295
 8060TIP3    H145595   2.664   5.469  16.058  1.8726  0.6631  0.1316
 8060TIP3    H245596   2.608   5.445  15.919  0.5466  0.8631  0.6176
 8061TIP3   OH245597   4.964   0.819   2.712  0.3884  0.0207  0.2762
 8061TIP3    H145598   5.020   0.742   2.722  1.6795  0.7079 -1.3155
 8061TIP3    H245599   5.017   0.891   2.746 -0.3173  0.3863  0.5891
 8062TIP3   OH245600   0.891   6.149   6.306  0.0940  0.2052  0.1085
 8062TIP3    H145601   0.922   6.237   6.286 -2.1291  2.2722  4.9170
 8062TIP3    H245602   0.833   6.127   6.233  1.7908  2.1157 -1.8749
 8063TIP3   OH245603   4.952   6.035   5.667  0.5453  0.2357 -0.0727
 8063TIP3    H145604   4.927   6.000   5.582 -0.5294 -4.0649  1.8509
 8063TIP3    H245605   5.031   5.987   5.691  0.0946  0.4034  1.8916
 8064TIP3   OH245606   4.340   0.363   3.841 -0.3371 -0.4702 -0.3928
 8064TIP3    H145607   4.347   0.380   3.747 -0.4764 -1.5568 -0.6060
 8064TIP3    H245608   4.320   0.270   3.847  0.5146 -0.5959  0.7407
 8065TIP3   OH245609   5.613   5.648   4.181  0.9621 -0.9065  0.1882
 8065TIP3    H145610   5.607   5.569   4.127  1.3931  0.4327 -1.8426
 8065TIP3    H245611   5.530   5.692   4.168  2.0945  0.7802 -1.5477
 8066TIP3   OH245612   5.571   3.466  15.859  0.8048 -0.6439 -0.2254
 8066TIP3    H145613   5.487   3.508  15.877  1.8645  0.2891  2.8784
 8066TIP3    H245614   5.584   3.477  15.765 -2.2468 -0.2928 -0.6439
 8067TIP3   OH245615   1.331   2.900   2.276  0.2137  0.2404 -0.4741
 8067TIP3    H145616   1.319   2.956   2.352 -0.4984 -0.2000 -0.2506
 8067TIP3    H245617   1.273   2.936   2.210  0.5241  0.3778 -0.6722
 8068TIP3   OH245618   5.690   3.880  14.636  0.0175 -0.3930 -1.0486
 8068TIP3    H145619   5.639   3.836  14.568  1.7375 -1.5519 -1.5910
 8068TIP3    H245620   5.727   3.956  14.592  0.2566 -0.5509 -1.1160
 8069TIP3   OH245621   0.782   1.047  15.019  0.1028 -0.4703  0.2090
 8069TIP3    H145622   0.715   0.998  15.066  0.8702 -0.6740  1.0850
 8069TIP3    H245623   0.732   1.115  14.972 -0.8220 -1.2752 -0.0029
 8070TIP3   OH245624   2.457   4.233   3.536 -0.1330  0.2782 -0.0897
 8070TIP3    H145625   2.382   4.200   3.585 -0.4900  1.1810 -0.0190
 8070TIP3    H245626   2.532   4.214   3.592 -0.4232  0.3492  0.3265
 8071TIP3   OH245627   3.517   4.867  12.942 -0.2287 -0.1769 -0.1249
 8071TIP3    H145628   3.553   4.799  12.886 -0.0525  0.4384 -0.7621
 8071TIP3    H245629   3.526   4.948  12.892  2.1356  0.7629  1.7168
 8072TIP3   OH245630   3.341   2.392   4.839 -0.1751  0.1268 -0.1378
 8072TIP3    H145631   3.369   2.480   4.815  0.8947  0.0317  0.7328
 8072TIP3    H245632   3.422   2.342   4.851 -0.7323 -0.6126  0.7035
 8073TIP3   OH245633   3.536   4.361   1.790 -0.1496 -0.4340 -0.8856
 8073TIP3    H145634   3.521   4.355   1.695 -0.3234  0.4337 -0.9123
 8073TIP3    H245635   3.590   4.439   1.801 -0.9806  0.0492 -0.1714
 8074TIP3   OH245636   1.312   1.582  12.304 -0.3869 -0.4049  0.0334
 8074TIP3    H145637   1.353   1.667  12.283 -2.5724  0.5576 -0.4421
 8074TIP3    H245638   1.273   1.553  12.222 -0.6963 -1.3076  0.4938
 8075TIP3   OH245639   1.959   4.990   2.223  0.7957  0.3195  1.0433
 8075TIP3    H145640   1.933   4.901   2.246  4.0619 -0.9918 -0.0074
 8075TIP3    H245641   1.961   5.037   2.307 -1.0524 -0.5335  1.5861
 8076TIP3   OH245642   4.869   0.963   1.268  0.4982 -0.8428  0.0165
 8076TIP3    H145643   4.798   0.955   1.332 -1.1224 -1.0005 -1.7573
 8076TIP3    H245644   4.924   0.886   1.283 -1.5605 -2.5073 -0.7743
 8077TIP3   OH245645   4.043   5.277   1.838  0.0022  0.6760 -0.3612
 8077TIP3    H145646   4.136   5.265   1.822 -0.3090 -0.8305 -1.1360
 8077TIP3    H245647   4.018   5.205   1.895 -0.6696  1.1479 -0.0444
 8078TIP3   OH245648   6.034   6.417   0.643  0.0061 -0.1335  0.4360
 8078TIP3    H145649   6.059   6.430   0.551 -2.5769  0.8057 -0.1488
 8078TIP3    H245650   6.007   6.503   0.674  0.2184 -0.5761  1.9116
 8079TIP3   OH245651   3.763   5.278  15.857  0.3800  0.4711 -0.4141
 8079TIP3    H145652   3.739   5.223  15.932  0.5892 -0.5162 -1.0547
 8079TIP3    H245653   3.849   5.245  15.831  0.2239  0.6898 -1.1950
 8080TIP3   OH245654   3.671   3.774  11.702  0.3563  0.5185  0.2527
 8080TIP3    H145655   3.634   3.702  11.651  0.0932  1.3927 -0.8365
 8080TIP3    H245656   3.682   3.740  11.790 -1.7634 -0.1894  0.2536
 8081TIP3   OH245657   4.137   0.688  11.639  0.1413  0.4982 -0.4439
 8081TIP3    H145658   4.227   0.695  11.672 -0.0137  1.0313 -0.1215
 8081TIP3    H245659   4.145   0.693  11.544  0.5278 -0.2916 -0.4581
 8082TIP3   OH245660   5.161   2.467  13.468  0.1323 -0.3501 -0.0058
 8082TIP3    H145661   5.120   2.394  13.422  1.1510 -1.3558  0.6335
 8082TIP3    H245662   5.104   2.482  13.544  0.9978 -1.8742  0.9903
 8083TIP3   OH245663   5.007   2.625  14.817 -0.3380  0.0373  0.5741
 8083TIP3    H145664   5.038   2.648  14.730  0.0913 -1.5315  0.2962
 8083TIP3    H245665   4.911   2.631  14.811 -0.3897 -1.4787 -0.4321
 8084TIP3   OH245666   6.107   4.670   0.940  0.0512 -0.1912  0.1515
 8084TIP3    H145667   6.042   4.611   0.978 -0.2418  0.2641  0.3633
 8084TIP3    H245668   6.112   4.743   1.002  0.0123  0.2659 -0.3865
 8085TIP3   OH245669   1.820   0.403  14.315  0.6036 -0.1287  0.7076
 8085TIP3    H145670   1.907   0.435  14.337 -0.2198  0.2728  3.4929
 8085TIP3    H245671   1.782   0.474  14.262  1.9627 -0.3462 -0.6116
 8086TIP3   OH245672   5.440   1.617  10.956  0.3378  0.2780  0.5263
 8086TIP3    H145673   5.353   1.639  10.988 -0.0891 -1.2645  0.4563
 8086TIP3    H245674   5.450   1.523  10.975  2.5011  0.7214  1.7548
 8087TIP3   OH245675   6.693   2.950  13.173 -0.7017  0.4956 -0.0966
 8087TIP3    H145676   6.742   2.871  13.193 -1.4700 -0.2055 -0.9365
 8087TIP3    H245677   6.617   2.948  13.232 -0.3736  0.9494  0.3456
 8088TIP3   OH245678   4.792   5.149   0.445  0.4892  0.4931 -0.3067
 8088TIP3    H145679   4.822   5.171   0.532 -0.7797  4.3207 -0.7527
 8088TIP3    H245680   4.867   5.107   0.403  0.9649 -1.7846  2.7023
 8089TIP3   OH245681   2.206   5.918   2.207  0.1973  0.5474 -0.1271
 8089TIP3    H145682   2.175   5.975   2.277  2.1477  0.3179  0.9438
 8089TIP3    H245683   2.228   5.978   2.135  1.9765  1.1564  0.8966
 8090TIP3   OH245684   1.949   1.301   1.185 -0.3824  0.6944 -0.0450
 8090TIP3    H145685   1.967   1.299   1.279 -1.2404 -1.2568  0.0893
 8090TIP3    H245686   1.865   1.347   1.178 -0.3931  0.7047  0.1409
 8091TIP3   OH245687   1.790   6.548  16.924 -0.1885 -1.4412 -0.1684
 8091TIP3    H145688   1.752   6.465  16.952  0.4262 -1.4047  0.7763
 8091TIP3    H245689   1.722   6.589  16.871 -0.6044 -2.4150 -0.3964
 8092TIP3   OH245690   0.316   3.132  14.052  0.5422 -0.5015  0.0369
 8092TIP3    H145691   0.303   3.063  14.116  2.2418  1.3593  2.4882
 8092TIP3    H245692   0.228   3.154  14.022 -0.1842 -2.1369  0.8973
 8093TIP3   OH245693   5.894   4.658  13.648 -0.3584 -0.2337  0.1823
 8093TIP3    H145694   5.871   4.586  13.590  0.1730  1.2970 -1.9688
 8093TIP3    H245695   5.813   4.708  13.658 -0.2073  0.0522 -0.0202
 8094TIP3   OH245696   6.573   2.811  11.862  0.5772 -0.5799 -0.4862
 8094TIP3    H145697   6.554   2.898  11.898 -1.5927 -0.3084 -2.1359
 8094TIP3    H245698   6.613   2.829  11.777  0.0507 -1.1653 -0.8627
 8095TIP3   OH245699   5.774   1.237   5.720 -0.6004 -0.3760 -0.0840
 8095TIP3    H145700   5.704   1.235   5.655  1.4810 -0.9171 -2.3859
 8095TIP3    H245701   5.785   1.146   5.747  0.2995 -0.5291 -0.9469
 8096TIP3   OH245702   3.848   3.977  14.825 -0.2112 -0.9874  0.0892
 8096TIP3    H145703   3.940   3.982  14.801 -0.5786 -2.0909 -1.6443
 8096TIP3    H245704   3.806   4.049  14.778  0.1425  1.1887  2.9548
 8097TIP3   OH245705   1.018   1.241   5.325  0.3933  0.4998 -0.2162
 8097TIP3    H145706   1.087   1.199   5.273  1.7034  0.6238  1.3641
 8097TIP3    H245707   1.004   1.181   5.398 -0.7451  0.7818 -0.2035
 8098TIP3   OH245708   3.700   5.638  14.019  0.1692  0.1747 -0.2625
 8098TIP3    H145709   3.781   5.591  13.998  0.7752  1.3095 -0.4861
 8098TIP3    H245710   3.700   5.713  13.961 -1.4044 -0.1782 -0.7643
 8099TIP3   OH245711   2.482   6.424  15.706 -0.2003  0.2901  0.6533
 8099TIP3    H145712   2.409   6.384  15.752 -0.3778 -0.1385  0.0053
 8099TIP3    H245713   2.442   6.474  15.635  0.0107  1.6777  1.4830
 8100TIP3   OH245714   1.574   6.383   6.023 -0.2258  0.5787 -0.0596
 8100TIP3    H145715   1.602   6.430   6.101  1.1954  2.5268 -1.6629
 8100TIP3    H245716   1.650   6.330   5.998 -0.3858  0.5713 -0.5397
 8101TIP3   OH245717   2.982   6.042   0.188 -0.6207  0.2767 -0.1372
 8101TIP3    H145718   2.894   6.008   0.201 -0.7925  0.6510 -0.3131
 8101TIP3    H245719   3.003   6.020   0.097 -0.9867  1.2033 -0.4581
 8102TIP3   OH245720   2.863   3.405  10.388 -0.4166  0.2757 -0.1372
 8102TIP3    H145721   2.857   3.360  10.303  0.1269  0.5490 -0.3193
 8102TIP3    H245722   2.793   3.366  10.440  0.8562 -1.7042  0.1347
 8103TIP3   OH245723   3.222   1.334   1.199 -0.5396  0.3551 -0.1814
 8103TIP3    H145724   3.173   1.317   1.280  1.0982  0.3049  0.8228
 8103TIP3    H245725   3.274   1.412   1.218  0.9735 -0.5183 -0.6578
 8104TIP3   OH245726   2.407   1.842   4.345 -0.7535  0.2621 -0.5160
 8104TIP3    H145727   2.344   1.781   4.307 -1.3700  0.7577 -0.2958
 8104TIP3    H245728   2.406   1.918   4.287 -2.1276  1.2606  0.7863
 8105TIP3   OH245729   1.387   0.575   5.134 -0.2741  0.0142  0.5511
 8105TIP3    H145730   1.293   0.581   5.122 -0.6337  1.2815  3.6919
 8105TIP3    H245731   1.402   0.489   5.174  0.2271 -1.2293 -2.1298
 8106TIP3   OH245732   4.572   2.117  15.426  0.6124  1.0356  0.2604
 8106TIP3    H145733   4.645   2.139  15.484  0.4640  0.7405  0.5616
 8106TIP3    H245734   4.553   2.198  15.379 -0.5105  1.7967  1.9925
 8107TIP3   OH245735   2.539   6.115   0.358  0.4930 -0.3312  0.2452
 8107TIP3    H145736   2.586   6.153   0.284  1.2439 -0.7182  0.5220
 8107TIP3    H245737   2.482   6.185   0.388 -0.2871 -0.3819 -1.1023
 8108TIP3   OH245738   6.779   2.518   1.990  0.1282 -0.5271 -0.4593
 8108TIP3    H145739   6.771   2.425   2.012  1.6196 -0.0281  2.5187
 8108TIP3    H245740   6.719   2.531   1.917 -1.8894 -3.3415  0.5941
 8109TIP3   OH245741   0.557   3.654   4.265 -0.1470 -0.1578 -0.8008
 8109TIP3    H145742   0.479   3.697   4.230 -1.3830 -0.5796  1.3636
 8109TIP3    H245743   0.574   3.698   4.349  0.0011 -2.2292  0.2931
 8110TIP3   OH245744   1.376   1.770   2.366  0.9234  0.0022 -0.1471
 8110TIP3    H145745   1.286   1.792   2.345  0.4031 -0.8425  1.1324
 8110TIP3    H245746   1.418   1.755   2.282 -0.0669  0.6147 -0.7589
 8111TIP3   OH245747   4.578   1.987   0.361  0.2565 -0.6585  0.0585
 8111TIP3    H145748   4.504   1.933   0.331  0.6181  0.5927 -3.3616
 8111TIP3    H245749   4.650   1.960   0.305  1.6605  0.1447  1.4625
 8112TIP3   OH245750   4.070   6.101   2.140  0.3568  0.0615  0.3572
 8112TIP3    H145751   3.995   6.149   2.105  1.0376 -0.2460 -1.5659
 8112TIP3    H245752   4.075   6.022   2.086 -0.2037 -1.7659  2.9006
 8113TIP3   OH245753   4.544   2.699  15.661 -0.2595  0.7407  0.3327
 8113TIP3    H145754   4.558   2.793  15.650  1.0470  0.4023 -1.0050
 8113TIP3    H245755   4.610   2.658  15.605 -0.7797 -0.9755  0.9516
 8114TIP3   OH245756   2.538   2.735   3.687  0.6385  0.3660 -0.2124
 8114TIP3    H145757   2.506   2.730   3.778 -0.2170  3.0373 -0.2981
 8114TIP3    H245758   2.551   2.644   3.661 -2.3947 -0.6522  1.4649
 8115TIP3   OH245759   4.999   1.134  13.075  0.1656  0.2545  0.1649
 8115TIP3    H145760   5.047   1.191  13.015 -2.1237 -2.2322 -4.3018
 8115TIP3    H245761   5.066   1.074  13.109  1.3867  1.0777 -0.7409
 8116TIP3   OH245762   1.580   4.254  14.529  0.4422  0.4688 -0.1084
 8116TIP3    H145763   1.528   4.197  14.586 -0.3480  0.3239 -0.9672
 8116TIP3    H245764   1.670   4.228  14.546  0.1095 -0.8035 -0.2167
 8117TIP3   OH245765   4.060   0.232   1.871  0.1522 -0.0525 -0.4453
 8117TIP3    H145766   3.981   0.207   1.919  0.5620  2.1698  1.5056
 8117TIP3    H245767   4.061   0.328   1.875  1.4245  0.0829 -2.9977
 8118TIP3   OH245768   6.729   5.903   5.323  0.1328  0.3818  0.5075
 8118TIP3    H145769   6.720   5.959   5.246  1.1933 -0.5624 -0.3136
 8118TIP3    H245770   6.744   5.815   5.288 -0.8093 -0.3100  1.7848
 8119TIP3   OH245771   3.584   3.743   5.403 -0.5781 -0.5946  0.0170
 8119TIP3    H145772   3.586   3.749   5.498  0.0635  0.0860 -0.0359
 8119TIP3    H245773   3.629   3.661   5.383  0.3916 -0.1147  0.2407
 8120TIP3   OH245774   3.498   1.479  15.499 -0.2594  0.4293 -0.2916
 8120TIP3    H145775   3.407   1.451  15.505 -0.1341 -0.1833 -1.1123
 8120TIP3    H245776   3.544   1.402  15.466  0.5946  0.6498  0.3873
 8121TIP3   OH245777   6.427   4.521  14.144  0.2348  0.0510 -0.2464
 8121TIP3    H145778   6.346   4.484  14.179  0.2219 -0.5269 -0.8780
 8121TIP3    H245779   6.405   4.613  14.126 -0.0885  0.0622  0.1937
 8122TIP3   OH245780   0.908   2.076  14.052 -0.0736  0.3936  0.5720
 8122TIP3    H145781   1.004   2.075  14.059  0.0567 -0.8803 -1.3424
 8122TIP3    H245782   0.886   2.169  14.044  1.1162  0.6022 -0.4473
 8123TIP3   OH245783   6.113   5.632  16.991  1.1637 -0.4353 -0.0867
 8123TIP3    H145784   6.137   5.704  17.049  1.0539 -0.3577 -0.1373
 8123TIP3    H245785   6.074   5.674  16.915  2.5494 -0.4746 -0.8229
 8124TIP3   OH245786   2.639   4.103  11.286 -0.5099 -0.4565 -0.0660
 8124TIP3    H145787   2.685   4.021  11.269 -0.9993 -0.7217 -0.1286
 8124TIP3    H245788   2.661   4.125  11.376 -0.6136 -0.8177  0.0498
 8125TIP3   OH245789   1.127   0.582   2.082  0.5842  0.1350 -0.1872
 8125TIP3    H145790   1.055   0.521   2.097  1.3175 -1.2825 -2.2635
 8125TIP3    H245791   1.087   0.668   2.086 -1.0329 -0.6001 -0.2989
 8126TIP3   OH245792   1.464   1.529   0.885  0.4074  0.1362  0.7670
 8126TIP3    H145793   1.559   1.521   0.879  0.3905  1.0038 -1.0763
 8126TIP3    H245794   1.450   1.621   0.907 -0.0315  0.3074 -0.2039
 8127TIP3   OH245795   1.332   3.341   5.410  0.0101 -0.2702 -0.5351
 8127TIP3    H145796   1.291   3.385   5.336 -2.9051 -0.8713  0.6626
 8127TIP3    H245797   1.403   3.290   5.371 -1.8674 -1.0986 -3.0065
 8128TIP3   OH245798   6.266   1.079   0.019  0.6133  0.0875 -0.8732
 8128TIP3    H145799   6.328   1.026  -0.031 -0.8948 -2.1254 -0.4982
 8128TIP3    H245800   6.300   1.077   0.109 -0.1624 -1.4262 -0.5991
 8129TIP3   OH245801   6.740   5.075   0.962  0.0051 -0.6655 -0.8644
 8129TIP3    H145802   6.647   5.080   0.983  0.0478  1.4065 -1.0433
 8129TIP3    H245803   6.744   5.088   0.867  0.5616  0.8591 -0.6519
 8130TIP3   OH245804   4.415   5.499   5.550 -0.0371  0.0870  0.3052
 8130TIP3    H145805   4.368   5.578   5.523 -0.2795 -0.2855 -0.3786
 8130TIP3    H245806   4.386   5.484   5.639 -1.3231 -0.2090 -0.1477
 8131TIP3   OH245807   6.622   2.280  16.068 -0.2947 -0.5514 -0.0155
 8131TIP3    H145808   6.595   2.322  15.987 -1.4665 -1.7901 -0.2963
 8131TIP3    H245809   6.551   2.301  16.130  1.9081  2.7311  1.5349
 8132TIP3   OH245810   3.545   2.470   2.450  0.2146 -0.1091  0.5757
 8132TIP3    H145811   3.502   2.385   2.438  1.1412 -0.6492  1.0161
 8132TIP3    H245812   3.476   2.527   2.484 -0.7179 -0.3581 -0.8435
 8133TIP3   OH245813   4.914   1.379   0.888 -0.5943 -0.2690  0.3951
 8133TIP3    H145814   4.884   1.424   0.810  1.3998 -1.0936 -0.8885
 8133TIP3    H245815   4.927   1.449   0.953  0.4927  0.7546 -0.9084
 8134TIP3   OH245816   4.119   4.357   3.527 -0.6105 -0.1778  0.7443
 8134TIP3    H145817   4.163   4.404   3.456 -1.8108  0.2329  0.2662
 8134TIP3    H245818   4.186   4.298   3.561 -0.0399 -0.4483 -0.7888
 8135TIP3   OH245819   3.353   2.078  17.028 -0.6667 -0.2867 -0.1745
 8135TIP3    H145820   3.320   2.138  17.095  0.4494  0.5918 -0.3932
 8135TIP3    H245821   3.405   2.014  17.077  0.3118  0.4689 -0.2017
 8136TIP3   OH245822   4.780   0.308  16.679 -0.5034 -0.2954  0.2643
 8136TIP3    H145823   4.697   0.337  16.716 -0.5448 -0.4063  0.2592
 8136TIP3    H245824   4.846   0.336  16.742 -0.2664  2.2338 -1.0171
 8137TIP3   OH245825   5.582   5.756  15.167  0.0406  0.3736 -0.0624
 8137TIP3    H145826   5.534   5.687  15.212  0.8287 -0.5792 -0.6776
 8137TIP3    H245827   5.621   5.807  15.239 -0.0174 -0.1980  0.3823
 8138TIP3   OH245828   1.177   1.544   2.041  0.3415  0.1498 -0.2731
 8138TIP3    H145829   1.142   1.480   2.104  0.7521 -0.0384 -0.2314
 8138TIP3    H245830   1.272   1.529   2.043  0.3605  0.2120 -0.8664
 8139TIP3   OH245831   1.447   5.353   1.492 -0.4829  0.2080  0.1219
 8139TIP3    H145832   1.471   5.389   1.578  0.7551 -2.7644  1.0935
 8139TIP3    H245833   1.531   5.334   1.450 -1.0824  1.5901 -1.7687
 8140TIP3   OH245834   5.168   3.003   2.909  0.3226 -0.2307 -0.2705
 8140TIP3    H145835   5.229   2.931   2.896  2.9430  1.6467  1.1375
 8140TIP3    H245836   5.123   2.983   2.991 -0.2250 -1.0964 -0.7765
 8141TIP3   OH245837   3.382   4.705  16.198  0.7099  0.3338 -0.1763
 8141TIP3    H145838   3.322   4.739  16.265 -0.3993  0.2780 -1.1431
 8141TIP3    H245839   3.352   4.616  16.182 -1.5605  1.6527 -3.6604
 8142TIP3   OH245840   6.130   5.969  15.597 -0.1372  0.0013  0.1431
 8142TIP3    H145841   6.211   5.923  15.574  0.2117 -0.1586  1.6244
 8142TIP3    H245842   6.158   6.039  15.656 -1.0007  0.3749  0.1201
 8143TIP3   OH245843   4.439   5.260   1.398 -0.0757  0.0926  0.3990
 8143TIP3    H145844   4.393   5.316   1.460 -0.6551 -0.0199  0.0823
 8143TIP3    H245845   4.459   5.180   1.448 -0.7191 -0.0812  0.3945
 8144TIP3   OH245846   5.371   6.730  12.762 -0.2651 -0.0877 -0.0670
 8144TIP3    H145847   5.451   6.677  12.757 -0.2031  0.0044 -0.0703
 8144TIP3    H245848   5.311   6.679  12.815  0.1405  0.2782  0.7495
 8145TIP3   OH245849   4.298   5.580  11.657 -0.1548  0.1123  0.3149
 8145TIP3    H145850   4.379   5.530  11.669 -0.4123 -0.4940 -0.4576
 8145TIP3    H245851   4.232   5.532  11.706 -0.0147  0.7228  1.1230
 8146TIP3   OH245852   3.259   4.906  14.878 -0.1280  0.5995  0.2907
 8146TIP3    H145853   3.228   4.996  14.869 -0.4755  0.5634  1.0482
 8146TIP3    H245854   3.284   4.898  14.970  1.4558  0.4064 -0.1448
 8147TIP3   OH245855   3.801   2.147   4.493 -0.2465 -0.1683 -0.0032
 8147TIP3    H145856   3.732   2.186   4.546 -0.0274  0.9209 -0.5051
 8147TIP3    H245857   3.771   2.159   4.402  0.3116 -0.2436 -0.2015
 8148TIP3   OH245858   3.216   0.021  13.971  0.5306 -0.1312  0.2728
 8148TIP3    H145859   3.268   0.101  13.969  3.1150 -1.8008 -2.4587
 8148TIP3    H245860   3.183   0.011  13.882  0.1003 -2.0217  0.6229
 8149TIP3   OH245861   5.371   2.507  11.621  0.2398 -0.0387  0.1484
 8149TIP3    H145862   5.337   2.422  11.592  1.2409  0.0051 -1.2259
 8149TIP3    H245863   5.420   2.487  11.700  1.4385 -0.9448 -0.8038
 8150TIP3   OH245864   1.691   4.984  11.403 -0.0541 -0.9241  0.2170
 8150TIP3    H145865   1.607   4.961  11.363 -0.1737 -0.7238  0.3520
 8150TIP3    H245866   1.749   5.004  11.329 -0.2054 -0.7899  0.1364
 8151TIP3   OH245867   2.501   4.056   3.258 -0.0209 -0.1746 -0.1467
 8151TIP3    H145868   2.525   3.964   3.246  0.5984  0.1417 -1.3780
 8151TIP3    H245869   2.483   4.063   3.352 -2.2143 -2.0442 -0.3819
 8152TIP3   OH245870   5.851   5.673   4.279  0.2787  0.2122  0.1796
 8152TIP3    H145871   5.900   5.739   4.230 -0.8761  1.4552  0.6820
 8152TIP3    H245872   5.771   5.659   4.229 -1.5333  2.4641  2.2921
 8153TIP3   OH245873   1.771   3.155  15.512  0.1209  0.3402 -0.3907
 8153TIP3    H145874   1.780   3.109  15.429 -1.6387 -0.4921 -0.1566
 8153TIP3    H245875   1.775   3.086  15.578 -4.5105  0.1309 -0.1283
 8154TIP3   OH245876   5.749   2.001   4.567  1.0202  0.5534 -0.2089
 8154TIP3    H145877   5.668   1.986   4.518  0.8509 -0.1113  0.2676
 8154TIP3    H245878   5.812   2.029   4.501  0.6471  0.1980 -0.7205
 8155TIP3   OH245879   3.610   6.571   4.341  0.0642 -0.1386  0.0333
 8155TIP3    H145880   3.615   6.647   4.400  1.9439  0.4419 -0.8161
 8155TIP3    H245881   3.677   6.511   4.375 -0.8900 -1.0872  0.2419
 8156TIP3   OH245882   4.636   0.736   2.222 -0.1726 -0.4347  0.0613
 8156TIP3    H145883   4.681   0.692   2.294 -0.7241  1.3608  1.5327
 8156TIP3    H245884   4.543   0.721   2.239 -0.2906 -0.4968 -0.6158
 8157TIP3   OH245885   5.565   2.561  12.636 -0.3644  0.3860  0.2095
 8157TIP3    H145886   5.480   2.542  12.676  1.7415 -0.3059  4.6610
 8157TIP3    H245887   5.604   2.475  12.621 -0.1404  0.7163 -1.1305
 8158TIP3   OH245888   1.456   4.658  14.993  0.0033  0.7271  0.0962
 8158TIP3    H145889   1.455   4.697  15.081  1.8339 -0.3972  0.6449
 8158TIP3    H245890   1.488   4.727  14.936  0.1264  1.0426  0.5450
 8159TIP3   OH245891   5.390   2.392  14.160 -0.0430 -0.3710 -0.2767
 8159TIP3    H145892   5.385   2.468  14.103 -1.4259  0.8032  1.3521
 8159TIP3    H245893   5.299   2.369  14.178  0.3651 -0.6105  1.5747
 8160TIP3   OH245894   2.895   4.024   5.642  0.2037 -0.1840 -0.7147
 8160TIP3    H145895   2.923   4.097   5.698  1.1183 -2.5084  2.0231
 8160TIP3    H245896   2.803   4.011   5.665  0.3762 -0.6595 -0.2816
 8161TIP3   OH245897   0.408   6.727  14.948 -0.4071 -0.2484  0.1250
 8161TIP3    H145898   0.447   6.641  14.933 -1.8664 -1.0412  0.8396
 8161TIP3    H245899   0.477   6.776  14.994  0.8094 -0.6701 -1.1986
 8162TIP3   OH245900   0.084   3.443  16.003 -0.1675 -0.2163 -0.5281
 8162TIP3    H145901   0.149   3.506  15.972 -0.2460 -1.1652 -2.7136
 8162TIP3    H245902  -0.000   3.484  15.982 -0.2186 -1.0227 -1.9467
 8163TIP3   OH245903   3.117   1.064  12.751  0.0534 -0.2021  0.2804
 8163TIP3    H145904   3.151   1.100  12.669 -0.0558  0.9717  0.7354
 8163TIP3    H245905   3.027   1.037  12.730  0.4833 -1.1861 -0.3316
 8164TIP3   OH245906   2.870   0.922  12.749 -0.2957  0.2072 -0.4676
 8164TIP3    H145907   2.856   0.893  12.839  1.0000 -0.8335 -0.5996
 8164TIP3    H245908   2.783   0.951  12.721 -1.0066 -0.7471  0.6578
 8165TIP3   OH245909   5.844   5.281   5.189  0.4144 -0.1006 -0.1428
 8165TIP3    H145910   5.834   5.367   5.147 -0.9330 -1.3624 -2.5342
 8165TIP3    H245911   5.767   5.274   5.246  0.4167  0.2067 -0.1003
 8166TIP3   OH245912   1.855   4.981   3.347  0.3736 -0.3600  0.6627
 8166TIP3    H145913   1.902   4.899   3.366 -0.2908 -0.3585  2.3954
 8166TIP3    H245914   1.841   5.020   3.433 -0.8960  0.7032 -0.0298
 8167TIP3   OH245915   1.095   2.050  11.144 -0.0292  0.2250 -0.0904
 8167TIP3    H145916   1.060   2.044  11.233  1.4259  0.1448  0.4867
 8167TIP3    H245917   1.065   1.970  11.101  2.2177 -1.5199  1.4266
 8168TIP3   OH245918   6.382   3.844  15.737 -0.4462 -0.1221 -0.0498
 8168TIP3    H145919   6.415   3.762  15.774  0.8814 -0.6320 -2.2506
 8168TIP3    H245920   6.460   3.888  15.703 -1.3147  1.4587 -0.0116
 8169TIP3   OH245921   5.261   2.025   5.626  0.0259 -0.0742 -0.4769
 8169TIP3    H145922   5.184   2.082   5.632 -0.6899 -0.8961 -1.7394
 8169TIP3    H245923   5.272   1.990   5.714 -0.2161  1.1221  0.0359
 8170TIP3   OH245924   5.851   0.496  12.826  0.1310 -0.4506  0.0121
 8170TIP3    H145925   5.833   0.463  12.913 -0.6442 -0.3315 -0.0956
 8170TIP3    H245926   5.912   0.433  12.787 -1.3612 -1.7704 -0.2060
 8171TIP3   OH245927   6.665   4.036  12.882  0.6095 -0.5642  0.3410
 8171TIP3    H145928   6.589   4.060  12.829 -0.6193 -2.1591  1.3530
 8171TIP3    H245929   6.717   4.116  12.887 -1.4327  0.7775  0.3984
 8172TIP3   OH245930   3.879   2.189   0.545 -0.1292  0.5105 -0.0226
 8172TIP3    H145931   3.972   2.206   0.560 -0.2639  0.5315  0.8195
 8172TIP3    H245932   3.834   2.255   0.598 -0.6271  0.7644 -0.7450
 8173TIP3   OH245933   4.015   6.661  15.310 -0.2929 -0.3482  0.0821
 8173TIP3    H145934   3.973   6.656  15.396  0.0817 -2.1203  0.1870
 8173TIP3    H245935   3.942   6.665  15.248 -0.5971 -0.8748  0.3955
 8174TIP3   OH245936   0.131   5.181  11.801 -0.6875 -0.3053  0.2024
 8174TIP3    H145937   0.129   5.087  11.816  1.1181  0.1987  4.3519
 8174TIP3    H245938   0.039   5.208  11.799 -1.3533 -2.4117 -3.8694
 8175TIP3   OH245939   3.425   4.432   2.234  0.4752 -0.0304  0.0124
 8175TIP3    H145940   3.355   4.383   2.278 -0.7768  1.8909  0.2468
 8175TIP3    H245941   3.390   4.450   2.147  0.7287  0.7886  0.0730
 8176TIP3   OH245942   6.303   3.676   5.127  0.2004 -0.1795 -0.0406
 8176TIP3    H145943   6.209   3.659   5.140 -0.0866  1.2879 -0.0986
 8176TIP3    H245944   6.342   3.589   5.117 -1.2477 -0.7827 -0.6208
 8177TIP3   OH245945   6.481   1.322  17.152  1.3367  0.0904  0.8601
 8177TIP3    H145946   6.449   1.232  17.159 -1.0987  0.8976  0.7718
 8177TIP3    H245947   6.455   1.350  17.064  1.9062  0.9226  0.9554
 8178TIP3   OH245948   5.937   4.779   5.950  0.4588  0.4033  0.0413
 8178TIP3    H145949   6.011   4.776   6.011  0.9577 -0.2647 -0.5894
 8178TIP3    H245950   5.881   4.849   5.984  0.7845  0.1066  1.2037
 8179TIP3   OH245951   1.237   0.000  14.599 -0.1843 -0.5228 -0.0703
 8179TIP3    H145952   1.305   0.029  14.660 -1.9244 -2.9851  3.2304
 8179TIP3    H245953   1.156   0.040  14.632 -1.1862 -2.0118 -0.6343
 8180TIP3   OH245954   5.794   2.891  11.493 -0.0689 -0.1979 -0.1131
 8180TIP3    H145955   5.748   2.923  11.416 -2.5962 -0.3579  1.2653
 8180TIP3    H245956   5.824   2.803  11.469  1.5647  0.7844 -1.8048
 8181TIP3   OH245957   6.669   2.273   1.665 -0.0134 -0.2637  0.1528
 8181TIP3    H145958   6.578   2.245   1.659 -0.0915  0.2629 -1.2272
 8181TIP3    H245959   6.702   2.228   1.743 -0.9138 -1.9942 -0.4308
 8182TIP3   OH245960   4.394   5.707   0.069 -0.0294  0.5989 -0.4271
 8182TIP3    H145961   4.451   5.714   0.146  0.5994  1.5903 -0.9685
 8182TIP3    H245962   4.335   5.634   0.089  0.9559  0.0288  0.4580
 8183TIP3   OH245963   4.053   3.732   3.249 -1.3032 -0.6232 -0.2218
 8183TIP3    H145964   4.035   3.674   3.323 -0.7157 -0.3268  0.1614
 8183TIP3    H245965   4.054   3.675   3.173 -4.1334 -0.6031 -0.3145
 8184TIP3   OH245966   4.162   1.408  14.164  0.5759  0.0711  0.9497
 8184TIP3    H145967   4.168   1.415  14.069  2.0568 -1.9348  0.8719
 8184TIP3    H245968   4.210   1.483  14.197  1.7749 -0.3165  0.1066
 8185TIP3   OH245969   2.502   0.758  12.419 -0.0977 -0.5725 -0.0696
 8185TIP3    H145970   2.451   0.829  12.380 -1.5135 -0.8288  1.2927
 8185TIP3    H245971   2.557   0.726  12.347 -1.6102 -0.0751 -1.4690
 8186TIP3   OH245972   2.633   1.072  11.287 -0.0967  0.0736  0.8239
 8186TIP3    H145973   2.545   1.035  11.291 -0.0731 -0.1495 -0.6075
 8186TIP3    H245974   2.638   1.131  11.363 -1.0095 -0.9125  1.6701
 8187TIP3   OH245975   3.576   0.539  12.726 -0.8774 -0.0498 -0.6404
 8187TIP3    H145976   3.482   0.554  12.712 -0.1862  2.7194 -2.7875
 8187TIP3    H245977   3.597   0.587  12.806 -1.2338 -0.4862 -0.2818
 8188TIP3   OH245978   4.636   2.592  16.657 -0.0461  0.5456  0.4552
 8188TIP3    H145979   4.705   2.658  16.663 -1.5710  2.0983  1.7441
 8188TIP3    H245980   4.599   2.605  16.570  0.6327  0.3972  0.1451
 8189TIP3   OH245981   5.225   4.203  12.927  0.2931  0.0268 -0.2725
 8189TIP3    H145982   5.135   4.208  12.959  0.3633  1.4369 -0.2941
 8189TIP3    H245983   5.229   4.267  12.856  1.3469  0.0228 -0.2207
 8190TIP3   OH245984   2.071   6.174  16.904 -0.5476 -0.2304  0.4937
 8190TIP3    H145985   2.131   6.173  16.979 -1.1199  0.4405  0.9573
 8190TIP3    H245986   2.054   6.267  16.888 -0.4353 -0.3743 -0.4598
 8191TIP3   OH245987   3.007   0.040   4.283  0.9633  0.7215  0.1665
 8191TIP3    H145988   3.053   0.005   4.360 -0.2357  0.5345  0.8003
 8191TIP3    H245989   2.925  -0.009   4.279  0.0088  2.2730  0.0935
 8192TIP3   OH245990   4.586   0.120   4.060  0.6710 -1.3597  0.1476
 8192TIP3    H145991   4.639   0.196   4.082 -0.7831 -0.5585  0.9426
 8192TIP3    H245992   4.634   0.045   4.097  2.9127 -1.0363 -2.0159
 8193TIP3   OH245993   4.317   1.840   1.590 -0.2109 -0.6995 -0.5064
 8193TIP3    H145994   4.323   1.930   1.622  0.9483 -1.2366  0.8389
 8193TIP3    H245995   4.223   1.821   1.590 -0.4220  0.3260 -0.2732
 8194TIP3   OH245996   3.161   5.123   5.247 -0.1654  0.3164 -0.4704
 8194TIP3    H145997   3.186   5.032   5.239 -0.3959  0.3406 -1.5819
 8194TIP3    H245998   3.243   5.172   5.241  0.2422  0.0987  2.4492
 8195TIP3   OH245999   0.155   1.512   2.339 -0.2005 -0.0062 -0.1358
 8195TIP3    H146000   0.079   1.485   2.286  0.1467  1.3999 -1.3958
 8195TIP3    H246001   0.117   1.545   2.420 -0.9807  0.9251 -0.8570
 8196TIP3   OH246002   1.075   2.635   2.941  0.1416 -0.2520 -0.3090
 8196TIP3    H146003   1.057   2.543   2.921 -2.9072  0.1340  0.4802
 8196TIP3    H246004   0.994   2.681   2.919  1.4532  2.2049 -0.2319
 8197TIP3   OH246005   2.741   3.056  15.620 -0.2055  0.3586  0.0993
 8197TIP3    H146006   2.836   3.048  15.609  0.1262  0.5892  2.4977
 8197TIP3    H246007   2.705   3.000  15.551  1.6707 -0.0164 -0.6352
 8198TIP3   OH246008   5.062   5.253  13.745 -0.4295  0.1512 -0.4101
 8198TIP3    H146009   5.088   5.323  13.805  1.6849  0.3901 -1.5810
 8198TIP3    H246010   4.990   5.291  13.694 -1.6294  0.2583  1.3125
 8199TIP3   OH246011   4.113   4.527   5.837 -0.2759 -0.2358 -0.0499
 8199TIP3    H146012   4.064   4.546   5.757 -2.4218 -0.7093  1.1045
 8199TIP3    H246013   4.134   4.613   5.873 -0.6348 -0.0351 -0.3171
 8200TIP3   OH246014   4.690   5.477  13.070  0.3267  0.8539 -0.7310
 8200TIP3    H146015   4.681   5.499  13.163 -1.4009  0.9332 -0.8957
 8200TIP3    H246016   4.731   5.390  13.070 -1.7005 -0.1493  0.2028
 8201TIP3   OH246017   1.623   4.293  12.902 -0.0369 -0.2565  0.2778
 8201TIP3    H146018   1.609   4.198  12.901 -0.9430 -0.1235  0.4858
 8201TIP3    H246019   1.621   4.319  12.810  1.1775 -0.5766  0.1500
 8202TIP3   OH246020   5.953   3.708   2.325 -0.0901 -0.2177 -0.2523
 8202TIP3    H146021   5.881   3.747   2.275 -1.5058  0.5298  2.2962
 8202TIP3    H246022   5.922   3.620   2.346  0.6007 -0.6106 -0.8468
 8203TIP3   OH246023   6.509   2.829   3.871  0.1448 -0.2224  0.0282
 8203TIP3    H146024   6.480   2.739   3.855  0.8372 -0.6974  1.3979
 8203TIP3    H246025   6.433   2.883   3.848  0.2845 -1.0147 -2.4452
 8204TIP3   OH246026   2.774   4.664   2.084 -0.1035 -0.4536  0.5557
 8204TIP3    H146027   2.684   4.648   2.112 -0.4759  0.8818  0.1573
 8204TIP3    H246028   2.804   4.737   2.139  0.5699 -0.5607  0.3411
 8205TIP3   OH246029   0.123   5.641  12.455 -0.1636  0.5420 -0.2941
 8205TIP3    H146030   0.065   5.565  12.459  0.7937 -0.3036 -2.2037
 8205TIP3    H246031   0.116   5.672  12.365  0.2732  2.1008  0.1848
 8206TIP3   OH246032   3.383   1.364   5.488 -0.5778  0.6840 -0.1836
 8206TIP3    H146033   3.298   1.407   5.473 -0.4744  1.4810  1.3776
 8206TIP3    H246034   3.419   1.409   5.565  0.3925 -0.9599  0.3432
 8207TIP3   OH246035   5.626   3.383   2.648  0.2226 -0.0764 -0.1764
 8207TIP3    H146036   5.628   3.451   2.581  2.1213  2.0970  2.0124
 8207TIP3    H246037   5.535   3.354   2.650 -0.1439  0.7299 -2.7338
 8208TIP3   OH246038   1.573   2.965   4.519  0.7406 -0.4172 -0.0229
 8208TIP3    H146039   1.552   3.058   4.518  1.2803 -0.2849  0.5307
 8208TIP3    H246040   1.490   2.921   4.501  0.2383  0.1406  0.8987
 8209TIP3   OH246041   4.158   1.208  16.994  0.3268 -0.2034  0.2251
 8209TIP3    H146042   4.177   1.118  16.968 -1.3242  0.2124 -2.6277
 8209TIP3    H246043   4.212   1.261  16.936 -0.4325  0.6933  0.3368
 8210TIP3   OH246044   0.171   6.237   2.155  0.0204 -0.0632  0.1719
 8210TIP3    H146045   0.164   6.269   2.065 -0.6823  1.1128  0.6418
 8210TIP3    H246046   0.265   6.226   2.169  0.1671  0.2947 -0.5055
 8211TIP3   OH246047   2.220   3.090  11.865 -0.2150 -0.5674  0.1542
 8211TIP3    H146048   2.169   3.166  11.838 -0.1025 -0.4062  0.3879
 8211TIP3    H246049   2.295   3.088  11.804 -0.5344 -0.8459 -0.2317
 8212TIP3   OH246050   3.906   2.182   5.510 -0.1637 -0.6846 -0.2216
 8212TIP3    H146051   3.914   2.088   5.529 -1.0991 -0.5942  0.6709
 8212TIP3    H246052   3.991   2.219   5.535  0.0641 -1.2258 -0.1757
 8213TIP3   OH246053   5.877   0.057   2.840 -0.4686  0.4199  0.6791
 8213TIP3    H146054   5.894   0.069   2.747  0.1760  0.3023  0.7762
 8213TIP3    H246055   5.782   0.050   2.847 -0.3801 -2.6335 -0.3413
 8214TIP3   OH246056   1.196   2.506   0.093  0.0852  0.2137  0.2620
 8214TIP3    H146057   1.282   2.521   0.055  0.0643 -0.6937 -0.1619
 8214TIP3    H246058   1.135   2.551   0.034  0.2665  0.8094  0.5325
 8215TIP3   OH246059   3.096   3.284   3.089  0.0023 -0.4711  0.1448
 8215TIP3    H146060   3.187   3.262   3.105  0.4957  0.7699 -0.8567
 8215TIP3    H246061   3.089   3.290   2.994 -1.2007 -0.8432  0.1921
 8216TIP3   OH246062   4.413   1.174   4.864  0.1949 -0.0732 -0.3107
 8216TIP3    H146063   4.464   1.252   4.840 -1.1638  0.4541 -1.5476
 8216TIP3    H246064   4.347   1.166   4.795 -0.6367 -1.4497  0.6188
 8217TIP3   OH246065   5.597   1.970   0.455  0.6664 -0.0278  0.5232
 8217TIP3    H146066   5.651   1.948   0.379 -0.5764 -0.4422 -0.2516
 8217TIP3    H246067   5.643   1.929   0.529  2.4388  1.2508  0.1676
 8218TIP3   OH246068   3.413   6.299   1.371  0.3591  0.4592  0.1460
 8218TIP3    H146069   3.368   6.344   1.300  1.2924  3.0905  1.1706
 8218TIP3    H246070   3.351   6.299   1.443  1.3209  2.6138  1.0241
 8219TIP3   OH246071   5.515   6.055   5.289 -0.3497 -0.0648 -0.4213
 8219TIP3    H146072   5.441   6.108   5.318  0.4108  2.0056 -2.1581
 8219TIP3    H246073   5.589   6.116   5.289  0.9274 -1.5940 -0.7101
 8220TIP3   OH246074   2.345   0.896  10.773  0.4570  0.2217  0.2776
 8220TIP3    H146075   2.277   0.960  10.753  0.6609  0.9152  1.7358
 8220TIP3    H246076   2.427   0.940  10.751  0.5866  0.4064  1.1122
 8221TIP3   OH246077   0.838   6.046   3.860  0.2289  1.0449  0.9271
 8221TIP3    H146078   0.847   6.036   3.954 -0.7763 -2.8378  0.6926
 8221TIP3    H246079   0.756   6.093   3.848  0.1249  1.1317  1.9819
 8222TIP3   OH246080   3.607   6.412  15.152  0.1812  0.1759 -0.6248
 8222TIP3    H146081   3.539   6.363  15.198  1.1031 -1.3743 -0.8833
 8222TIP3    H246082   3.560   6.483  15.109 -1.1152 -0.1803  0.1687
 8223TIP3   OH246083   1.789   1.412   0.662  0.4252  0.5531 -0.3037
 8223TIP3    H146084   1.788   1.451   0.574  1.0058  1.2700  0.0005
 8223TIP3    H246085   1.807   1.486   0.720  1.0874 -0.1042  0.3285
 8224TIP3   OH246086   0.595   3.149   3.918 -0.1205  0.0880  0.3081
 8224TIP3    H146087   0.640   3.093   3.981  0.3868  1.8442  1.5626
 8224TIP3    H246088   0.538   3.204   3.972 -0.2741  1.0807 -0.8406
 8225TIP3   OH246089   6.305   3.801  12.667  0.1408 -0.5771  0.0576
 8225TIP3    H146090   6.340   3.713  12.684  1.1074 -0.5942 -1.8915
 8225TIP3    H246091   6.306   3.844  12.752  0.3562 -2.2026  0.9068
 8226TIP3   OH246092   5.548   2.086   1.567  0.0670  0.4135 -0.1458
 8226TIP3    H146093   5.608   2.064   1.638 -0.6992 -2.8476 -0.4109
 8226TIP3    H246094   5.470   2.120   1.611  0.2016 -0.0856  0.4888
 8227TIP3   OH246095   5.580   5.524  15.560 -0.7506  0.3640  0.7634
 8227TIP3    H146096   5.647   5.520  15.492  0.1207  1.9378  1.4971
 8227TIP3    H246097   5.553   5.433  15.572  0.9149 -0.2421  0.1137
 8228TIP3   OH246098   0.995   2.855   2.686  0.0133 -0.1340  0.1168
 8228TIP3    H146099   0.941   2.797   2.634 -2.0268  1.6378  0.1867
 8228TIP3    H246100   0.978   2.830   2.777 -0.3056  0.1071  0.1220
 8229TIP3   OH246101   4.573   4.511   2.744 -0.1380  0.2502 -0.9253
 8229TIP3    H146102   4.618   4.446   2.691  0.6012 -0.7217  0.8681
 8229TIP3    H246103   4.642   4.568   2.778 -0.4530 -0.0072  0.1706
 8230TIP3   OH246104   3.301   5.302  17.126  0.4469  0.2360 -0.4101
 8230TIP3    H146105   3.275   5.282  17.216  2.2423  0.6052  0.2220
 8230TIP3    H246106   3.228   5.352  17.090 -0.3172  0.0393  0.8244
 8231TIP3   OH246107   1.243   2.459   4.144 -0.6898  0.6240 -0.1572
 8231TIP3    H146108   1.329   2.497   4.124 -1.3441  1.0643 -2.2837
 8231TIP3    H246109   1.220   2.409   4.065 -2.4173  0.6024  0.3432
 8232TIP3   OH246110   3.452   2.574   3.901 -0.6348  0.3785 -0.1288
 8232TIP3    H146111   3.386   2.526   3.851 -0.7166  1.8501 -1.4889
 8232TIP3    H246112   3.533   2.560   3.852 -0.2923  0.0527  0.5339
 8233TIP3   OH246113   4.417   1.166   5.857  0.1902 -0.2890 -0.2142
 8233TIP3    H146114   4.418   1.105   5.784 -2.4100 -1.1589  0.4281
 8233TIP3    H246115   4.404   1.110   5.934  0.5366  0.8309  0.6638
 8234TIP3   OH246116   4.501   0.914   1.817  0.0085 -0.6560  0.6015
 8234TIP3    H146117   4.414   0.927   1.854 -0.2564 -0.5707 -0.0463
 8234TIP3    H246118   4.560   0.920   1.892 -0.5328 -0.6244  1.0305
 8235TIP3   OH246119   2.430   6.052  14.149  0.3584  0.0267 -0.1582
 8235TIP3    H146120   2.514   6.010  14.129  1.9120  1.8890  2.1561
 8235TIP3    H246121   2.408   6.100  14.070  1.2337 -0.8675 -0.9601
 8236TIP3   OH246122   5.624   4.864  13.612 -0.7299  0.1608 -0.1510
 8236TIP3    H146123   5.557   4.913  13.659 -1.3116 -0.6014 -0.1884
 8236TIP3    H246124   5.576   4.805  13.554 -0.0344 -0.6510  0.0869
 8237TIP3   OH246125   0.707   6.444  15.753 -0.6734 -0.1664 -0.0824
 8237TIP3    H146126   0.689   6.354  15.727  0.3129  0.2395 -2.2612
 8237TIP3    H246127   0.792   6.464  15.714 -1.3814  2.0575 -0.5876
 8238TIP3   OH246128   0.263   4.022  16.362  0.1282  0.0090 -0.6590
 8238TIP3    H146129   0.311   4.097  16.397  0.8947  0.6024 -2.8968
 8238TIP3    H246130   0.206   4.059  16.294 -3.2666 -0.7482  1.6481
 8239TIP3   OH246131   5.324   0.111  16.085 -0.0427 -0.3155  0.0331
 8239TIP3    H146132   5.279   0.160  16.154 -1.7206 -1.1556 -0.4306
 8239TIP3    H246133   5.406   0.083  16.126  1.0104  2.9220  0.2547
 8240TIP3   OH246134   6.500   1.855  10.766  0.3983 -0.0112 -0.6612
 8240TIP3    H146135   6.430   1.823  10.709  0.4939  0.0984 -0.8407
 8240TIP3    H246136   6.516   1.944  10.737  0.0798  0.2254 -0.1079
 8241TIP3   OH246137   0.394   1.119  14.969 -0.8307 -0.4132 -0.1028
 8241TIP3    H146138   0.387   1.024  14.977 -0.3089 -0.3238  1.7673
 8241TIP3    H246139   0.487   1.135  14.952 -0.6514 -0.1788  1.0285
 8242TIP3   OH246140   2.173   5.255  11.700  0.0453  0.4145 -0.1349
 8242TIP3    H146141   2.256   5.280  11.660  0.1557  0.1330 -0.0866
 8242TIP3    H246142   2.118   5.333  11.694  1.0903  1.3562  1.9101
 8243TIP3   OH246143   5.926   0.187  16.420 -0.0466 -0.7893  0.2012
 8243TIP3    H146144   5.931   0.196  16.515 -0.4453  0.9157  0.0771
 8243TIP3    H246145   5.845   0.233  16.396 -0.0759 -1.4241 -0.9278
 8244TIP3   OH246146   4.401   6.570   1.522 -0.4329 -0.0081 -0.5508
 8244TIP3    H146147   4.391   6.662   1.547 -2.0242 -0.1643 -0.5599
 8244TIP3    H246148   4.344   6.522   1.582  0.9456 -1.0814 -0.0727
 8245TIP3   OH246149   4.592   0.689  14.265 -0.2618 -0.0679  0.2548
 8245TIP3    H146150   4.662   0.751  14.247 -0.9530  1.0677  1.4200
 8245TIP3    H246151   4.528   0.703  14.195 -0.3432  0.4463  0.4286
 8246TIP3   OH246152   5.332   3.857  13.546  0.0326  0.1455 -0.1557
 8246TIP3    H146153   5.242   3.846  13.518 -0.0199  1.3795 -0.5098
 8246TIP3    H246154   5.339   3.805  13.626 -0.8208 -0.4287 -0.4546
 8247TIP3   OH246155   0.292   3.086  12.746  0.2633  0.2725  0.0959
 8247TIP3    H146156   0.208   3.062  12.706  1.1158 -0.0576 -1.5511
 8247TIP3    H246157   0.299   3.180  12.733  0.2563  0.2631  0.0224
 8248TIP3   OH246158   0.573   5.153  14.698 -0.4016  0.5339  0.8009
 8248TIP3    H146159   0.543   5.232  14.654 -0.0996 -0.1212 -0.5887
 8248TIP3    H246160   0.492   5.105  14.717 -0.4260  0.0567 -0.4936
 8249TIP3   OH246161   4.874   4.826   0.050 -0.3117  0.2544 -0.0151
 8249TIP3    H146162   4.824   4.815   0.131 -2.0082 -0.2526 -1.0981
 8249TIP3    H246163   4.966   4.827   0.078 -0.8699 -0.1022  1.8842
 8250TIP3   OH246164   5.132   5.518  14.699 -0.5379  0.0745  0.2254
 8250TIP3    H146165   5.116   5.488  14.609 -1.5865 -0.6846  0.6539
 8250TIP3    H246166   5.057   5.573  14.721 -0.0818  0.5980  0.4955
 8251TIP3   OH246167   2.443   4.408   6.473  0.1367  0.2978 -0.6718
 8251TIP3    H146168   2.496   4.487   6.483  0.9826 -0.3975  0.5587
 8251TIP3    H246169   2.423   4.382   6.563 -0.1026 -0.9041 -1.0680
 8252TIP3   OH246170   1.076   3.972  14.346 -0.0849  0.0209  0.0965
 8252TIP3    H146171   1.059   3.949  14.255  0.8996 -3.1172  0.6336
 8252TIP3    H246172   1.034   3.903  14.397  1.4371  0.3728  1.9261
 8253TIP3   OH246173   2.582   6.062  12.337 -0.3576  0.0848 -0.5399
 8253TIP3    H146174   2.591   6.129  12.270 -2.1178  2.2190  1.2636
 8253TIP3    H246175   2.488   6.058  12.355 -0.0079 -1.0673  1.1762
 8254TIP3   OH246176   4.111   2.700   5.100 -0.5274  0.2416 -0.3583
 8254TIP3    H146177   4.149   2.782   5.133 -1.9860  1.4841 -1.6545
 8254TIP3    H246178   4.058   2.668   5.173  2.2476 -1.0646  1.1563
 8255TIP3   OH246179   1.681   5.560   3.543 -0.1919 -0.1957 -0.2995
 8255TIP3    H146180   1.733   5.639   3.560  0.4417 -0.5933 -0.3650
 8255TIP3    H246181   1.728   5.517   3.471 -0.4112 -0.7480 -0.1099
 8256TIP3   OH246182   0.394   6.287   0.187 -0.0559 -0.2458  0.1212
 8256TIP3    H146183   0.373   6.376   0.216  1.4941  0.0437  0.3789
 8256TIP3    H246184   0.465   6.259   0.244 -0.1195 -1.4307 -0.3656
 8257TIP3   OH246185   1.803   5.109  13.125 -0.0503 -0.2291  0.2045
 8257TIP3    H146186   1.862   5.162  13.178 -1.9556  1.3078  0.8339
 8257TIP3    H246187   1.860   5.046  13.081  1.8517  0.1478  2.0712
 8258TIP3   OH246188   4.536   5.273   5.384  0.3716 -0.0948 -0.0202
 8258TIP3    H146189   4.494   5.329   5.449 -0.0855 -1.4375  0.8575
 8258TIP3    H246190   4.488   5.190   5.389 -0.5970  0.2073 -3.0477
 8259TIP3   OH246191   3.552   4.878  12.532 -0.4335  0.2685 -0.0289
 8259TIP3    H146192   3.465   4.848  12.555 -0.0429 -0.1715  0.8931
 8259TIP3    H246193   3.569   4.838  12.447 -0.7345 -0.4576  0.2511
 8260TIP3   OH246194   0.270   3.342  12.677 -0.4246 -0.1072 -0.0354
 8260TIP3    H146195   0.277   3.362  12.583  1.0537  1.9469  0.4986
 8260TIP3    H246196   0.240   3.423  12.717 -0.8285 -0.9125  1.3350
 8261TIP3   OH246197   4.896   4.015  16.949  0.3171  0.5730  0.1823
 8261TIP3    H146198   4.869   4.101  16.982 -0.4014  0.5327 -0.3013
 8261TIP3    H246199   4.817   3.962  16.951 -0.0629  0.9172 -2.7291
 8262TIP3   OH246200   2.278   0.921   2.453 -0.1208 -0.2214  0.4313
 8262TIP3    H146201   2.249   0.878   2.373 -1.6897 -2.1433  1.9791
 8262TIP3    H246202   2.353   0.869   2.483 -1.6268 -1.5443  1.9707
 8263TIP3   OH246203   3.122   1.531  14.835 -0.1935 -0.0023 -0.5943
 8263TIP3    H146204   3.193   1.496  14.780 -1.3801 -1.9607 -0.9547
 8263TIP3    H246205   3.066   1.455  14.851 -1.2011  1.1103  1.2626
 8264TIP3   OH246206   0.823   4.145  14.363 -0.2238  0.4784 -0.0158
 8264TIP3    H146207   0.885   4.094  14.310 -1.7860 -2.4908  0.8582
 8264TIP3    H246208   0.871   4.165  14.443 -0.2149 -1.5709  0.5380
 8265TIP3   OH246209   4.115   4.449  14.250  0.2907  0.1296  0.0514
 8265TIP3    H146210   4.163   4.505  14.188 -1.8889  1.6112 -0.3591
 8265TIP3    H246211   4.023   4.465  14.230 -0.4105 -3.1760  0.3589
 8266TIP3   OH246212   1.107   0.634   3.290 -0.4912 -0.3709  0.2071
 8266TIP3    H146213   1.064   0.571   3.232 -0.8570  1.4850 -1.6108
 8266TIP3    H246214   1.035   0.681   3.332 -0.2751  0.9597 -0.8591
 8267TIP3   OH246215   0.746   6.489  14.697  0.3593  0.4710 -0.2373
 8267TIP3    H146216   0.767   6.409  14.745 -0.4277  1.1511  1.2701
 8267TIP3    H246217   0.820   6.547  14.715  0.8540  0.1469 -1.2014
 8268TIP3   OH246218   4.078   4.440  12.613  0.0264  0.4566  0.3329
 8268TIP3    H146219   3.992   4.400  12.630 -0.0307  0.1023 -0.7634
 8268TIP3    H246220   4.092   4.427  12.519  2.5459 -2.0165  0.9792
 8269TIP3   OH246221   5.693   4.994  16.937  0.0915  0.3261 -0.1813
 8269TIP3    H146222   5.639   4.919  16.912  0.8950 -0.2711 -0.1431
 8269TIP3    H246223   5.666   5.064  16.878  1.9981 -1.0737 -2.7760
 8270TIP3   OH246224   3.665   1.846   2.485  0.1640 -0.8649  0.0504
 8270TIP3    H146225   3.579   1.847   2.443  0.5880 -2.1860 -0.8859
 8270TIP3    H246226   3.686   1.938   2.499 -0.2582 -0.4155 -2.1378
 8271TIP3   OH246227   2.593   5.848  13.601 -0.0820 -0.0149  0.0234
 8271TIP3    H146228   2.564   5.757  13.612  0.7262 -0.2328  0.4536
 8271TIP3    H246229   2.513   5.899  13.595 -0.5470 -0.7997 -0.5454
 8272TIP3   OH246230   5.912   2.935  10.698 -0.3493  0.1945 -0.8249
 8272TIP3    H146231   6.001   2.926  10.664 -0.4241  0.5934 -1.1242
 8272TIP3    H246232   5.857   2.895  10.631 -0.3471 -0.5948 -0.3617
 8273TIP3   OH246233   6.482   2.451   1.437  0.5319  0.1065  0.0300
 8273TIP3    H146234   6.433   2.438   1.518  0.0061  0.7042 -0.1834
 8273TIP3    H246235   6.552   2.511   1.462  1.6771 -1.4256  0.5286
 8274TIP3   OH246236   3.897   3.504  13.553 -0.1318  0.0104  0.5817
 8274TIP3    H146237   3.977   3.458  13.529 -0.1585 -0.2084  0.9047
 8274TIP3    H246238   3.875   3.556  13.475 -1.2216 -2.1034 -0.5857
 8275TIP3   OH246239   6.515   1.647  14.723  0.2069 -0.2726  0.6577
 8275TIP3    H146240   6.589   1.664  14.665  0.7757  0.3142  1.5502
 8275TIP3    H246241   6.531   1.558  14.755  0.7064 -0.0359  1.0899
 8276TIP3   OH246242   5.486   1.171   5.523  0.2640 -0.1922 -0.3581
 8276TIP3    H146243   5.417   1.145   5.583  0.1425 -0.8100 -0.7622
 8276TIP3    H246244   5.510   1.259   5.551 -0.7307  0.0506 -0.2588
 8277TIP3   OH246245   5.955   6.506   2.003  0.1262 -0.6490  0.4142
 8277TIP3    H146246   5.935   6.444   2.074 -2.0087 -0.3447  0.1364
 8277TIP3    H246247   5.958   6.451   1.924  3.6825 -1.1627  0.8513
 8278TIP3   OH246248   3.142   3.669  15.061  0.3097  0.1969 -0.3685
 8278TIP3    H146249   3.128   3.707  15.148 -1.5010 -0.2805 -0.4472
 8278TIP3    H246250   3.154   3.576  15.077  0.4808  0.1772 -0.5977
 8279TIP3   OH246251   2.112   3.734  16.052 -0.1690 -0.6641  0.3855
 8279TIP3    H146252   2.186   3.675  16.039  0.5506  0.0919  1.0307
 8279TIP3    H246253   2.125   3.803  15.988  0.0712 -0.1507  0.9904
 8280TIP3   OH246254   2.503   0.705   4.396 -0.6221 -0.3533  0.3510
 8280TIP3    H146255   2.492   0.610   4.394  0.2314 -0.4621  0.4680
 8280TIP3    H246256   2.437   0.736   4.457 -0.9238 -0.8736  0.2915
 8281TIP3   OH246257   2.847   5.398   1.910 -0.7940  0.1743  0.0801
 8281TIP3    H146258   2.893   5.392   1.826  1.5782  1.4204  1.2364
 8281TIP3    H246259   2.917   5.415   1.974 -2.5816 -0.5208  2.2709
 8282TIP3   OH246260   5.556   6.556   4.785  0.2257  0.2168 -0.6272
 8282TIP3    H146261   5.531   6.642   4.753  1.1364  0.6953 -0.0908
 8282TIP3    H246262   5.648   6.546   4.757  0.6610  0.1533  0.8120
 8283TIP3   OH246263   2.198   1.164   3.342 -0.5149  0.4886 -0.4663
 8283TIP3    H146264   2.135   1.092   3.357  1.0061 -0.7729 -0.0426
 8283TIP3    H246265   2.220   1.156   3.249 -1.4050  1.3021 -0.7590
 8284TIP3   OH246266   5.873   6.618   4.091  1.1686 -0.0532  0.2298
 8284TIP3    H146267   5.966   6.610   4.070  1.2106 -0.8662  0.7144
 8284TIP3    H246268   5.838   6.672   4.021  1.8412 -0.4767 -0.4476
 8285TIP3   OH246269   6.744   1.075  13.359 -0.3219 -0.0622 -0.1762
 8285TIP3    H146270   6.741   1.110  13.270 -0.4945 -1.4032 -0.7162
 8285TIP3    H246271   6.657   1.095  13.395 -0.2975  0.3669 -0.3510
 8286TIP3   OH246272   4.364   3.266   6.516  0.2103 -0.4746 -0.8542
 8286TIP3    H146273   4.384   3.350   6.475  1.2565 -0.4977 -0.4228
 8286TIP3    H246274   4.293   3.230   6.464 -0.0420  0.5466 -1.2242
 8287TIP3   OH246275   3.318   5.349  13.149 -0.2268 -0.8772 -0.3688
 8287TIP3    H146276   3.409   5.322  13.158 -0.1296 -0.5810 -0.4377
 8287TIP3    H246277   3.319   5.413  13.078 -0.5735 -1.2669 -0.7312
 8288TIP3   OH246278   1.784   3.846   5.059 -0.3537 -0.3296 -0.1937
 8288TIP3    H146279   1.718   3.865   4.992 -0.2861 -0.2548 -0.2386
 8288TIP3    H246280   1.849   3.792   5.013  0.1022  0.3952 -0.3998
 8289TIP3   OH246281   1.205   5.478  14.167 -0.0653 -0.1412  0.1144
 8289TIP3    H146282   1.290   5.441  14.142 -0.8653 -1.6155 -0.4883
 8289TIP3    H246283   1.225   5.567  14.193  1.9292 -1.0048  1.6581
 8290TIP3   OH246284   0.244   3.221   3.957  0.0427  0.0862 -0.4531
 8290TIP3    H146285   0.172   3.285   3.951 -0.6611 -0.5592  0.9834
 8290TIP3    H246286   0.210   3.152   4.013  1.6265 -0.4705 -0.1626
 8291TIP3   OH246287   4.496   2.489  12.441  0.1642  0.2000  0.4660
 8291TIP3    H146288   4.547   2.477  12.361 -2.4875  1.6016 -1.5350
 8291TIP3    H246289   4.431   2.419  12.438 -0.0204  0.3302  1.3425
 8292TIP3   OH246290   6.545   3.703   4.093  0.3544 -0.1610 -0.2024
 8292TIP3    H146291   6.505   3.779   4.136 -0.6521 -0.0468 -1.3451
 8292TIP3    H246292   6.611   3.741   4.035  2.6965 -0.3839  2.2320
 8293TIP3   OH246293   4.868   2.541  11.245 -0.3801 -0.5363  0.1623
 8293TIP3    H146294   4.951   2.542  11.294 -1.1541  0.3652  1.5067
 8293TIP3    H246295   4.889   2.578  11.160  0.1970  1.6763  1.2292
 8294TIP3   OH246296   2.003   2.253  16.474  0.0077  1.1887 -0.2507
 8294TIP3    H146297   1.927   2.206  16.510 -0.0167  0.9084 -0.6704
 8294TIP3    H246298   2.009   2.223  16.383 -0.0174  2.0112 -0.5221
 8295TIP3   OH246299   6.126   1.784   4.603  0.1444 -0.5264 -0.0011
 8295TIP3    H146300   6.214   1.747   4.607 -0.7304 -2.6861  0.3645
 8295TIP3    H246301   6.079   1.741   4.674 -1.5023 -0.2290 -0.8757
 8296TIP3   OH246302   5.822   2.277   3.818 -0.4169  0.2377  0.6609
 8296TIP3    H146303   5.815   2.182   3.819 -1.6374  0.3173  0.2482
 8296TIP3    H246304   5.732   2.308   3.809 -0.3869  1.5296  4.0872
 8297TIP3   OH246305   3.976   4.980  14.450 -0.2336 -0.0881  0.2909
 8297TIP3    H146306   4.014   4.919  14.386  1.5440  1.1279  0.1729
 8297TIP3    H246307   3.998   4.942  14.535  0.7654  0.3267  0.2179
 8298TIP3   OH246308   5.103   2.917  14.136  0.0696  0.3190  0.0622
 8298TIP3    H146309   5.142   2.877  14.058  0.8721  0.5742  0.3302
 8298TIP3    H246310   5.077   2.843  14.191  1.5549  0.1521  0.5612
 8299TIP3   OH246311   1.297   2.507   4.728  0.1482  0.0420 -0.0166
 8299TIP3    H146312   1.348   2.561   4.788  2.1550 -1.4087 -0.3950
 8299TIP3    H246313   1.230   2.467   4.783 -0.4068  1.6972  0.5455
 8300TIP3   OH246314   2.637   1.181   0.428  0.3967  0.4369 -0.1723
 8300TIP3    H146315   2.598   1.174   0.341  0.8868  1.6806 -0.5023
 8300TIP3    H246316   2.637   1.275   0.448 -0.0923  0.1388  1.3515
 8301TIP3   OH246317   6.346   2.280   0.100 -0.4109  0.2801  0.3870
 8301TIP3    H146318   6.329   2.321   0.185 -1.5157  2.0050 -0.6257
 8301TIP3    H246319   6.284   2.323   0.041 -0.4311 -1.7033 -1.0643
 8302TIP3   OH246320   3.971   1.279   0.487  0.1077 -0.1194  0.4916
 8302TIP3    H146321   3.916   1.201   0.484 -0.8578  0.4152  3.1340
 8302TIP3    H246322   3.909   1.351   0.498  1.1804  0.7498  0.9421
 8303TIP3   OH246323   0.671   5.178   4.005  0.1428 -0.2085  0.1645
 8303TIP3    H146324   0.692   5.222   4.087  1.0697  0.8304 -0.6238
 8303TIP3    H246325   0.749   5.126   3.984  0.2325  0.1845 -0.4947
 8304TIP3   OH246326   4.623   4.043  16.002  0.0998  0.0829 -0.6482
 8304TIP3    H146327   4.611   4.088  16.085 -0.3653 -1.0749 -0.0657
 8304TIP3    H246328   4.548   4.069  15.949 -0.4771 -0.4456 -0.1053
 8305TIP3   OH246329   2.541   1.919   6.143 -0.0960  0.4632  0.3861
 8305TIP3    H146330   2.592   1.869   6.208  0.0749  1.4229  1.0068
 8305TIP3    H246331   2.536   2.007   6.180 -2.0087  0.4479  0.2096
 8306TIP3   OH246332   2.063   1.393  11.986 -0.1007 -0.1941 -0.3349
 8306TIP3    H146333   2.126   1.340  11.937 -0.3354 -0.5203 -0.2855
 8306TIP3    H246334   2.061   1.476  11.938 -1.9139 -1.2441 -2.1766
 8307TIP3   OH246335   0.988   4.869  17.101 -0.0182 -0.3988  0.5739
 8307TIP3    H146336   1.017   4.956  17.075 -1.1363 -0.1661  0.0616
 8307TIP3    H246337   0.929   4.841  17.030 -1.2521 -0.7201  1.6996
 8308TIP3   OH246338   1.040   3.191  12.218  0.1829 -0.0396  0.1091
 8308TIP3    H146339   1.092   3.271  12.220 -1.8410  1.3071 -0.0419
 8308TIP3    H246340   1.029   3.167  12.310 -0.6671  0.8196  0.2299
 8309TIP3   OH246341   4.854   5.470   5.378  0.1207  0.3512 -0.4456
 8309TIP3    H146342   4.824   5.533   5.443  0.5391  0.8402 -0.7153
 8309TIP3    H246343   4.778   5.455   5.322  0.1512  0.9794 -0.6585
 8310TIP3   OH246344   5.363   4.753   1.975 -0.2417  0.3360 -0.7399
 8310TIP3    H146345   5.381   4.826   1.916  0.6506  0.5108 -0.2638
 8310TIP3    H246346   5.434   4.756   2.039  0.2408 -1.4100 -1.1598
 8311TIP3   OH246347   4.427   5.221   0.306  0.4820  0.1972  0.0279
 8311TIP3    H146348   4.364   5.293   0.306 -0.2654 -0.4498  0.1720
 8311TIP3    H246349   4.504   5.255   0.353  0.0642  0.8369  0.2451
 8312TIP3   OH246350   0.969   2.595  15.342 -0.0095 -0.0284  0.0436
 8312TIP3    H146351   0.912   2.618  15.268  0.9503  1.2701 -0.3133
 8312TIP3    H246352   0.957   2.500  15.353 -0.7452 -0.1049 -1.2863
 8313TIP3   OH246353   0.393   0.250   5.450  0.2180  0.3262 -0.0275
 8313TIP3    H146354   0.467   0.284   5.501  0.8942 -0.9900 -0.1163
 8313TIP3    H246355   0.420   0.262   5.359 -0.1879  0.9270 -0.0737
 8314TIP3   OH246356   4.478   1.620  16.539 -0.6700  0.3526  0.1753
 8314TIP3    H146357   4.570   1.608  16.561 -0.8306  0.8546  1.1128
 8314TIP3    H246358   4.449   1.694  16.592 -1.9023 -0.4916  0.7200
 8315TIP3   OH246359   2.145   4.415   2.495  0.1153 -0.0512 -0.2108
 8315TIP3    H146360   2.083   4.430   2.423  2.2960  2.5428 -1.6432
 8315TIP3    H246361   2.183   4.501   2.512  0.9016 -0.9481  2.9513
 8316TIP3   OH246362   5.789   3.750   3.256  0.3075 -0.3838 -0.3198
 8316TIP3    H146363   5.699   3.717   3.250  0.4576 -0.5543 -1.5952
 8316TIP3    H246364   5.839   3.677   3.290  0.3773 -1.0288 -1.7816
 8317TIP3   OH246365   5.753   0.678  15.386  0.2227  0.0742 -0.3456
 8317TIP3    H146366   5.822   0.739  15.359  0.4780 -0.8514 -1.8877
 8317TIP3    H246367   5.720   0.714  15.468  0.9699  1.7998 -0.7645
 8318TIP3   OH246368   4.280   0.801  13.313 -0.0315 -0.5966  0.7453
 8318TIP3    H146369   4.263   0.709  13.291 -2.7669  0.2727 -1.2076
 8318TIP3    H246370   4.260   0.808  13.406 -1.1696 -1.7358  0.6055
 8319TIP3   OH246371   4.823   4.411   0.189  0.7389 -0.2567 -0.0212
 8319TIP3    H146372   4.904   4.424   0.238  0.9809  1.2632 -0.7967
 8319TIP3    H246373   4.848   4.354   0.117  1.2488  0.6131 -0.5449
 8320TIP3   OH246374   5.406   5.328   5.223 -0.1153 -0.8913 -0.0208
 8320TIP3    H146375   5.320   5.292   5.200 -0.4525 -0.4867  0.5877
 8320TIP3    H246376   5.469   5.267   5.185 -0.6709 -1.0429 -0.7143
 8321TIP3   OH246377   3.180   4.448  16.564 -0.3198  0.0814 -0.6875
 8321TIP3    H146378   3.159   4.356  16.574 -4.1038  0.5844 -2.7402
 8321TIP3    H246379   3.116   4.494  16.619 -0.5731  1.5557 -2.1534
 8322TIP3   OH246380   4.064   1.670  14.766  0.3627 -0.2435 -0.1098
 8322TIP3    H146381   4.151   1.652  14.800  1.0812 -2.2641 -2.8252
 8322TIP3    H246382   4.074   1.664  14.671 -2.8023 -0.8817 -0.4519
 8323TIP3   OH246383   5.634   3.924   1.036  0.2479 -0.5920 -0.0644
 8323TIP3    H146384   5.700   3.988   1.059  1.3306 -1.9491  0.6537
 8323TIP3    H246385   5.631   3.864   1.111 -0.4001 -1.6493 -0.9215
 8324TIP3   OH246386   5.599   1.488   3.070 -0.1404 -0.4412  0.2154
 8324TIP3    H146387   5.533   1.557   3.073  1.4766  1.1266  0.3355
 8324TIP3    H246388   5.615   1.465   3.161  1.0983  0.7855  0.3293
 8325TIP3   OH246389   5.816   6.290  12.015  0.3570  0.3838 -0.0123
 8325TIP3    H146390   5.828   6.202  12.050  2.5250  1.1400  1.2868
 8325TIP3    H246391   5.810   6.278  11.920 -0.9367 -1.2884  0.2688
 8326TIP3   OH246392   5.438   5.316   3.808  0.2701 -0.1262 -0.3898
 8326TIP3    H146393   5.450   5.286   3.718  3.0314 -1.8184  0.4866
 8326TIP3    H246394   5.372   5.258   3.844 -1.7957  1.3646 -1.6479
 8327TIP3   OH246395   6.771   1.768  15.705  0.1518 -0.0267  0.8317
 8327TIP3    H146396   6.776   1.804  15.616  0.3374  1.2997  1.3721
 8327TIP3    H246397   6.819   1.685  15.699 -0.2442 -0.1865 -0.4132
 8328TIP3   OH246398   0.570   5.373  14.480 -0.7254  0.1514  0.4280
 8328TIP3    H146399   0.610   5.453  14.514  1.1961 -1.3180  1.7062
 8328TIP3    H246400   0.477   5.383  14.499 -0.2559  1.2830  2.2328
 8329TIP3   OH246401   5.090   0.663  15.278  0.3241  0.4128  0.0796
 8329TIP3    H146402   5.125   0.605  15.210 -2.4304 -1.7246  0.3993
 8329TIP3    H246403   5.043   0.731  15.230 -0.9898 -0.6836 -0.2316
 8330TIP3   OH246404   0.981   3.257   6.155  0.1918 -0.2480 -0.7021
 8330TIP3    H146405   1.055   3.262   6.095 -0.0709 -1.9241 -1.1833
 8330TIP3    H246406   0.974   3.164   6.176 -0.6742  0.1359  0.7282
 8331TIP3   OH246407   5.620   2.536  15.123  0.1395 -0.4257 -0.1964
 8331TIP3    H146408   5.563   2.575  15.056  2.5850  0.1391 -2.0476
 8331TIP3    H246409   5.647   2.610  15.177 -1.4765 -0.8166  1.2086
 8332TIP3   OH246410   3.482   1.857   3.159  0.5292  0.5095  0.1844
 8332TIP3    H146411   3.389   1.844   3.175  0.6205 -1.6393 -0.8986
 8332TIP3    H246412   3.524   1.779   3.195  1.9057  1.4209  0.5942
 8333TIP3   OH246413   5.774   3.218   3.548 -0.3049 -0.7483 -0.4979
 8333TIP3    H146414   5.806   3.174   3.626  3.6806  2.5005 -0.1703
 8333TIP3    H246415   5.718   3.288   3.581  0.3395 -0.1765 -0.6170
 8334TIP3   OH246416   5.093   2.200  13.115 -0.4451  0.0062 -0.1596
 8334TIP3    H146417   5.069   2.107  13.117 -1.2813  0.1645 -1.4839
 8334TIP3    H246418   5.027   2.240  13.058 -0.0537  1.4014  0.3444
 8335TIP3   OH246419   4.784   3.624  10.594  0.4609 -0.4008  0.7634
 8335TIP3    H146420   4.804   3.584  10.679 -1.0783 -1.3621  0.6775
 8335TIP3    H246421   4.863   3.609  10.542  1.5682  0.5220  2.1248
 8336TIP3   OH246422   5.781   1.698   3.626 -0.1361  0.2204  0.6106
 8336TIP3    H146423   5.838   1.657   3.691  0.4748 -1.7539 -1.1017
 8336TIP3    H246424   5.699   1.713   3.673 -0.0226 -2.0118  1.6189
 8337TIP3   OH246425   3.856   1.494   4.976  0.1688  0.3879 -0.7935
 8337TIP3    H146426   3.842   1.536   4.891 -1.3595  0.5797 -0.4637
 8337TIP3    H246427   3.783   1.432   4.984  1.4147 -1.0717 -0.4944
 8338TIP3   OH246428   0.765   2.505  15.710  0.2333  0.5588  0.3377
 8338TIP3    H146429   0.738   2.585  15.754 -0.4971  0.3231  0.3148
 8338TIP3    H246430   0.684   2.460  15.687  0.6431 -0.6341  1.1431
 8339TIP3   OH246431   3.298   0.745   0.970 -0.2563 -0.1069 -0.1631
 8339TIP3    H146432   3.227   0.684   0.950 -0.2326 -0.1445 -0.1310
 8339TIP3    H246433   3.275   0.780   1.056 -1.5957  1.8021 -1.2612
 8340TIP3   OH246434   5.563   3.157  16.252 -0.4765  0.3397  0.2931
 8340TIP3    H146435   5.468   3.164  16.252 -0.4918  0.4944  3.2712
 8340TIP3    H246436   5.582   3.084  16.194 -2.4756 -0.6182  0.8184
 8341TIP3   OH246437   3.777   2.080   1.948 -0.4822  0.2646 -0.3921
 8341TIP3    H146438   3.869   2.065   1.926 -0.6066  1.7398 -1.9399
 8341TIP3    H246439   3.730   2.010   1.903 -0.3318  0.8840 -1.5369
 8342TIP3   OH246440   5.546   6.761  17.128  0.2045  0.1082  0.5060
 8342TIP3    H146441   5.459   6.790  17.100  0.5151 -0.0694 -0.6617
 8342TIP3    H246442   5.602   6.837  17.115  0.4174 -0.0827  0.2959
 8343TIP3   OH246443   4.783   3.236   5.289 -0.5274  0.4579 -0.2986
 8343TIP3    H146444   4.868   3.280   5.282 -0.2773 -0.1845 -1.5098
 8343TIP3    H246445   4.737   3.259   5.208 -0.4756 -1.2661 -0.8566
 8344TIP3   OH246446   1.534   2.256  16.410 -0.9572  0.2216 -0.3169
 8344TIP3    H146447   1.469   2.260  16.480 -0.7049 -1.1715  0.0133
 8344TIP3    H246448   1.507   2.181  16.357  0.2579 -0.2651 -0.2730
 8345TIP3   OH246449   1.585   6.023  15.297  0.1457  0.1553 -0.1242
 8345TIP3    H146450   1.586   6.114  15.328 -2.2767  0.6541 -1.3974
 8345TIP3    H246451   1.580   6.030  15.201 -0.4055 -1.3223 -0.2204
 8346TIP3   OH246452   4.659   5.830   5.300 -0.0621 -0.0230  0.1842
 8346TIP3    H146453   4.573   5.872   5.310 -1.2622 -2.2949 -0.3227
 8346TIP3    H246454   4.639   5.737   5.297  2.7011 -0.7801  3.1099
 8347TIP3   OH246455   2.229   2.211  14.748  0.0193 -0.6077 -0.3228
 8347TIP3    H146456   2.223   2.115  14.749  2.4471 -0.7992 -0.6768
 8347TIP3    H246457   2.215   2.235  14.657  0.7498 -0.7432 -0.4737
 8348TIP3   OH246458   0.320   4.145   2.504  0.4261 -0.0852  0.2381
 8348TIP3    H146459   0.296   4.235   2.528 -1.4751 -0.0253 -1.8047
 8348TIP3    H246460   0.295   4.093   2.580 -0.7753  0.7846  0.4556
 8349TIP3   OH246461   0.997   6.592  14.803 -0.0553  0.6326 -0.5883
 8349TIP3    H146462   1.007   6.667  14.744  2.4481 -0.2206 -1.2955
 8349TIP3    H246463   1.087   6.563  14.820 -0.8560 -0.5006  1.8965
 8350TIP3   OH246464   4.265   3.255   2.855  0.1201 -0.3511 -0.3368
 8350TIP3    H146465   4.307   3.176   2.821 -0.1322 -0.7930  0.3490
 8350TIP3    H246466   4.284   3.323   2.791  1.3186 -0.7005 -0.3554
 8351TIP3   OH246467   4.398   0.471   6.277 -0.0630  0.2761  0.3862
 8351TIP3    H146468   4.475   0.447   6.328  0.6831 -1.1924 -1.4051
 8351TIP3    H246469   4.356   0.388   6.255 -0.5007  0.9012 -1.2188
 8352TIP3   OH246470   1.448   6.210  13.807  0.1509 -0.3669  0.1384
 8352TIP3    H146471   1.452   6.115  13.817 -1.8772 -0.4327  0.4798
 8352TIP3    H246472   1.356   6.232  13.822  0.6920  1.7069  0.5809
 8353TIP3   OH246473   4.680   4.763  14.244  0.6254  0.1101  0.5171
 8353TIP3    H146474   4.597   4.766  14.195  1.1329 -0.4233 -0.3829
 8353TIP3    H246475   4.734   4.702  14.196  1.3993  0.1225  1.3595
 8354TIP3   OH246476   0.584   5.619   2.578  0.0096  0.5595 -0.4352
 8354TIP3    H146477   0.541   5.705   2.586  0.0356  0.6902 -1.5943
 8354TIP3    H246478   0.579   5.582   2.666 -1.5096  1.0354 -0.3002
 8355TIP3   OH246479   0.545   5.942   2.496 -0.0756 -0.3224  0.1819
 8355TIP3    H146480   0.470   5.959   2.553  0.5883  1.2833  0.5736
 8355TIP3    H246481   0.584   6.027   2.480  1.4219 -1.0987 -0.3912
 8356TIP3   OH246482   0.303   3.420   2.709 -0.3007  0.1893  0.1627
 8356TIP3    H146483   0.273   3.422   2.800 -1.1687  2.8648 -0.1468
 8356TIP3    H246484   0.223   3.409   2.657 -0.1753  1.6607 -0.3837
 8357TIP3   OH246485   5.079   2.192  12.511 -0.2309  0.5190  0.0791
 8357TIP3    H146486   5.014   2.260  12.496 -0.5232  0.8482  2.5494
 8357TIP3    H246487   5.076   2.177  12.606  2.1689 -0.5605  0.0294
 8358TIP3   OH246488   5.890   0.909  15.764  0.4756  0.4112 -0.5318
 8358TIP3    H146489   5.892   0.818  15.793  1.4808  1.1566  1.8154
 8358TIP3    H246490   5.982   0.934  15.754  0.1880  0.7448 -2.6557
 8359TIP3   OH246491   5.599   2.512  13.270 -0.0538  0.1622  0.4831
 8359TIP3    H146492   5.628   2.540  13.357  1.4802 -0.3777  0.1724
 8359TIP3    H246493   5.647   2.430  13.254 -0.8773 -0.1332 -0.5653
 8360TIP3   OH246494   3.363   0.827   1.953 -0.0171  0.1661  0.3261
 8360TIP3    H146495   3.353   0.779   1.871  0.1190  2.2943 -0.9831
 8360TIP3    H246496   3.457   0.835   1.964 -0.0457  1.1590 -0.1012
 8361TIP3   OH246497   1.236   4.150   6.196 -0.1181 -0.0207  0.5709
 8361TIP3    H146498   1.199   4.066   6.224  0.3595 -0.3294  0.2703
 8361TIP3    H246499   1.330   4.142   6.212  0.2454 -0.4033 -1.6151
 8362TIP3   OH246500   4.461   0.590   4.496 -0.3377 -0.0330  0.3837
 8362TIP3    H146501   4.372   0.581   4.530 -0.1410 -0.7432  0.7270
 8362TIP3    H246502   4.505   0.649   4.557  0.2911 -2.0517  1.9310
 8363TIP3   OH246503   5.470   3.292  12.736 -0.2103 -0.2386 -0.0464
 8363TIP3    H146504   5.526   3.302  12.813 -0.3496  0.4324 -0.0262
 8363TIP3    H246505   5.493   3.207  12.700 -0.5346 -0.7989  1.0567
 8364TIP3   OH246506   2.060   5.731   4.453 -0.2578 -0.5167 -0.0906
 8364TIP3    H146507   2.043   5.723   4.359  0.2161  1.0112 -0.3245
 8364TIP3    H246508   2.042   5.644   4.489 -1.8760 -0.7293 -1.3739
 8365TIP3   OH246509   0.243   1.658  12.016  0.3303 -0.2513 -0.6137
 8365TIP3    H146510   0.233   1.586  11.953 -0.4917 -0.1157 -0.6522
 8365TIP3    H246511   0.161   1.657  12.066  1.4607 -1.1436  1.2982
 8366TIP3   OH246512   2.872   2.890   3.632  0.3179 -0.2099 -0.3599
 8366TIP3    H146513   2.794   2.920   3.586 -0.4367 -0.5918  0.6705
 8366TIP3    H246514   2.933   2.963   3.625 -0.1380  0.1145 -1.1144
 8367TIP3   OH246515   0.264   5.382   1.805  0.5569  0.8863  0.1609
 8367TIP3    H146516   0.289   5.462   1.758 -0.2423  0.8060 -0.4249
 8367TIP3    H246517   0.190   5.347   1.754  0.9912 -0.3006  0.3291
 8368TIP3   OH246518   4.822   3.576  15.449  0.3640  0.5074  0.4162
 8368TIP3    H146519   4.875   3.497  15.445  1.0556  1.0312 -4.0854
 8368TIP3    H246520   4.733   3.546  15.428  0.6535  0.8677 -1.4450
 8369TIP3   OH246521   5.657   2.823   4.304  0.5695 -0.0296 -0.2825
 8369TIP3    H146522   5.653   2.826   4.400 -0.7657 -0.8874 -0.2885
 8369TIP3    H246523   5.628   2.909   4.276  1.0579  0.2574  0.0935
 8370TIP3   OH246524   3.476   5.870  16.815  0.3338 -0.5013  0.0750
 8370TIP3    H146525   3.400   5.878  16.874 -0.7640  0.7265 -1.4579
 8370TIP3    H246526   3.451   5.921  16.738  3.9607  2.5688  0.7699
 8371TIP3   OH246527   6.525   4.401   0.640  0.2372 -0.1197  0.2488
 8371TIP3    H146528   6.546   4.400   0.547  1.3612 -0.4915  0.5015
 8371TIP3    H246529   6.450   4.459   0.647  0.7476  0.6711 -0.7695
 8372TIP3   OH246530   2.175   5.902  10.360 -0.1174  0.1252  0.0380
 8372TIP3    H146531   2.165   5.886  10.454  0.3611 -1.1408 -0.1225
 8372TIP3    H246532   2.250   5.849  10.335  0.1720  0.9917 -0.9328
 8373TIP3   OH246533   3.217   4.029  16.772  0.5131  0.0990  0.0362
 8373TIP3    H146534   3.252   4.114  16.800  2.1531 -0.6592  0.3839
 8373TIP3    H246535   3.194   4.042  16.680  0.7401  0.9311  0.0853
 8374TIP3   OH246536   6.178   2.963  10.640  0.0580 -0.5269 -0.2706
 8374TIP3    H146537   6.183   3.055  10.667 -1.4633 -0.1514 -1.1327
 8374TIP3    H246538   6.268   2.937  10.624  0.6713  0.2329  1.8463
 8375TIP3   OH246539   2.337   3.891  16.473  0.1697  0.2167 -1.1323
 8375TIP3    H146540   2.281   3.831  16.425 -0.5555  1.1744 -1.5098
 8375TIP3    H246541   2.339   3.970  16.419 -1.3639  1.6471  0.8038
 8376TIP3   OH246542   1.898   3.223   2.926 -0.0568 -0.3682  0.6839
 8376TIP3    H146543   1.815   3.239   2.969 -1.3562  0.2055 -1.9415
 8376TIP3    H246544   1.943   3.308   2.929 -0.0770 -0.3692  1.0359
 8377TIP3   OH246545   6.638   2.306   5.679  0.6093 -0.5302  0.1122
 8377TIP3    H146546   6.676   2.289   5.765 -0.3970 -2.0737  0.2690
 8377TIP3    H246547   6.574   2.376   5.695  2.7220  1.4540  0.0034
 8378TIP3   OH246548   0.463   1.630  16.021  0.4627  0.0525  0.7435
 8378TIP3    H146549   0.369   1.648  16.022  0.8878  2.5334 -0.2774
 8378TIP3    H246550   0.485   1.625  15.929  1.4817  0.2683  0.9736
 8379TIP3   OH246551   4.742   4.055  15.331  0.3456 -0.4554 -0.3764
 8379TIP3    H146552   4.727   4.036  15.424  0.9736  0.2615 -0.1195
 8379TIP3    H246553   4.715   4.147  15.321  1.1266 -0.2585 -0.6986
 8380TIP3   OH246554   6.723   0.950   5.671  0.6308  0.1045 -0.6267
 8380TIP3    H146555   6.696   0.940   5.762 -0.6631  1.1775 -0.8762
 8380TIP3    H246556   6.702   1.041   5.649 -0.1638 -0.4612 -2.3399
 8381TIP3   OH246557   3.219   4.217   2.094  0.1222  0.1395  0.4626
 8381TIP3    H146558   3.254   4.139   2.050 -0.6920  0.5067 -0.8673
 8381TIP3    H246559   3.240   4.204   2.186  0.2547 -1.5169  0.2131
 8382TIP3   OH246560   6.316   6.209   2.527  0.0006  0.1590  0.4788
 8382TIP3    H146561   6.337   6.224   2.620 -0.0008 -1.1457  0.6959
 8382TIP3    H246562   6.240   6.265   2.510 -0.1347  0.2354  1.3185
 8383TIP3   OH246563   5.079   1.889  15.914 -0.1228  1.1457 -1.0931
 8383TIP3    H146564   5.092   1.958  15.850  0.7402  1.2518 -0.8075
 8383TIP3    H246565   5.167   1.859  15.937 -0.4776  0.0018 -1.1608
 8384TIP3   OH246566   1.080   5.935   1.425 -0.3057  0.3132 -0.6056
 8384TIP3    H146567   1.077   5.864   1.361 -2.4108 -0.7424  0.6090
 8384TIP3    H246568   1.139   5.903   1.494 -0.4814  0.1451 -0.5323
 8385TIP3   OH246569   1.905   3.153  16.452  0.1535  0.0022  0.2865
 8385TIP3    H146570   1.894   3.240  16.488 -0.2589  0.3363 -0.6356
 8385TIP3    H246571   1.825   3.106  16.476 -0.1531  0.2465 -0.2685
 8386TIP3   OH246572   3.459   3.624  14.358 -0.4107  0.0165 -0.0774
 8386TIP3    H146573   3.543   3.597  14.321 -0.1415  1.4771 -0.5252
 8386TIP3    H246574   3.399   3.623  14.284 -0.5974 -0.1660  0.0740
 8387TIP3   OH246575   5.176   3.859  14.835 -0.4381 -0.4274 -0.8168
 8387TIP3    H146576   5.121   3.814  14.899 -0.8436 -1.8186 -2.1004
 8387TIP3    H246577   5.114   3.909  14.781 -0.4198 -1.5610 -1.9170
 8388TIP3   OH246578   5.605   4.815   4.224 -0.1446 -0.2318 -0.0930
 8388TIP3    H146579   5.634   4.895   4.268 -0.5086 -0.1078 -0.0828
 8388TIP3    H246580   5.571   4.760   4.295  1.6998 -1.1108  0.1571
 8389TIP3   OH246581   3.834   5.673   0.021  0.1430 -0.0335 -0.0956
 8389TIP3    H146582   3.849   5.707  -0.067  1.8871  0.1948  0.2765
 8389TIP3    H246583   3.740   5.654   0.023 -0.1459  1.1336 -1.5787
 8390TIP3   OH246584   1.257   4.370  12.646  0.4397  0.2364  0.1275
 8390TIP3    H146585   1.236   4.311  12.574 -1.6276 -1.3614  1.9432
 8390TIP3    H246586   1.352   4.378  12.645  0.5113 -0.6761 -2.0353
 8391TIP3   OH246587   3.786   3.929   0.204 -0.1312 -0.1857 -0.4103
 8391TIP3    H146588   3.859   3.932   0.142  0.0858  1.1318 -0.0999
 8391TIP3    H246589   3.821   3.970   0.284 -0.9919 -0.1879 -0.0316
 8392TIP3   OH246590   3.423   2.501   6.249 -0.0604  0.0650 -0.5626
 8392TIP3    H146591   3.397   2.499   6.341  0.9204  0.9332 -0.2617
 8392TIP3    H246592   3.423   2.593   6.226  0.6993 -0.0763 -1.1445
 8393TIP3   OH246593   2.504   2.900  11.929 -0.1046  0.0211  0.7231
 8393TIP3    H146594   2.463   2.818  11.900  0.4286 -0.2871  0.8377
 8393TIP3    H246595   2.465   2.967  11.873  2.1640 -0.7658 -1.9350
 8394TIP3   OH246596   3.473   2.502   0.868 -0.3812  0.0837  0.6261
 8394TIP3    H146597   3.387   2.535   0.840  0.0119 -0.8952 -1.8900
 8394TIP3    H246598   3.466   2.407   0.858  1.4519  0.0970 -1.0047
 8395TIP3   OH246599   4.144   5.644  16.633  0.1042  0.2342  0.2864
 8395TIP3    H146600   4.077   5.618  16.696  1.1493  1.4457  1.9150
 8395TIP3    H246601   4.222   5.662  16.685  1.0972  0.9168 -1.3710
 8396TIP3   OH246602   2.553   0.634   1.558 -0.3571 -0.0675 -0.7417
 8396TIP3    H146603   2.576   0.564   1.619 -0.6967  0.7506  0.3425
 8396TIP3    H246604   2.550   0.591   1.473 -1.5291 -1.5908  0.0337
 8397TIP3   OH246605   0.973   4.308  17.078  0.0716  0.5535  0.4446
 8397TIP3    H146606   0.944   4.306  16.987 -0.1425  2.8343  0.4449
 8397TIP3    H246607   0.897   4.279  17.128 -0.1692  0.3999 -0.0103
 8398TIP3   OH246608   5.409   5.733   1.549  0.5512  0.1376  0.3305
 8398TIP3    H146609   5.473   5.798   1.579  0.2784  1.3872 -1.6848
 8398TIP3    H246610   5.355   5.715   1.626  2.7822 -0.3196  1.8446
 8399TIP3   OH246611   2.528   0.134   5.763  0.0854  0.0780 -0.4429
 8399TIP3    H146612   2.500   0.044   5.750 -1.7504  0.2887  1.8341
 8399TIP3    H246613   2.600   0.146   5.701 -0.4055 -2.5816 -1.5702
 8400TIP3   OH246614   1.708   6.616  14.974 -0.2712 -0.7404  0.5655
 8400TIP3    H146615   1.642   6.663  15.025 -0.1463 -0.8012  0.7859
 8400TIP3    H246616   1.665   6.534  14.949 -1.1692  0.3227 -1.4969
 8401TIP3   OH246617   6.717   6.386   4.770  0.3303 -0.1138  0.3781
 8401TIP3    H146618   6.711   6.471   4.727  1.3049 -0.5207 -0.5610
 8401TIP3    H246619   6.661   6.328   4.718 -0.4754 -0.0145  1.1192
 8402TIP3   OH246620   6.324   1.288  14.581  0.0100 -0.0605 -0.1029
 8402TIP3    H146621   6.408   1.330  14.600  0.3821 -0.5884 -0.5854
 8402TIP3    H246622   6.347   1.200  14.552 -0.8492 -1.3764  2.9965
 8403TIP3   OH246623   0.922   3.461   3.296  0.0205 -0.1310  0.5299
 8403TIP3    H146624   0.921   3.457   3.201  1.5115  0.7640  0.4723
 8403TIP3    H246625   0.980   3.390   3.323  3.1177  2.3049  0.5760
 8404TIP3   OH246626   2.697   6.073   5.466  0.0067  0.2503  0.6569
 8404TIP3    H146627   2.757   6.061   5.393 -0.3195  1.4344  0.1782
 8404TIP3    H246628   2.741   6.136   5.523 -0.8218  1.2508  0.2219
 8405TIP3   OH246629   0.023   3.904   3.094 -0.0839  0.2616  0.1387
 8405TIP3    H146630   0.050   3.973   3.034 -0.2325  0.7337  0.6070
 8405TIP3    H246631  -0.005   3.951   3.173 -2.2014 -0.2046 -0.3112
 8406TIP3   OH246632   4.676   6.082   1.685 -0.1951 -0.2705 -0.6850
 8406TIP3    H146633   4.694   6.131   1.604 -0.1751  1.2775  0.2252
 8406TIP3    H246634   4.587   6.109   1.710 -0.0033 -0.3235  0.0791
 8407TIP3   OH246635   1.559   3.686   5.215 -0.7525 -0.4191  0.4972
 8407TIP3    H146636   1.602   3.610   5.255 -2.1274 -2.2522 -1.4445
 8407TIP3    H246637   1.630   3.745   5.194  0.3704 -1.2720  1.7758
 8408TIP3   OH246638   4.414   2.571  10.965  0.4068 -0.2341 -0.5012
 8408TIP3    H146639   4.348   2.591  10.899 -0.4068  2.2485  1.0230
 8408TIP3    H246640   4.376   2.498  11.016 -0.4815  0.1551 -0.5977
 8409TIP3   OH246641   2.749   2.878   2.923 -0.2288  0.6465  0.3753
 8409TIP3    H146642   2.664   2.920   2.932  0.0995  1.2406  0.8033
 8409TIP3    H246643   2.794   2.897   3.006 -0.5812 -1.7275  1.1221
 8410TIP3   OH246644   6.319   5.079   1.971 -0.6217  0.6304  0.0124
 8410TIP3    H146645   6.281   5.006   1.922 -0.6387 -0.4600  1.6281
 8410TIP3    H246646   6.280   5.157   1.932 -0.7874 -0.2275 -1.5664
 8411TIP3   OH246647   5.387   3.767   2.475  0.4321 -0.0146  0.2305
 8411TIP3    H146648   5.400   3.858   2.503 -1.5303  0.4893 -0.4634
 8411TIP3    H246649   5.408   3.767   2.382 -0.4645 -0.0714  0.0251
 8412TIP3   OH246650   4.054   2.570   4.310  0.5990  0.0896 -0.1024
 8412TIP3    H146651   4.035   2.561   4.216 -4.5816  0.4216  0.7780
 8412TIP3    H246652   4.061   2.664   4.325  0.5336  0.0803 -0.0115
 8413TIP3   OH246653   3.560   0.065  14.765 -0.0988  0.1801 -0.6445
 8413TIP3    H146654   3.492   0.132  14.776 -0.6296 -0.6273  1.3282
 8413TIP3    H246655   3.512  -0.018  14.767  0.5185 -0.2909 -3.3582
 8414TIP3   OH246656   0.747   5.397  13.350  0.1676 -0.1066  0.0411
 8414TIP3    H146657   0.838   5.377  13.370  0.4927  1.2923 -0.0074
 8414TIP3    H246658   0.696   5.341  13.409  1.0361 -1.7206 -0.7267
 8415TIP3   OH246659   2.921   5.769   1.077  0.3954  0.2542 -0.2648
 8415TIP3    H146660   2.906   5.813   0.993 -1.3347 -0.0261 -0.1308
 8415TIP3    H246661   2.927   5.840   1.141  0.2286  0.4137 -0.4230
 8416TIP3   OH246662   0.430   2.655  12.526  0.2840 -0.2361 -0.2589
 8416TIP3    H146663   0.440   2.569  12.567 -1.6599 -0.6670 -0.6334
 8416TIP3    H246664   0.486   2.651  12.448  1.7411 -0.4366  0.7761
 8417TIP3   OH246665   1.444   5.229  16.895 -0.5565  0.0453 -0.6937
 8417TIP3    H146666   1.394   5.256  16.971  0.3279 -0.8469  0.2162
 8417TIP3    H246667   1.504   5.302  16.878 -0.4036  0.0335 -0.2176
 8418TIP3   OH246668   5.598   5.531   6.246  0.0312  0.4387 -0.1911
 8418TIP3    H146669   5.503   5.540   6.258 -0.2270  0.2501 -1.9520
 8418TIP3    H246670   5.632   5.515   6.334 -1.5674  0.5710  0.4627
 8419TIP3   OH246671   4.230   6.245   3.580  0.5049  0.1597  0.0388
 8419TIP3    H146672   4.188   6.304   3.643  0.7396 -1.0310  1.3410
 8419TIP3    H246673   4.172   6.168   3.577  0.5492  0.1739 -1.1265
 8420TIP3   OH246674   5.285   5.691   1.066 -0.2595 -0.1685 -0.2741
 8420TIP3    H146675   5.273   5.600   1.042  0.2304 -0.2121 -0.3624
 8420TIP3    H246676   5.380   5.704   1.063 -0.4066  0.7244 -1.6852
 8421TIP3   OH246677   5.629   3.625  16.848  0.6313  0.4138 -0.5893
 8421TIP3    H146678   5.586   3.660  16.770 -1.0662  0.9149  0.5289
 8421TIP3    H246679   5.627   3.530  16.836  2.1768  0.5591 -2.0596
 8422TIP3   OH246680   2.889   0.054  16.427 -0.4330 -0.3753 -0.2936
 8422TIP3    H146681   2.856   0.132  16.383 -0.7180 -0.6782 -0.6270
 8422TIP3    H246682   2.813  -0.004  16.431 -0.3467 -0.4383  0.3947
 8423TIP3   OH246683   1.955   6.636  14.087  0.2651  0.3753 -0.4854
 8423TIP3    H146684   2.018   6.586  14.138  1.0108  0.2050 -1.5562
 8423TIP3    H246685   1.954   6.722  14.127 -0.3509 -0.2193  0.8046
 8424TIP3   OH246686   2.150   6.633   1.682 -0.0252 -0.5644  0.6437
 8424TIP3    H146687   2.192   6.628   1.768  1.4493 -0.1997 -0.0316
 8424TIP3    H246688   2.179   6.717   1.646 -1.1981 -0.3971  0.0744
 8425TIP3   OH246689   6.701   0.612  12.348 -0.1449 -0.4250  0.4333
 8425TIP3    H146690   6.654   0.529  12.358 -1.7566  0.7425  2.9676
 8425TIP3    H246691   6.791   0.592  12.374 -0.6380 -1.2887  1.5078
 8426TIP3   OH246692   5.161   4.174   5.185 -0.5556 -0.3326  0.2827
 8426TIP3    H146693   5.197   4.086   5.201  0.5968 -0.1663 -1.2079
 8426TIP3    H246694   5.069   4.158   5.163 -0.0626 -1.3125 -1.1755
 8427TIP3   OH246695   5.945   4.049  11.315 -0.0558 -0.1065  0.2787
 8427TIP3    H146696   5.895   4.123  11.283  3.0588  1.3282 -1.4096
 8427TIP3    H246697   5.898   3.972  11.282 -0.2792  1.2270 -2.6540
 8428TIP3   OH246698   4.680   3.121  11.978  0.7245 -0.3541 -0.6694
 8428TIP3    H146699   4.635   3.057  12.033 -1.1813  1.4677 -0.0582
 8428TIP3    H246700   4.690   3.077  11.894 -0.0897 -1.6516 -0.1013
 8429TIP3   OH246701   5.702   1.044  12.004  0.0168  0.3641 -0.0833
 8429TIP3    H146702   5.685   0.958  11.966  0.1777  0.7087 -0.9699
 8429TIP3    H246703   5.622   1.066  12.051  0.9576 -1.4069  2.4109
 8430TIP3   OH246704   0.599   2.224   6.725  0.0111  0.1827 -0.4246
 8430TIP3    H146705   0.657   2.149   6.730 -0.5344 -0.1807  0.6375
 8430TIP3    H246706   0.639   2.282   6.660  0.5495 -0.9209 -1.0736
 8431TIP3   OH246707   3.235   5.890  13.144  0.8050  0.1602  0.2873
 8431TIP3    H146708   3.223   5.985  13.154  1.4091  0.0589  2.2393
 8431TIP3    H246709   3.299   5.881  13.073 -0.3708  1.1385 -0.9305
 8432TIP3   OH246710   1.855   4.222  11.753  0.3194  0.0561  0.1999
 8432TIP3    H146711   1.783   4.255  11.699  0.8375  2.2801  0.7806
 8432TIP3    H246712   1.817   4.209  11.839  0.5339  1.0171  0.4495
 8433TIP3   OH246713   4.524   5.891   1.072  0.0525 -0.0386 -0.0025
 8433TIP3    H146714   4.472   5.842   1.008 -2.1196 -0.0708  1.7440
 8433TIP3    H246715   4.463   5.954   1.110  2.0712  1.9983 -0.0464
 8434TIP3   OH246716   5.095   5.920   4.232 -0.0189 -0.6910  0.5639
 8434TIP3    H146717   5.107   5.882   4.319 -2.5224 -0.8407  0.9033
 8434TIP3    H246718   5.181   5.916   4.191  1.3210 -0.1407  3.2180
 8435TIP3   OH246719   1.281   5.304  11.025  0.5917 -0.9290  0.6931
 8435TIP3    H146720   1.228   5.230  11.053  0.3329 -0.7490  0.6836
 8435TIP3    H246721   1.239   5.334  10.944  0.7008 -0.7786  0.6930
 8436TIP3   OH246722   1.079   2.085  12.024 -0.2795 -0.0017  0.1094
 8436TIP3    H146723   1.032   2.042  11.952 -0.0537 -0.9079  0.5001
 8436TIP3    H246724   1.161   2.035  12.032 -0.3155  0.0883  1.0128
 8437TIP3   OH246725   1.158   6.087   6.847  0.4034  0.6669  0.0781
 8437TIP3    H146726   1.070   6.053   6.832  0.1974  1.4954 -0.6582
 8437TIP3    H246727   1.200   6.082   6.760  0.5182  1.8464  0.0562
 8438TIP3   OH246728   6.039   0.569   4.543 -0.0310 -0.3257  0.6076
 8438TIP3    H146729   6.062   0.660   4.564  0.1627 -0.0937 -0.5893
 8438TIP3    H246730   6.109   0.539   4.486  1.4523 -2.1792  3.3054
 8439TIP3   OH246731   0.184   6.336   0.513  0.8425  0.1081  0.1158
 8439TIP3    H146732   0.156   6.324   0.422  3.4401  2.7213 -1.1049
 8439TIP3    H246733   0.168   6.428   0.532  1.9707  0.0091  1.7025
 8440TIP3   OH246734   6.182   5.280  13.853  0.0557 -0.0111  0.0352
 8440TIP3    H146735   6.249   5.273  13.921 -0.9376  0.6530  1.1022
 8440TIP3    H246736   6.182   5.373  13.829 -0.0590 -0.1236 -0.4089
 8441TIP3   OH246737   0.327   0.933  12.413  0.1830 -0.1467 -0.3587
 8441TIP3    H146738   0.279   0.991  12.472  0.2828 -0.8522  0.4303
 8441TIP3    H246739   0.279   0.938  12.331  0.0059  0.8044 -0.2126
 8442TIP3   OH246740   2.272   3.942  15.352  0.2600  0.2378  0.1047
 8442TIP3    H146741   2.315   3.867  15.393  1.2369  0.2300 -0.9151
 8442TIP3    H246742   2.181   3.916  15.342  0.0365  0.1603  2.0744
 8443TIP3   OH246743   0.114   6.593   0.564 -0.5030 -0.1614  0.2724
 8443TIP3    H146744   0.122   6.673   0.615  0.0402  0.4685 -0.7725
 8443TIP3    H246745   0.041   6.609   0.504 -0.7579 -0.6651  0.4415
 8444TIP3   OH246746   5.603   1.542   5.144 -0.4578  0.0072 -0.4541
 8444TIP3    H146747   5.609   1.450   5.119 -0.4279  0.0123 -0.4652
 8444TIP3    H246748   5.689   1.563   5.181 -0.6197 -0.1010 -0.0121
 8445TIP3   OH246749   0.044   3.653   5.698  0.1458 -0.1394 -0.4481
 8445TIP3    H146750   0.119   3.610   5.741  2.1769  1.7732 -1.9712
 8445TIP3    H246751   0.037   3.737   5.742 -0.5278  0.0563 -0.9394
 8446TIP3   OH246752   3.339   4.316  12.339 -0.4371 -0.1898 -0.0974
 8446TIP3    H146753   3.409   4.268  12.383 -0.4518 -1.0955 -1.0212
 8446TIP3    H246754   3.377   4.342  12.255 -1.0454 -0.2861 -0.4092
 8447TIP3   OH246755   0.433   6.086   4.622  0.5632  0.5044 -0.2363
 8447TIP3    H146756   0.447   6.067   4.715 -1.3472  0.5734  0.0778
 8447TIP3    H246757   0.412   6.179   4.620  3.5504  1.2109 -1.0839
 8448TIP3   OH246758   5.615   6.589   3.668  0.2157 -0.5293  0.0137
 8448TIP3    H146759   5.692   6.644   3.683  0.8247 -1.1864 -0.5834
 8448TIP3    H246760   5.551   6.647   3.629  0.4718 -0.0038  0.3721
 8449TIP3   OH246761   0.750   2.473  11.653  0.1138 -0.3261  0.7393
 8449TIP3    H146762   0.816   2.404  11.653 -0.9361 -1.3574  1.9931
 8449TIP3    H246763   0.670   2.430  11.623  0.0770  1.0144 -1.1853
 8450TIP3   OH246764   4.769   3.570  14.292 -0.3414 -0.1518  0.3129
 8450TIP3    H146765   4.762   3.558  14.198 -0.1478 -2.8443  0.6193
 8450TIP3    H246766   4.716   3.648  14.310 -2.6017 -1.1868 -1.6601
 8451TIP3   OH246767   1.393   1.037  13.730  0.3818 -0.0696  0.0112
 8451TIP3    H146768   1.339   1.068  13.802  0.7465 -1.7033  0.9952
 8451TIP3    H246769   1.448   1.113  13.707 -0.6628  0.8603  0.5599
 8452TIP3   OH246770   0.943   4.734   3.505 -0.1226  0.0770 -0.0573
 8452TIP3    H146771   0.984   4.684   3.435  0.0045  0.4946 -0.2829
 8452TIP3    H246772   0.924   4.820   3.466 -2.7746 -0.6595 -0.4664
 8453TIP3   OH246773   2.332   6.019  13.146 -0.5253  0.4952  0.4385
 8453TIP3    H146774   2.264   6.022  13.213 -0.3915 -2.6170  0.7695
 8453TIP3    H246775   2.414   6.011  13.195 -0.3787 -1.1795 -0.0522
 8454TIP3   OH246776   3.457   4.544  16.851 -0.2453  0.0801  0.8871
 8454TIP3    H146777   3.457   4.549  16.755  0.4808  1.0027  0.9251
 8454TIP3    H246778   3.548   4.558  16.876 -0.3776 -0.4976  1.6982
 8455TIP3   OH246779   2.226   3.153  11.473  0.1965 -0.4123 -0.2898
 8455TIP3    H146780   2.319   3.168  11.493  0.4236  1.3871 -2.4701
 8455TIP3    H246781   2.214   3.059  11.483  2.6355 -0.8958 -1.4161
 8456TIP3   OH246782   3.721   4.856  11.245  0.6531  0.3755 -0.1571
 8456TIP3    H146783   3.678   4.924  11.194  1.7474 -0.0380 -1.6523
 8456TIP3    H246784   3.658   4.784  11.250 -1.1838  2.0749  2.8546
 8457TIP3   OH246785   0.051   4.125   0.965 -0.0960  0.6152  0.1291
 8457TIP3    H146786  -0.002   4.201   0.942 -0.8192  0.2304  0.5121
 8457TIP3    H246787   0.055   4.127   1.060  0.5085  0.5927  0.1056
 8458TIP3   OH246788   3.633   1.409  12.624  0.2926 -0.6099 -0.0502
 8458TIP3    H146789   3.561   1.352  12.649  0.6542 -0.9563  0.1959
 8458TIP3    H246790   3.593   1.471  12.563 -0.5255  0.0526  1.1254
 8459TIP3   OH246791   5.603   0.630   2.479  0.3322  0.1238  0.1967
 8459TIP3    H146792   5.570   0.718   2.495 -0.2601 -0.2087  0.8095
 8459TIP3    H246793   5.525   0.575   2.474  0.5759 -0.0975 -1.9913
 8460TIP3   OH246794   0.638   3.105   2.693 -0.0022 -0.0542  0.0080
 8460TIP3    H146795   0.731   3.103   2.670 -0.1757 -0.9001 -0.6140
 8460TIP3    H246796   0.634   3.160   2.771  0.8638  1.0086 -0.6820
 8461TIP3   OH246797   1.451   4.510  14.150  0.2962 -0.4258 -0.2168
 8461TIP3    H146798   1.473   4.512  14.243 -0.6419 -2.4993  0.0761
 8461TIP3    H246799   1.535   4.496  14.105  0.4610 -1.6197  0.4570
 8462TIP3   OH246800   6.420   3.652   3.575  0.2158 -0.0217 -0.4220
 8462TIP3    H146801   6.339   3.695   3.547  1.7972  1.2799 -3.1991
 8462TIP3    H246802   6.469   3.720   3.620  0.6291 -0.2369 -0.5439
 8463TIP3   OH246803   6.474   4.303   2.185  0.0332 -0.5454  0.4177
 8463TIP3    H146804   6.488   4.215   2.149 -0.2366 -0.7446  0.8071
 8463TIP3    H246805   6.557   4.324   2.227  1.4228  0.8932 -2.8631
 8464TIP3   OH246806   1.755   3.197   5.842 -0.1198 -0.4163 -0.1305
 8464TIP3    H146807   1.798   3.123   5.885  0.4250  0.6914  1.2719
 8464TIP3    H246808   1.754   3.265   5.909  1.6993  1.7338 -2.2537
 8465TIP3   OH246809   6.559   1.269   6.000 -0.1544  0.5621 -0.1075
 8465TIP3    H146810   6.472   1.245   6.034  0.1454  1.1223  1.0826
 8465TIP3    H246811   6.541   1.342   5.940 -0.4571  0.9660  0.4710
 8466TIP3   OH246812   3.610   1.468   2.334 -0.5257  0.2151 -0.1016
 8466TIP3    H146813   3.596   1.504   2.421  0.4114  0.4541 -0.0429
 8466TIP3    H246814   3.675   1.526   2.294  0.3188 -0.8830 -0.3361
 8467TIP3   OH246815   5.920   1.889   4.919 -0.3659 -0.6093 -0.7006
 8467TIP3    H146816   5.914   1.814   4.860  1.2805 -1.4354  0.1530
 8467TIP3    H246817   5.885   1.963   4.868  0.1091 -1.4931 -2.3401
 8468TIP3   OH246818   2.348   3.694   1.990 -0.6457  0.0058  0.5653
 8468TIP3    H146819   2.365   3.626   1.925  0.4789 -0.1295  0.9914
 8468TIP3    H246820   2.418   3.683   2.055 -1.0634  0.9036  1.1702
 8469TIP3   OH246821   1.313   4.156  12.167  0.4358  0.3544 -0.1143
 8469TIP3    H146822   1.335   4.085  12.227 -1.5894 -0.2830 -0.0931
 8469TIP3    H246823   1.248   4.118  12.108  0.8464  1.5953 -1.4013
 8470TIP3   OH246824   4.068   1.940  16.249  0.5727  0.2800 -0.0279
 8470TIP3    H146825   4.094   1.850  16.228  2.4409  1.0400 -1.1719
 8470TIP3    H246826   4.112   1.959  16.332  2.6026  1.0604 -1.2215
 8471TIP3   OH246827   6.197   3.881   4.880  0.8687  0.6556 -0.0533
 8471TIP3    H146828   6.188   3.969   4.844 -1.0141  0.4201 -0.2370
 8471TIP3    H246829   6.152   3.885   4.964  0.7141 -0.1490 -0.0928
 8472TIP3   OH246830   3.104   6.175   1.366 -0.4365 -0.4649  0.6671
 8472TIP3    H146831   3.029   6.224   1.332  0.5808  0.6959  0.0430
 8472TIP3    H246832   3.154   6.151   1.288 -0.2469 -1.3993  1.0667
 8473TIP3   OH246833   4.448   3.926   1.361  0.9749  0.1280  0.2291
 8473TIP3    H146834   4.457   3.971   1.277  1.6034  0.1325  0.2952
 8473TIP3    H246835   4.531   3.943   1.406 -0.3143  2.2951  1.9149
 8474TIP3   OH246836   0.089   4.507   4.450  0.1535  0.5330 -0.3173
 8474TIP3    H146837   0.154   4.483   4.515 -0.3602 -0.2494 -0.0832
 8474TIP3    H246838   0.029   4.566   4.496  0.2184  0.5765 -0.2894
 8475TIP3   OH246839   3.076   1.331  15.090  1.0654 -0.2597  0.0623
 8475TIP3    H146840   3.121   1.321  15.007  0.5972  2.5011 -0.5714
 8475TIP3    H246841   3.132   1.391  15.140 -0.4426  0.9071  0.3638
 8476TIP3   OH246842   2.930   4.422  11.149 -0.2128  0.4368 -0.3266
 8476TIP3    H146843   2.878   4.404  11.071 -3.5493  2.8161  1.2555
 8476TIP3    H246844   2.890   4.368  11.217  0.6117  0.8278  0.4724
 8477TIP3   OH246845   3.966   2.358   3.719  1.1973  0.7971  0.0049
 8477TIP3    H146846   4.013   2.441   3.729  0.5384  1.1978 -0.1270
 8477TIP3    H246847   3.952   2.350   3.625  1.1933  0.5788  0.0252
 8478TIP3   OH246848   1.481   6.754  11.825  0.3636  0.1303 -0.4580
 8478TIP3    H146849   1.411   6.803  11.781 -1.6718 -1.1191  1.2478
 8478TIP3    H246850   1.483   6.789  11.913  1.2427 -0.5107 -0.2145
 8479TIP3   OH246851   0.596   5.290  14.996  0.2290  0.1192 -0.2804
 8479TIP3    H146852   0.637   5.350  14.934 -0.6413 -0.7137 -1.6905
 8479TIP3    H246853   0.658   5.218  15.003  0.4898  0.3809  0.0825
 8480TIP3   OH246854   3.310   6.206  14.990  0.5582 -0.2009 -0.3091
 8480TIP3    H146855   3.250   6.134  15.013  1.9905 -0.9847  1.1131
 8480TIP3    H246856   3.282   6.234  14.903 -1.4083 -1.0302  0.0308
 8481TIP3   OH246857   1.505   6.520   1.796  0.7045  0.2443  0.7438
 8481TIP3    H146858   1.591   6.558   1.778  0.4137  0.3986 -0.3160
 8481TIP3    H246859   1.462   6.516   1.711 -0.1184 -0.3826  1.1859
 8482TIP3   OH246860   6.196   1.924  13.968 -0.7265 -0.7014  0.0242
 8482TIP3    H146861   6.286   1.956  13.978 -0.7261 -0.7905  0.3269
 8482TIP3    H246862   6.200   1.866  13.892 -0.3224 -1.4307  0.5941
 8483TIP3   OH246863   1.553   4.087   5.382  0.3136  0.8979 -0.4097
 8483TIP3    H146864   1.517   4.062   5.467  3.0612  0.6382  0.7438
 8483TIP3    H246865   1.522   4.019   5.322 -1.0087  0.6404  0.5261
 8484TIP3   OH246866   6.465   5.058   3.544 -0.3169  0.1136 -0.3234
 8484TIP3    H146867   6.379   5.037   3.507 -0.7957 -0.6233  1.1723
 8484TIP3    H246868   6.453   5.144   3.584 -0.6638 -0.4515  0.8076
 8485TIP3   OH246869   1.424   5.562  16.463 -0.0335 -0.8910 -0.0126
 8485TIP3    H146870   1.499   5.594  16.514  0.1421 -0.3402 -0.6066
 8485TIP3    H246871   1.416   5.470  16.487 -0.1818 -0.5510  1.2976
 8486TIP3   OH246872   3.313   5.638   6.057 -0.1928 -0.2275 -0.2813
 8486TIP3    H146873   3.297   5.637   6.151  0.7444  1.7964 -0.0894
 8486TIP3    H246874   3.252   5.703   6.023  0.7785  0.3967 -0.8276
 8487TIP3   OH246875   2.638   2.336  16.792  0.1332  0.1080  0.4305
 8487TIP3    H146876   2.640   2.261  16.852  2.9844 -0.5672 -0.4425
 8487TIP3    H246877   2.649   2.298  16.705  0.1827  1.4025 -0.1397
 8488TIP3   OH246878   2.356   2.474   4.295  0.6928  0.1890  0.3926
 8488TIP3    H146879   2.277   2.439   4.253  1.1674  0.1470 -0.4809
 8488TIP3    H246880   2.398   2.397   4.334  1.7135 -0.2472 -1.4942
 8489TIP3   OH246881   0.753   4.358  11.924  0.2543  0.4315 -0.7272
 8489TIP3    H146882   0.712   4.413  11.990  0.9390  0.2056 -0.1053
 8489TIP3    H246883   0.691   4.286  11.911  1.1564 -0.7585  1.3736
 8490TIP3   OH246884   0.594   2.335   1.040  0.0706  0.3187 -0.0693
 8490TIP3    H146885   0.610   2.360   0.949 -0.1966  1.1523  0.1031
 8490TIP3    H246886   0.675   2.293   1.068 -0.5512 -1.7930 -1.3012
 8491TIP3   OH246887   2.896   0.350  11.357 -0.8928  0.1092 -0.4760
 8491TIP3    H146888   2.840   0.394  11.294 -0.5477  0.2901 -0.6624
 8491TIP3    H246889   2.968   0.315  11.304  0.7867  2.5272  0.1419
 8492TIP3   OH246890   5.588   5.916   3.822  0.5693  0.1186  0.4302
 8492TIP3    H146891   5.586   5.947   3.913  0.4708  0.6980  0.2315
 8492TIP3    H246892   5.555   5.990   3.771 -0.4915 -0.6127  0.0409
 8493TIP3   OH246893   2.768   5.425  16.777 -0.7037  0.7216  0.0644
 8493TIP3    H146894   2.738   5.359  16.714 -0.7793  0.5879  0.2376
 8493TIP3    H246895   2.722   5.403  16.858 -2.4959  2.3531 -0.4740
 8494TIP3   OH246896   2.330   4.172  15.817  0.0538  0.6176  0.2896
 8494TIP3    H146897   2.405   4.116  15.795 -0.7629 -0.8748  1.2398
 8494TIP3    H246898   2.301   4.206  15.733  0.4947 -0.4890 -0.3291
 8495TIP3   OH246899   0.455   6.635   2.101  0.2520  0.0298 -0.2842
 8495TIP3    H146900   0.549   6.618   2.103  0.7060  2.3549  0.2146
 8495TIP3    H246901   0.448   6.731   2.103 -2.1172 -0.0926 -0.7525
 8496TIP3   OH246902   6.272   5.422   6.019 -0.2279 -0.0097  0.5117
 8496TIP3    H146903   6.337   5.489   6.041  0.8873 -0.6611 -0.7350
 8496TIP3    H246904   6.310   5.340   6.051  0.7261 -0.7502 -2.4210
 8497TIP3   OH246905   4.757   0.602  13.919 -0.1910  0.2669 -0.7694
 8497TIP3    H146906   4.849   0.580  13.906 -0.3319 -0.2588 -0.9011
 8497TIP3    H246907   4.742   0.678  13.863 -0.6433 -1.6068 -3.2871
 8498TIP3   OH246908   1.682   3.472  14.157 -0.7983  0.0349 -0.3042
 8498TIP3    H146909   1.772   3.451  14.133 -0.3225  1.7970 -0.1471
 8498TIP3    H246910   1.645   3.515  14.079 -0.5193  2.0748  0.6476
 8499TIP3   OH246911   0.987   3.394  13.530  0.0938 -0.5621 -0.0979
 8499TIP3    H146912   1.048   3.463  13.500  0.6388 -0.8154  0.4129
 8499TIP3    H246913   0.993   3.398  13.626 -0.0880 -1.1335 -0.0661
 8500TIP3   OH246914   2.598   0.318  16.591 -0.0928  0.4005  0.0354
 8500TIP3    H146915   2.594   0.407  16.626  2.3640  1.3361 -1.8706
 8500TIP3    H246916   2.565   0.326  16.501 -3.6121 -1.4070  1.0856
 8501TIP3   OH246917   0.774   6.077  12.562 -0.1896  0.6428  0.1771
 8501TIP3    H146918   0.768   6.098  12.655  4.2284  0.2287  0.6425
 8501TIP3    H246919   0.797   5.984  12.559  0.1155  0.7464 -1.3330
 8502TIP3   OH246920   0.542   5.766  12.134  0.4391 -0.1615 -0.2708
 8502TIP3    H146921   0.466   5.796  12.183  1.1565  0.9301  0.1897
 8502TIP3    H246922   0.613   5.764  12.199  1.3896  1.2645 -1.2425
 8503TIP3   OH246923   0.606   4.731  13.324 -0.2810 -0.1622  0.2148
 8503TIP3    H146924   0.620   4.824  13.311  1.4794 -0.1811  1.7892
 8503TIP3    H246925   0.512   4.722  13.337 -0.1826  1.7262  2.4460
 8504TIP3   OH246926   1.512   0.566  13.878 -0.2359  0.3048 -0.3307
 8504TIP3    H146927   1.552   0.507  13.815 -0.7007 -0.5246  0.1477
 8504TIP3    H246928   1.550   0.652  13.859  0.7345 -0.2270 -0.7613
 8505TIP3   OH246929   2.077   0.375  12.093  0.0394 -0.4128 -0.1678
 8505TIP3    H146930   2.128   0.453  12.117 -2.8839  1.2446  0.9054
 8505TIP3    H246931   2.126   0.302  12.130  1.4895  1.1323  1.0730
 8506TIP3   OH246932   4.331   2.573   1.099 -0.8262 -0.0618 -0.1272
 8506TIP3    H146933   4.250   2.532   1.129 -1.8128  2.8342  1.3977
 8506TIP3    H246934   4.304   2.661   1.074  1.3052 -0.1259 -2.8145
 8507TIP3   OH246935   5.515   1.418   1.329  0.1948  0.6305  0.1935
 8507TIP3    H146936   5.472   1.503   1.331  1.0277  1.0891 -0.7323
 8507TIP3    H246937   5.589   1.427   1.389  0.0516  0.4337  0.3981
 8508TIP3   OH246938   1.431   6.639  13.753  0.4117 -0.6762  0.1385
 8508TIP3    H146939   1.384   6.566  13.712  0.6292 -0.3593 -0.6885
 8508TIP3    H246940   1.388   6.651  13.837 -1.6159  0.2419 -1.0197
 8509TIP3   OH246941   2.173   1.342  13.740  0.5416  0.6476  0.2854
 8509TIP3    H146942   2.099   1.300  13.783  1.0939 -1.7041 -0.9727
 8509TIP3    H246943   2.135   1.395  13.670 -0.0213  0.6264  0.5767
 8510TIP3   OH246944   4.135   1.814  15.435  0.2309 -0.1452 -0.4428
 8510TIP3    H146945   4.195   1.746  15.404  1.2995  0.9429 -0.7920
 8510TIP3    H246946   4.138   1.807  15.531 -2.2244 -2.7732 -0.5076
 8511TIP3   OH246947   5.157   4.326  12.665  0.4123 -0.2235  0.3097
 8511TIP3    H146948   5.166   4.406  12.613  0.5334  1.5214  2.9292
 8511TIP3    H246949   5.214   4.263  12.622  1.6632  1.6187 -0.8034
 8512TIP3   OH246950   4.015   4.927   6.125  0.8904  0.2036  0.0730
 8512TIP3    H146951   3.920   4.930   6.121  0.8029  0.4172  1.9079
 8512TIP3    H246952   4.043   5.017   6.108  0.8285 -0.1108 -1.7228
 8513TIP3   OH246953   4.076   3.350  13.156  0.1200  0.2209  0.0348
 8513TIP3    H146954   4.001   3.303  13.119  0.6207 -0.5954  0.0453
 8513TIP3    H246955   4.046   3.441  13.162 -0.3236  0.1873 -1.4232
 8514TIP3   OH246956   1.527   3.600  15.626 -0.1125 -0.0216  0.4509
 8514TIP3    H146957   1.559   3.513  15.648 -0.2867 -0.2830 -0.3215
 8514TIP3    H246958   1.432   3.595  15.633 -0.1540 -0.0385 -0.1150
 8515TIP3   OH246959   2.442   5.623  13.449 -0.2210 -0.5969  0.6603
 8515TIP3    H146960   2.363   5.677  13.457 -1.1191 -1.9836  1.5681
 8515TIP3    H246961   2.459   5.593  13.539  1.1782 -0.5545  0.4186
 8516TIP3   OH246962   3.322   3.284   3.370 -0.0821  0.0560 -0.1237
 8516TIP3    H146963   3.323   3.223   3.296 -0.6117 -0.9070  0.6550
 8516TIP3    H246964   3.310   3.228   3.447 -4.2881  1.4093  0.3058
 8517TIP3   OH246965   6.147   0.538  15.462  0.1246 -0.2730 -0.0169
 8517TIP3    H146966   6.083   0.603  15.433 -0.2067 -1.0934 -1.1521
 8517TIP3    H246967   6.228   0.587  15.473 -0.6439  0.7408  1.2401
 8518TIP3   OH246968   5.372   4.095   1.599  0.1563 -0.2181  0.4005
 8518TIP3    H146969   5.370   4.134   1.686 -0.8896 -0.2517  0.4057
 8518TIP3    H246970   5.398   4.166   1.541 -1.4178  0.4132  0.4512
 8519TIP3   OH246971   6.238   5.107   1.586  0.3965 -0.2768 -0.0347
 8519TIP3    H146972   6.160   5.118   1.532 -0.2105  1.2059  1.1035
 8519TIP3    H246973   6.218   5.032   1.642  0.8226 -1.4889 -1.4828
 8520TIP3   OH246974   1.043   0.572   0.413  0.6366  0.5581  0.3325
 8520TIP3    H146975   0.960   0.530   0.390  1.1311 -1.1160  1.4800
 8520TIP3    H246976   1.108   0.528   0.357  1.3659 -1.2927  2.5336
 8521TIP3   OH246977   4.821   3.632   2.112  0.0246 -0.2535 -0.0460
 8521TIP3    H146978   4.856   3.698   2.172 -1.3564 -0.6830  1.2803
 8521TIP3    H246979   4.801   3.680   2.032  3.0500  0.1026 -0.6431
 8522TIP3   OH246980   4.525   5.207   5.744  0.3495 -0.2408 -0.3527
 8522TIP3    H146981   4.555   5.116   5.755 -0.0295 -0.3627 -0.3118
 8522TIP3    H246982   4.429   5.200   5.746  0.3236  0.2093  0.0460
 8523TIP3   OH246983   4.497   0.109  12.200  0.0697 -0.2731  0.3814
 8523TIP3    H146984   4.573   0.159  12.230 -0.9510  0.2889  2.0554
 8523TIP3    H246985   4.462   0.161  12.128  0.1529  0.4353  0.8485
 8524TIP3   OH246986   0.540   4.423   3.105  0.1965  0.2087 -0.1023
 8524TIP3    H146987   0.536   4.485   3.178  0.8366  1.5815 -1.1869
 8524TIP3    H246988   0.469   4.362   3.121  0.9684 -0.1219  2.2023
 8525TIP3   OH246989   5.895   2.151  15.009  0.2755  0.4298 -0.2033
 8525TIP3    H146990   5.910   2.098  15.087 -0.3528 -0.4131 -0.6507
 8525TIP3    H246991   5.862   2.234  15.042 -0.8714 -0.2537  0.3861
 8526TIP3   OH246992   6.704   3.930   4.621  0.0160  0.4240  0.1044
 8526TIP3    H146993   6.700   3.953   4.714 -0.4022 -0.3316  0.2805
 8526TIP3    H246994   6.692   4.013   4.575 -0.3923  0.7137  0.7236
 8527TIP3   OH246995   5.641   0.925   4.107  0.1085 -0.6716 -0.7711
 8527TIP3    H146996   5.612   0.963   4.024 -1.9920 -1.0006 -0.2203
 8527TIP3    H246997   5.625   0.994   4.172 -2.6987 -2.0365  0.0612
 8528TIP3   OH246998   4.762   6.337  10.971  0.7291 -0.7443 -0.0729
 8528TIP3    H146999   4.747   6.400  11.042  0.7377 -2.0506  1.0882
 8528TIP3    H247000   4.742   6.387  10.891 -2.5195 -0.1857  1.0000
 8529TIP3   OH247001   6.350   5.083  16.790  0.2126 -0.1555  0.1609
 8529TIP3    H147002   6.383   5.145  16.856 -1.4839 -0.0099  0.8962
 8529TIP3    H247003   6.329   5.004  16.840  1.4154 -0.9822 -0.6263
 8530TIP3   OH247004   4.073   3.860  12.695  0.0076 -0.0168  0.3270
 8530TIP3    H147005   4.087   3.821  12.782  0.6961  0.9405  0.6461
 8530TIP3    H247006   4.116   3.799  12.635 -1.4144 -1.2683  0.5233
 8531TIP3   OH247007   4.042   3.386  14.739 -0.0897  0.1409 -0.6671
 8531TIP3    H147008   3.978   3.326  14.700 -0.5941  0.8050 -0.8548
 8531TIP3    H247009   3.991   3.443  14.796  0.2990  0.8647 -1.0460
 8532TIP3   OH247010   3.093   2.151   0.683 -0.3370  0.2692 -0.4900
 8532TIP3    H147011   3.056   2.213   0.621 -1.0139 -0.2350 -0.5958
 8532TIP3    H247012   3.031   2.150   0.756 -0.6457 -0.7214 -0.7523
 8533TIP3   OH247013   0.073   3.088   0.913  0.5601 -0.4953  0.3882
 8533TIP3    H147014   0.041   3.048   0.994 -0.0309 -2.3403 -0.7367
 8533TIP3    H247015   0.169   3.089   0.923  0.5194 -1.2554  0.8574
 8534TIP3   OH247016   3.621   5.661   4.217 -0.0216  0.6699  0.6246
 8534TIP3    H147017   3.686   5.725   4.245  0.9223 -0.5556  1.2427
 8534TIP3    H247018   3.539   5.692   4.256  0.8699  0.1751  2.9760
 8535TIP3   OH247019   3.820   5.638  11.375 -0.6556  0.3844  0.3255
 8535TIP3    H147020   3.846   5.630  11.467  0.6677  1.9303  0.1026
 8535TIP3    H247021   3.889   5.591  11.327 -0.2952  1.2369 -0.0017
 8536TIP3   OH247022   6.079   2.207  16.972 -0.5340 -0.5478  0.4850
 8536TIP3    H147023   6.156   2.152  16.962 -1.5619 -1.9856  0.3577
 8536TIP3    H247024   6.095   2.257  17.052  0.8415 -0.2745  0.0629
 8537TIP3   OH247025   4.690   0.310   0.322 -0.0734  0.4292 -0.0928
 8537TIP3    H147026   4.603   0.330   0.288 -0.1935  0.2127  0.0787
 8537TIP3    H247027   4.719   0.234   0.271 -0.2111  0.1683  0.2148
 8538TIP3   OH247028   0.793   2.020  13.660  0.6120 -0.3353  0.4790
 8538TIP3    H147029   0.769   2.022  13.753 -1.7551 -1.4624 -0.0691
 8538TIP3    H247030   0.870   1.962  13.657 -1.2076 -2.9039  1.3739
 8539TIP3   OH247031   2.251   3.372  15.516  0.4563 -0.3516  0.4033
 8539TIP3    H147032   2.222   3.446  15.464  1.5984 -0.6066 -0.6410
 8539TIP3    H247033   2.346   3.382  15.521  0.7302 -2.2390 -0.5589
 8540TIP3   OH247034   4.711   1.185   1.527  0.4678  0.3209  0.1623
 8540TIP3    H147035   4.678   1.155   1.611  0.3005  1.9018  0.6747
 8540TIP3    H247036   4.725   1.104   1.476  0.2818 -0.6166  1.5787
 8541TIP3   OH247037   4.388   1.995   5.102  0.0859  0.1845 -0.1188
 8541TIP3    H147038   4.429   1.910   5.090 -1.0418 -0.8001  2.5537
 8541TIP3    H247039   4.458   2.050   5.137  0.1301 -0.3949  0.7108
 8542TIP3   OH247040   6.753   6.307   3.854  0.1999 -0.6369  0.2948
 8542TIP3    H147041   6.783   6.315   3.764  1.7594 -3.1240  0.5581
 8542TIP3    H247042   6.708   6.222   3.857  0.2255 -0.6126  1.8802
 8543TIP3   OH247043   2.412   5.085  15.445 -0.3246 -0.2530 -0.2909
 8543TIP3    H147044   2.324   5.124  15.436 -0.8685 -1.6756 -1.2185
 8543TIP3    H247045   2.431   5.092  15.539 -1.4366  0.0700 -0.0746
 8544TIP3   OH247046   6.757   5.812   3.483 -0.4634  0.2898 -0.0831
 8544TIP3    H147047   6.681   5.854   3.443 -0.5848  1.7373  1.6193
 8544TIP3    H247048   6.833   5.858   3.447 -0.5293  0.8334  0.4594
 8545TIP3   OH247049   3.243   5.005  12.028  0.0943  0.4534 -0.6352
 8545TIP3    H147050   3.167   5.046  12.069 -0.3889 -0.1607 -0.9013
 8545TIP3    H247051   3.235   4.912  12.050  0.4297  0.2909 -1.1881
 8546TIP3   OH247052   3.324   3.140  12.477  0.6017  0.2590  0.2208
 8546TIP3    H147053   3.401   3.189  12.451  0.5134 -0.3761 -1.2579
 8546TIP3    H247054   3.269   3.138  12.399 -0.6447  0.1873  1.0822
 8547TIP3   OH247055   2.826   1.512  13.732  0.3298 -0.1907 -0.2034
 8547TIP3    H147056   2.739   1.516  13.770 -0.7730 -1.4244 -2.4672
 8547TIP3    H247057   2.886   1.508  13.806 -1.6090 -0.5177  1.3578
 8548TIP3   OH247058   2.006   0.079  16.314  0.5917  0.3890  0.0159
 8548TIP3    H147059   2.018   0.094  16.408 -0.9021  1.1540  0.1010
 8548TIP3    H247060   2.088   0.039  16.286  1.1734  0.4171  1.5903
 8549TIP3   OH247061   6.100   4.237  13.174  0.0842  0.0955 -0.0946
 8549TIP3    H147062   6.191   4.264  13.161  0.8183 -1.8793  0.6954
 8549TIP3    H247063   6.055   4.262  13.093  1.0424  2.1783 -0.0203
 8550TIP3   OH247064   6.483   4.844  12.020 -0.2551  0.3566  0.3324
 8550TIP3    H147065   6.514   4.755  12.034  0.7129  0.6875  0.3259
 8550TIP3    H247066   6.391   4.834  11.993  0.2016 -0.6952 -0.8594
 8551TIP3   OH247067   2.938   1.099   1.010 -0.3932  0.0635  0.0975
 8551TIP3    H147068   2.895   1.067   0.931  0.4507  0.5449 -0.5617
 8551TIP3    H247069   2.879   1.166   1.044  0.6113  1.8892 -1.7095
 8552TIP3   OH247070   2.527   3.526   6.388  0.4498  0.2367 -1.3202
 8552TIP3    H147071   2.469   3.479   6.327 -1.9523 -0.0382  1.0606
 8552TIP3    H247072   2.467   3.569   6.449  2.7552  1.9274 -0.1844
 8553TIP3   OH247073   2.604   2.159  13.635  0.3389 -0.0359  0.1877
 8553TIP3    H147074   2.548   2.181  13.560  0.0420  0.4549  0.5459
 8553TIP3    H247075   2.569   2.077  13.669 -0.7246  0.7256  0.9518
 8554TIP3   OH247076   4.505   1.377   1.731 -0.1864 -0.4694 -0.0410
 8554TIP3    H147077   4.565   1.344   1.664 -1.0520 -0.9738 -0.5646
 8554TIP3    H247078   4.457   1.447   1.687  0.6669  0.5651  0.6563
 8555TIP3   OH247079   1.211   0.966  11.117 -0.1630  0.1334  0.2537
 8555TIP3    H147080   1.255   1.026  11.177 -3.0514  1.7934  0.8254
 8555TIP3    H247081   1.217   1.008  11.031  0.3114 -0.1733  0.1357
 8556TIP3   OH247082   2.709   1.147  12.285 -0.1197 -0.3836 -0.4610
 8556TIP3    H147083   2.745   1.208  12.348 -0.2915  1.5970 -2.2398
 8556TIP3    H247084   2.629   1.114  12.326 -0.4064  1.1340  0.2215
 8557TIP3   OH247085   1.382   5.562   0.236  0.0591 -0.1596 -0.3018
 8557TIP3    H147086   1.414   5.638   0.284  1.0328 -1.3613  1.0126
 8557TIP3    H247087   1.405   5.487   0.292 -1.5567 -1.3662 -1.1950
 8558TIP3   OH247088   2.404   1.240   2.685 -0.0371 -0.1422 -0.3191
 8558TIP3    H147089   2.370   1.268   2.770 -1.0978 -0.4195 -0.6505
 8558TIP3    H247090   2.454   1.161   2.704 -1.7218 -1.2033 -0.1855
 8559TIP3   OH247091   0.780   2.705   3.463  0.2907  0.4823 -0.0931
 8559TIP3    H147092   0.812   2.710   3.373 -1.0480  1.3217 -0.5417
 8559TIP3    H247093   0.818   2.624   3.498 -0.3910 -0.6448 -1.9160
 8560TIP3   OH247094   2.295   4.387   4.076 -0.1487  0.5043 -0.1742
 8560TIP3    H147095   2.328   4.319   4.016  1.8975 -1.1539  2.6903
 8560TIP3    H247096   2.373   4.435   4.102 -0.7859  0.3002  2.2098
 8561TIP3   OH247097   0.361   5.755   4.325  0.0100  0.5068  0.4148
 8561TIP3    H147098   0.279   5.804   4.334 -0.1501  0.6347 -1.6039
 8561TIP3    H247099   0.337   5.664   4.343 -0.5903  0.5227 -0.3116
 8562TIP3   OH247100   0.512   1.670   5.751  0.4301  0.0869 -0.0047
 8562TIP3    H147101   0.489   1.589   5.705  0.8485 -0.8127  1.3607
 8562TIP3    H247102   0.509   1.737   5.683 -1.3022 -0.8361 -0.8741
 8563TIP3   OH247103   1.326   1.913   3.943 -0.0211 -1.1992  0.3868
 8563TIP3    H147104   1.337   1.962   4.025 -1.9574 -2.4057  1.4082
 8563TIP3    H247105   1.400   1.851   3.942  2.3660  1.5655 -0.8509
 8564TIP3   OH247106   5.190   5.613   2.264  0.2925  0.3704 -0.0085
 8564TIP3    H147107   5.137   5.687   2.234 -0.9688 -0.5623 -0.1351
 8564TIP3    H247108   5.152   5.589   2.348 -1.3645 -2.1021 -1.3842
 8565TIP3   OH247109   4.994   5.578  11.155 -0.0778  0.3358  0.6443
 8565TIP3    H147110   4.972   5.593  11.064  0.2802  1.6867  0.7642
 8565TIP3    H247111   5.016   5.485  11.160  0.6793  0.4256 -0.8038
 8566TIP3   OH247112   0.169   5.683  14.710  0.0148 -0.1039  0.0237
 8566TIP3    H147113   0.236   5.750  14.717  0.8523 -0.5252 -3.1377
 8566TIP3    H247114   0.110   5.715  14.642 -1.5368 -0.9686  0.9224
 8567TIP3   OH247115   4.456   5.290  15.197 -0.2171  0.3438  0.4218
 8567TIP3    H147116   4.370   5.252  15.176  0.6337 -1.2368 -0.2367
 8567TIP3    H247117   4.446   5.321  15.287 -1.2853 -0.3978  0.5732
 8568TIP3   OH247118   4.931   1.325   1.432  0.2318 -1.0308  0.1537
 8568TIP3    H147119   4.843   1.287   1.426  0.1093 -0.6683 -0.4301
 8568TIP3    H247120   4.921   1.397   1.494 -0.3217  0.1752 -1.2875
 8569TIP3   OH247121   4.466   0.598  15.183  0.1912 -0.6456 -0.2596
 8569TIP3    H147122   4.496   0.509  15.163  2.0642 -0.1238  0.1562
 8569TIP3    H247123   4.502   0.617  15.269 -1.5606 -0.0731  0.3682
 8570TIP3   OH247124   6.345   2.588  12.756  0.7581  0.3376  0.1541
 8570TIP3    H147125   6.269   2.530  12.747  1.0576  0.1541 -1.4287
 8570TIP3    H247126   6.405   2.542  12.814  0.0617  0.0451  0.6465
 8571TIP3   OH247127   3.416   4.085   0.679 -0.0496 -0.0968  0.0469
 8571TIP3    H147128   3.377   4.012   0.632  1.2896  0.0858 -1.3586
 8571TIP3    H247129   3.438   4.048   0.765  0.1389 -1.1965 -0.4624
 8572TIP3   OH247130   5.362   1.208  11.327  0.2027  0.2094 -0.2705
 8572TIP3    H147131   5.424   1.201  11.255 -0.2064  1.3416 -0.7517
 8572TIP3    H247132   5.360   1.302  11.348 -3.3372  0.5968 -2.0391
 8573TIP3   OH247133   2.872   3.499  13.769 -0.5774 -0.0319  0.2722
 8573TIP3    H147134   2.868   3.574  13.828 -0.7086  0.6311 -0.5627
 8573TIP3    H247135   2.929   3.436  13.813 -0.5666  0.5114  1.0348
 8574TIP3   OH247136   2.478   5.645  15.642 -0.3470  0.2484  0.4720
 8574TIP3    H147137   2.468   5.551  15.657 -0.4410  0.1363 -0.2769
 8574TIP3    H247138   2.411   5.685  15.698 -0.7783 -0.1705  0.2627
 8575TIP3   OH247139   3.207   2.607   1.490  0.1288  0.0746  0.0373
 8575TIP3    H147140   3.184   2.687   1.537 -0.0807 -0.5012  0.9385
 8575TIP3    H247141   3.136   2.546   1.511  0.9712 -0.7767  0.4807
 8576TIP3   OH247142   2.008   3.591   3.641 -0.1023 -0.0877  0.1721
 8576TIP3    H147143   2.080   3.544   3.683  0.7655  0.3396 -0.7884
 8576TIP3    H247144   1.972   3.528   3.578 -0.9536 -0.4977  1.0649
 8577TIP3   OH247145   5.844   3.260  11.313  0.1272  0.0309  0.0554
 8577TIP3    H147146   5.759   3.227  11.286  0.3826 -1.2178  0.7278
 8577TIP3    H247147   5.837   3.271  11.407  0.1457  1.6626 -0.1132
 8578TIP3   OH247148   3.979   4.883  15.017 -0.2756 -0.2270 -0.0972
 8578TIP3    H147149   3.892   4.846  15.036  0.4027 -1.4395  0.7365
 8578TIP3    H247150   4.040   4.812  15.039  1.1420  1.7974  2.7897
 8579TIP3   OH247151   6.487   0.052   0.016 -0.1708 -0.0249 -0.3650
 8579TIP3    H147152   6.440  -0.029  -0.001  1.7524 -0.9312 -1.5462
 8579TIP3    H247153   6.522   0.078  -0.069  3.8142 -0.9098  0.8814
 8580TIP3   OH247154   5.895   2.117   1.259 -0.7413  0.1973 -0.4341
 8580TIP3    H147155   5.976   2.093   1.304 -1.7496 -1.7288  0.4118
 8580TIP3    H247156   5.913   2.100   1.166 -0.5358 -1.3319 -0.1242
 8581TIP3   OH247157   6.154   1.479   5.872 -0.1188  0.4894  0.1743
 8581TIP3    H147158   6.157   1.558   5.817 -1.6394  1.3442  1.2675
 8581TIP3    H247159   6.108   1.507   5.951 -2.8606 -2.1007 -0.4211
 8582TIP3   OH247160   3.466   5.063   3.282 -0.2035  0.4960 -0.3406
 8582TIP3    H147161   3.373   5.082   3.271 -0.6304  0.8131  3.2692
 8582TIP3    H247162   3.494   5.120   3.353  2.2353 -1.0853  0.0237
 8583TIP3   OH247163   5.486   3.417  11.935 -0.4699 -0.4025  0.0650
 8583TIP3    H147164   5.478   3.487  12.000 -2.0374  1.4849 -2.0713
 8583TIP3    H247165   5.460   3.338  11.982  1.0124  0.4663  2.4340
 8584TIP3   OH247166   3.996   4.229   2.075 -0.0252  0.2796  0.2315
 8584TIP3    H147167   4.011   4.276   2.157  2.1725  0.6454 -0.3353
 8584TIP3    H247168   3.925   4.277   2.033 -1.9607 -0.6060  2.4052
 8585TIP3   OH247169   0.647   0.478   3.338 -0.1726  0.0944 -0.5010
 8585TIP3    H147170   0.715   0.545   3.341  0.5520 -0.6741  1.1810
 8585TIP3    H247171   0.569   0.521   3.371 -0.4434  0.8740 -2.0765
 8586TIP3   OH247172   6.159   3.488   2.470  0.4130 -0.3783  0.2093
 8586TIP3    H147173   6.209   3.474   2.390  0.3198  1.4736 -0.1981
 8586TIP3    H247174   6.070   3.459   2.448  0.0123  1.5790 -0.9029
 8587TIP3   OH247175   0.563   0.048  14.624 -0.4832  0.6878 -0.0336
 8587TIP3    H147176   0.593   0.100  14.698  1.3851 -2.0401  1.2201
 8587TIP3    H247177   0.469   0.069  14.617 -0.3078  2.3462  1.9527
 8588TIP3   OH247178   4.145   1.392   3.704 -0.4384  0.0540 -0.7817
 8588TIP3    H147179   4.173   1.482   3.718  0.4521 -0.2203 -0.7659
 8588TIP3    H247180   4.079   1.398   3.635  0.5602  0.5773 -1.7053
 8589TIP3   OH247181   6.594   4.840  11.768  0.5223 -0.0072  0.0022
 8589TIP3    H147182   6.555   4.865  11.852  1.8490 -1.1974  1.0050
 8589TIP3    H247183   6.573   4.912  11.709 -0.1204  1.0240  1.4606
 8590TIP3   OH247184   5.860   3.311  13.922  0.4771  0.2379  0.3278
 8590TIP3    H147185   5.817   3.254  13.986  0.6121 -1.1799 -0.7961
 8590TIP3    H247186   5.943   3.268  13.903  0.4512  0.6353 -0.7628
 8591TIP3   OH247187   4.815   4.638  14.678 -0.5052 -0.0621 -0.1205
 8591TIP3    H147188   4.793   4.652  14.770  0.8716  0.2198  0.1695
 8591TIP3    H247189   4.907   4.661  14.671 -0.6415  0.0773 -1.6130
 8592TIP3   OH247190   3.492   6.480  16.908 -0.1586 -0.0179 -0.4193
 8592TIP3    H147191   3.499   6.576  16.907  1.1539 -0.1034 -1.3131
 8592TIP3    H247192   3.448   6.460  16.990 -0.7937  1.3799 -0.4024
 8593TIP3   OH247193   6.763   5.473  11.803  0.0724  0.1438  0.2644
 8593TIP3    H147194   6.730   5.473  11.893  1.9599  2.1305  0.9944
 8593TIP3    H247195   6.760   5.565  11.776  0.3786 -0.3156 -1.3997
 8594TIP3   OH247196   3.507   0.919  15.279 -0.0790 -0.1506 -0.4283
 8594TIP3    H147197   3.590   0.964  15.290 -0.1260  0.2644 -1.7151
 8594TIP3    H247198   3.531   0.831  15.249 -0.0123 -0.8380  1.5535
 8595TIP3   OH247199   1.287   0.742   0.220 -0.2421 -0.0102 -0.4221
 8595TIP3    H147200   1.236   0.803   0.273  0.5957  1.9009 -1.7840
 8595TIP3    H247201   1.268   0.656   0.258 -1.4374  1.0777  1.5204
 8596TIP3   OH247202   1.782   1.951  16.745 -0.5241 -0.4850  0.3921
 8596TIP3    H147203   1.756   2.010  16.674 -1.0180 -1.5209 -0.3114
 8596TIP3    H247204   1.805   2.009  16.817  0.7729  0.6194 -0.8837
 8597TIP3   OH247205   4.519   5.139  10.799 -0.3748  0.4508 -0.3050
 8597TIP3    H147206   4.526   5.186  10.716 -0.1696  0.3498 -0.3467
 8597TIP3    H247207   4.517   5.047  10.774 -1.5452  0.4670 -0.2725
 8598TIP3   OH247208   1.816   0.604   5.849 -0.5342  0.1278 -0.4221
 8598TIP3    H147209   1.859   0.572   5.770  1.1851  1.8300 -0.2091
 8598TIP3    H247210   1.779   0.689   5.823  1.1072  1.2884  0.8854
 8599TIP3   OH247211   0.914   4.706  12.473 -0.2098  0.3288 -0.0641
 8599TIP3    H147212   0.871   4.791  12.462  2.0689  1.3910 -1.2466
 8599TIP3    H247213   0.994   4.713  12.421  0.0747 -2.5269 -0.0903
 8600TIP3   OH247214   5.020   2.765   4.840  0.5269 -0.6246  0.1399
 8600TIP3    H147215   5.094   2.773   4.901  0.1575 -1.6892  0.7496
 8600TIP3    H247216   5.014   2.671   4.823  0.9575 -0.2957 -1.9714
 8601TIP3   OH247217   0.967   6.487  12.537 -0.4347  0.3593  0.5894
 8601TIP3    H147218   1.058   6.515  12.535 -0.4311  0.4893  2.1497
 8601TIP3    H247219   0.968   6.400  12.497 -0.0166  1.3326 -1.5969
 8602TIP3   OH247220   6.567   4.242   3.532 -0.5800 -0.2427 -0.0700
 8602TIP3    H147221   6.662   4.230   3.533 -0.4113  0.9663  0.7909
 8602TIP3    H247222   6.550   4.300   3.606 -1.8823  0.3203 -0.7885
 8603TIP3   OH247223   6.267   3.941  12.149  0.2401 -0.3470  0.0656
 8603TIP3    H147224   6.216   3.942  12.069 -1.0123  1.6512  0.8366
 8603TIP3    H247225   6.358   3.930  12.120 -0.2951 -0.5067 -1.5598
 8604TIP3   OH247226   3.836   1.176   0.835  0.2344 -0.1194  0.6102
 8604TIP3    H147227   3.930   1.168   0.817  0.1906  0.1127  0.2775
 8604TIP3    H247228   3.805   1.085   0.837  0.7006 -0.2552  2.0198
 8605TIP3   OH247229   0.461   6.449   4.074 -0.2035  0.0118 -0.2963
 8605TIP3    H147230   0.447   6.531   4.122 -1.1949  0.8625 -1.9939
 8605TIP3    H247231   0.468   6.382   4.142 -1.3340  1.2241  1.0385
 8606TIP3   OH247232   3.180   5.654  16.726 -0.2181  0.2455 -0.1910
 8606TIP3    H147233   3.132   5.585  16.773  0.6610  1.1151  2.0351
 8606TIP3    H247234   3.143   5.736  16.758  0.3599  0.8745 -1.0783
 8607TIP3   OH247235   3.810   1.736  14.702  0.5688 -0.2146 -0.1507
 8607TIP3    H147236   3.839   1.653  14.665  0.9405 -1.0479  1.9685
 8607TIP3    H247237   3.845   1.737  14.791 -1.0020  1.3845  0.4877
 8608TIP3   OH247238   6.780   6.333  16.581  0.1574 -0.6928  0.6860
 8608TIP3    H147239   6.775   6.428  16.592 -1.6932 -0.8295  1.1603
 8608TIP3    H247240   6.869   6.311  16.608  0.3644  0.8108  1.2982
 8609TIP3   OH247241   2.585   4.864   3.822  0.3271  0.0667 -0.2141
 8609TIP3    H147242   2.568   4.955   3.797  3.9757  1.1300  0.8803
 8609TIP3    H247243   2.608   4.869   3.915 -0.3953 -2.1180  0.1077
 8610TIP3   OH247244   6.066   2.844   0.207  0.4745  0.6480  0.3520
 8610TIP3    H147245   6.110   2.908   0.151  0.6822  1.2107  1.1316
 8610TIP3    H247246   6.137   2.789   0.240  0.3485  0.2879  0.0083
 8611TIP3   OH247247   6.499   3.023   6.111 -0.2870 -0.7036  0.3522
 8611TIP3    H147248   6.469   2.932   6.115  0.6224 -0.9759  1.0722
 8611TIP3    H247249   6.576   3.020   6.055  0.3385 -0.5469  1.1977
 8612TIP3   OH247250   2.628   2.716   5.170 -0.2469  0.1130  0.0969
 8612TIP3    H147251   2.622   2.795   5.223 -2.6139  0.2164 -0.2598
 8612TIP3    H247252   2.590   2.647   5.224 -1.0849 -0.1303 -0.7803
 8613TIP3   OH247253   3.714   2.107   5.081 -0.6538  0.5089  0.0747
 8613TIP3    H147254   3.722   2.086   5.174 -1.0505  2.9388  0.7051
 8613TIP3    H247255   3.804   2.116   5.051 -0.4712 -1.9618 -0.2247
 8614TIP3   OH247256   0.257   1.813   4.423 -0.7010  0.2332  0.0460
 8614TIP3    H147257   0.259   1.724   4.388 -0.3340 -0.1658  1.0509
 8614TIP3    H247258   0.238   1.801   4.516  2.1256  0.9951  0.7856
 8615TIP3   OH247259   0.598   3.866   5.045  0.3826  0.2828  0.1359
 8615TIP3    H147260   0.683   3.834   5.075  0.3609 -0.0274 -0.1292
 8615TIP3    H247261   0.541   3.860   5.122  0.4572 -0.0327  0.1667
 8616TIP3   OH247262   5.814   5.044  15.075  0.1958 -0.0470  0.0831
 8616TIP3    H147263   5.728   5.013  15.045 -0.5032  2.7074 -0.9634
 8616TIP3    H247264   5.877   4.986  15.033 -1.1240 -1.6158  0.2428
 8617TIP3   OH247265   5.263   3.924   0.161  0.2735 -0.1419  0.2072
 8617TIP3    H147266   5.332   3.869   0.124 -1.9092 -2.1839 -0.9364
 8617TIP3    H247267   5.236   3.981   0.089 -0.4001 -0.5313  0.1477
 8618TIP3   OH247268   0.558   6.526  11.671  0.4791 -0.2676  0.1491
 8618TIP3    H147269   0.622   6.485  11.729  0.6662 -1.5371 -0.9143
 8618TIP3    H247270   0.489   6.461  11.661 -0.4945  0.7020  0.4854
 8619TIP3   OH247271   3.418   0.849  11.550 -0.3849  0.0319 -0.8862
 8619TIP3    H147272   3.344   0.812  11.503  0.1807 -1.1613 -0.8375
 8619TIP3    H247273   3.379   0.918  11.604 -1.6427 -1.3601  0.0271
 8620TIP3   OH247274   6.447   1.379   0.914 -0.4808  0.0877 -0.4771
 8620TIP3    H147275   6.495   1.298   0.896  0.5122  0.6831 -0.5706
 8620TIP3    H247276   6.474   1.439   0.845 -2.9424 -0.1844 -1.7171
 8621TIP3   OH247277   3.966   4.851  13.947  0.1258  0.2407  0.2922
 8621TIP3    H147278   3.916   4.932  13.938 -0.4354 -0.0071  1.2019
 8621TIP3    H247279   3.914   4.785  13.901  0.7651  0.4563 -0.7754
 8622TIP3   OH247280   3.030   2.952   2.024 -0.5178 -0.1984 -0.1170
 8622TIP3    H147281   3.060   3.010   2.093 -1.7581  0.2634  0.0478
 8622TIP3    H247282   2.981   2.883   2.070  1.5921 -1.8270 -0.2335
 8623TIP3   OH247283   3.705   3.691  16.203 -0.7949 -0.5745 -0.5920
 8623TIP3    H147284   3.748   3.691  16.118 -0.7704  1.0103 -0.5831
 8623TIP3    H247285   3.620   3.732  16.187 -1.3862 -1.5969 -0.1420
 8624TIP3   OH247286   4.918   4.044  15.638  0.2963 -0.0589  0.5254
 8624TIP3    H147287   4.927   4.069  15.546 -0.3589  0.2806  0.5509
 8624TIP3    H247288   4.843   4.095  15.669  2.2266  1.9855  1.9882
 8625TIP3   OH247289   4.865   0.238  15.428  0.0365 -0.3665  0.2132
 8625TIP3    H147290   4.912   0.170  15.478  0.5879  0.9622  1.5290
 8625TIP3    H247291   4.933   0.302  15.405 -0.5613 -0.0277 -0.6435
 8626TIP3   OH247292   1.191   5.422  15.363 -0.3258 -0.4843  0.5369
 8626TIP3    H147293   1.189   5.327  15.374 -0.0272 -0.3952  1.3253
 8626TIP3    H247294   1.266   5.451  15.414 -1.2952  0.3427  1.5089
 8627TIP3   OH247295   6.659   5.917  13.948 -0.0496 -0.4249 -0.3515
 8627TIP3    H147296   6.723   5.983  13.975 -1.1938  0.4677  0.2292
 8627TIP3    H247297   6.577   5.947  13.985 -0.3501 -2.9104  1.0971
 8628TIP3   OH247298   4.448   2.448  16.099  0.1895 -0.1145  0.0328
 8628TIP3    H147299   4.433   2.481  16.010  1.1945  1.4967  0.4430
 8628TIP3    H247300   4.375   2.482  16.150 -0.3160 -0.9292 -0.1381
 8629TIP3   OH247301   1.645   3.638   4.193  0.3519  0.0851  0.4081
 8629TIP3    H147302   1.703   3.714   4.198  0.7710 -0.2457  0.5575
 8629TIP3    H247303   1.571   3.668   4.139  0.3670  0.6911  0.7246
 8630TIP3   OH247304   1.673   6.524   0.785  0.3830  0.2290  0.0138
 8630TIP3    H147305   1.761   6.525   0.823  0.7170 -3.9481 -0.4057
 8630TIP3    H247306   1.629   6.451   0.829 -1.0963 -1.0783 -3.4557
 8631TIP3   OH247307   2.297   4.762  15.117  0.0345 -0.1252 -0.6173
 8631TIP3    H147308   2.219   4.815  15.133  0.3871  0.6823 -1.5468
 8631TIP3    H247309   2.265   4.686  15.068 -0.8045 -1.8352  2.4434
 8632TIP3   OH247310   1.136   1.426  16.877  0.4060  0.2874  0.2735
 8632TIP3    H147311   1.163   1.415  16.968  1.1372  1.6826  0.2369
 8632TIP3    H247312   1.057   1.480  16.881 -0.2776 -0.6852  0.1450
 8633TIP3   OH247313   2.419   2.211  15.103  0.3306  0.3713 -0.2529
 8633TIP3    H147314   2.416   2.306  15.113  0.0684  0.3955 -0.5899
 8633TIP3    H247315   2.447   2.180  15.189 -0.9549  0.6662  0.2793
 8634TIP3   OH247316   0.759   2.666  15.159  0.4822 -1.1103 -0.1243
 8634TIP3    H147317   0.800   2.616  15.088 -0.0225 -0.1163 -1.1350
 8634TIP3    H247318   0.753   2.755  15.125 -1.3295 -0.9758  0.4883
 8635TIP3   OH247319   1.691   4.685  14.409 -0.0598 -0.2224 -0.0592
 8635TIP3    H147320   1.765   4.632  14.379  0.3822  1.1180 -1.3883
 8635TIP3    H247321   1.691   4.761  14.351 -0.7882  1.1616  1.7278
 8636TIP3   OH247322   0.204   1.467  16.030 -0.8316  0.2280 -0.7705
 8636TIP3    H147323   0.111   1.479  16.013 -0.9165 -0.6774 -0.9957
 8636TIP3    H247324   0.244   1.463  15.943 -0.5539  0.8380 -0.6699
 8637TIP3   OH247325   5.689   3.702   5.446  0.0981  0.5101 -0.8599
 8637TIP3    H147326   5.669   3.693   5.539 -1.7418 -0.3220 -1.3210
 8637TIP3    H247327   5.741   3.625   5.425  1.4310  1.2410 -0.2948
 8638TIP3   OH247328   0.671   2.424  16.136  0.2155  0.2155  0.5941
 8638TIP3    H147329   0.609   2.369  16.088  1.4820 -0.4772 -0.2700
 8638TIP3    H247330   0.665   2.509  16.093  0.6877 -0.1599 -0.2299
 8639TIP3   OH247331   2.707   1.216   2.682  0.2145 -0.0310 -0.1006
 8639TIP3    H147332   2.651   1.144   2.709 -1.7901  1.0908 -1.1612
 8639TIP3    H247333   2.712   1.210   2.587  0.4581  0.9147 -0.1597
 8640TIP3   OH247334   3.054   2.388   3.591  0.3211  0.0923 -0.6632
 8640TIP3    H147335   3.060   2.443   3.513  0.2199  0.1043 -0.6632
 8640TIP3    H247336   2.961   2.391   3.615  0.3974  0.3004 -0.3895
 8641TIP3   OH247337   5.935   3.581  11.354 -0.4390  0.5466 -0.0093
 8641TIP3    H147338   5.958   3.502  11.307 -0.2071  1.0790 -0.7967
 8641TIP3    H247339   6.002   3.590  11.422 -0.5952 -0.0470  0.2198
 8642TIP3   OH247340   3.485   2.404  11.533  1.3485  0.2882 -0.3482
 8642TIP3    H147341   3.486   2.475  11.469 -0.2945  0.3671 -0.3111
 8642TIP3    H247342   3.466   2.447  11.616 -1.4277 -0.3489 -0.5938
 8643TIP3   OH247343   1.286   3.519   4.877  0.5487  0.0802  0.3319
 8643TIP3    H147344   1.232   3.594   4.903  0.0532 -0.7681  1.8110
 8643TIP3    H247345   1.325   3.545   4.793 -3.4672  0.0712 -1.6621
 8644TIP3   OH247346   4.936   1.550  16.764  0.0242 -0.0123  0.5293
 8644TIP3    H147347   4.942   1.512  16.852  0.1707  0.2383  0.6253
 8644TIP3    H247348   5.025   1.543  16.729 -0.4878 -2.0908 -0.4272
 8645TIP3   OH247349   5.269   2.764  13.841 -0.6678 -0.0299 -0.4644
 8645TIP3    H147350   5.278   2.686  13.787 -0.0649 -1.4371  1.6233
 8645TIP3    H247351   5.174   2.780  13.842 -0.9348 -1.5629  0.2346
 8646TIP3   OH247352   1.217   1.785  10.756  0.2673 -0.8282  0.0685
 8646TIP3    H147353   1.124   1.799  10.735  0.2516  1.5169  1.4368
 8646TIP3    H247354   1.222   1.694  10.786 -1.7517 -0.7145  0.7977
 8647TIP3   OH247355   0.849   4.670  12.752 -0.3657 -0.0958 -0.4674
 8647TIP3    H147356   0.879   4.665  12.662  0.2724  1.0313 -0.3270
 8647TIP3    H247357   0.756   4.646  12.748 -0.7942  1.6535 -1.6837
 8648TIP3   OH247358   5.630   0.095   0.392 -0.2054 -0.1005 -0.1483
 8648TIP3    H147359   5.609   0.128   0.480  0.6457  0.7021 -0.2391
 8648TIP3    H247360   5.560   0.033   0.373  0.0438 -0.9093  1.4449
 8649TIP3   OH247361   2.960   1.559   3.236  0.1807 -0.1235  0.0251
 8649TIP3    H147362   2.943   1.559   3.331  0.1517 -1.4508  0.0312
 8649TIP3    H247363   3.018   1.634   3.222 -2.0087  1.7458  0.6888
 8650TIP3   OH247364   3.721   2.787  17.051 -0.2613 -0.0622 -0.6834
 8650TIP3    H147365   3.761   2.767  17.136 -0.0873 -0.8756 -0.9485
 8650TIP3    H247366   3.633   2.818  17.072 -1.7629 -4.2067 -0.3713
 8651TIP3   OH247367   2.969   5.118   2.435 -0.3655  0.5932  0.0935
 8651TIP3    H147368   2.961   5.180   2.362 -2.2489 -0.7898 -0.9243
 8651TIP3    H247369   3.060   5.089   2.431  0.0413  1.8975 -0.5723
 8652TIP3   OH247370   0.481   3.504   2.018  0.7197  0.1989  0.0684
 8652TIP3    H147371   0.485   3.549   1.934 -1.8701  0.5981  0.0995
 8652TIP3    H247372   0.486   3.411   1.995  0.5451  0.3229 -0.4921
 8653TIP3   OH247373   5.742   1.328  15.611 -0.1156  0.8127  0.2104
 8653TIP3    H147374   5.720   1.279  15.531  0.8854  1.2108 -0.3122
 8653TIP3    H247375   5.794   1.267  15.663 -0.1301  0.8137  0.2262
 8654TIP3   OH247376   4.084   3.783  13.490  0.3345 -0.5764 -0.7047
 8654TIP3    H147377   4.114   3.706  13.538  1.0866 -0.7643 -1.4629
 8654TIP3    H247378   3.990   3.788  13.509  1.0257  0.7121  2.6752
 8655TIP3   OH247379   3.207   3.067  15.829  0.7430 -0.2458 -0.1538
 8655TIP3    H147380   3.287   3.086  15.879  2.0198 -1.7903 -1.5630
 8655TIP3    H247381   3.162   3.000  15.879  0.6928  0.0930  0.2589
 8656TIP3   OH247382   4.877   4.067  16.670 -0.3359 -0.1188  0.1666
 8656TIP3    H147383   4.963   4.108  16.680  0.4914 -1.2402 -1.8154
 8656TIP3    H247384   4.857   4.033  16.757  1.0409  0.5135  0.7631
 8657TIP3   OH247385   5.434   5.974  14.615  0.3496 -0.3567 -0.6573
 8657TIP3    H147386   5.446   5.907  14.682  0.5282  1.6924  1.4267
 8657TIP3    H247387   5.443   6.057  14.662 -1.4294  1.1503 -2.8553
 8658TIP3   OH247388   2.696   2.828   0.011 -0.4200  0.5256 -0.1051
 8658TIP3    H147389   2.705   2.853   0.103 -2.3729  0.6726  0.0555
 8658TIP3    H247390   2.696   2.911  -0.036  0.4945  0.4537 -0.2459
 8659TIP3   OH247391   2.674   4.870  16.668 -0.3654 -0.5233  0.2905
 8659TIP3    H147392   2.597   4.924  16.686  0.9940  1.3187  0.7365
 8659TIP3    H247393   2.663   4.842  16.577 -0.2937  1.9379 -0.5180
 8660TIP3   OH247394   3.854   3.956  11.595  0.2011 -0.0119  0.4212
 8660TIP3    H147395   3.911   3.890  11.635 -0.7293  0.0598  1.9041
 8660TIP3    H247396   3.768   3.914  11.592  0.1009  0.2552 -0.8613
 8661TIP3   OH247397   1.399   5.254  14.947  0.2018 -0.4512  0.4603
 8661TIP3    H147398   1.367   5.167  14.970 -1.1521 -0.1204 -0.1355
 8661TIP3    H247399   1.320   5.305  14.930  1.0514  0.2627 -1.4718
 8662TIP3   OH247400   3.363   5.162  15.965  0.2145  0.0860  0.0003
 8662TIP3    H147401   3.406   5.077  15.973  3.0561  1.0997 -3.2413
 8662TIP3    H247402   3.402   5.215  16.035 -1.2123 -1.0443  1.7162
 8663TIP3   OH247403   2.086   0.831   4.744  0.0132 -0.4908  0.3324
 8663TIP3    H147404   2.166   0.878   4.769  0.6530 -0.0353 -2.4621
 8663TIP3    H247405   2.015   0.885   4.779  0.8443  0.4812  0.5534
 8664TIP3   OH247406   5.061   0.286   1.958  0.3403  0.0196 -0.3481
 8664TIP3    H147407   5.055   0.190   1.955  0.2588  0.0634 -2.1012
 8664TIP3    H247408   4.972   0.317   1.942  0.4128  0.3879 -0.0429
 8665TIP3   OH247409   6.138   4.084  16.422 -0.0929 -0.4970  0.0643
 8665TIP3    H147410   6.144   4.045  16.335  2.4047  0.7348 -0.3582
 8665TIP3    H247411   6.168   4.015  16.481 -2.5346 -1.6028  0.0706
 8666TIP3   OH247412   1.946   4.520  15.464 -0.0953  0.0446 -0.0568
 8666TIP3    H147413   1.906   4.499  15.379  0.1452  1.4138 -0.5094
 8666TIP3    H247414   1.894   4.470  15.527 -0.2791 -0.9830 -1.0025
 8667TIP3   OH247415   4.026   3.687  15.781 -0.0543  0.3783 -0.1684
 8667TIP3    H147416   4.063   3.762  15.734  0.1613  0.3504 -0.0430
 8667TIP3    H247417   4.091   3.618  15.770  0.0124  0.3835  0.2072
 8668TIP3   OH247418   5.450   6.653  13.374 -0.0012  0.1681 -0.4613
 8668TIP3    H147419   5.423   6.653  13.466 -0.6730 -2.3990 -0.6361
 8668TIP3    H247420   5.492   6.568  13.361  2.5194  1.5771 -1.8512
 8669TIP3   OH247421   0.127   4.439   5.286 -0.5553 -0.4044 -0.0032
 8669TIP3    H147422   0.144   4.451   5.380  0.4809 -1.3972 -0.0464
 8669TIP3    H247423   0.032   4.438   5.279 -0.6412  0.0072  0.9969
 8670TIP3   OH247424   2.029   1.506   6.228 -0.0963 -0.0088 -0.1176
 8670TIP3    H147425   1.979   1.547   6.157  0.5430  0.3364 -0.3776
 8670TIP3    H247426   1.988   1.421   6.240 -1.8404  0.9606  0.8622
 8671TIP3   OH247427   0.398   3.068   3.530 -0.1493 -0.0889  0.6959
 8671TIP3    H147428   0.414   2.977   3.555 -2.7589 -0.5128  1.0316
 8671TIP3    H247429   0.306   3.083   3.553  0.2785  2.7004  0.8219
 8672TIP3   OH247430   5.399   3.056  11.114 -0.2269  0.5208  0.3362
 8672TIP3    H147431   5.449   3.134  11.092  1.8946 -1.1318 -0.9431
 8672TIP3    H247432   5.343   3.041  11.038 -2.0684  1.8626  1.3944
 8673TIP3   OH247433   0.903   1.206   0.657 -0.7140 -0.1813 -0.5648
 8673TIP3    H147434   0.933   1.115   0.650 -1.2095 -0.3041 -1.1800
 8673TIP3    H247435   0.809   1.199   0.674 -1.8302  0.1947 -5.6833
 8674TIP3   OH247436   1.118   1.645  11.165 -0.1282 -1.0485  0.0750
 8674TIP3    H147437   1.044   1.660  11.224  0.6826  0.9148  0.6541
 8674TIP3    H247438   1.141   1.553  11.176 -3.2040 -1.9905 -0.9767
 8675TIP3   OH247439   3.035   4.923  16.813  0.4316 -0.3201  0.0448
 8675TIP3    H147440   3.093   4.863  16.860  1.9289  1.3818  0.4154
 8675TIP3    H247441   3.077   5.009  16.821 -3.2196  1.4047  2.2107
 8676TIP3   OH247442   2.197   3.863   2.811  0.2332  0.5477  0.2883
 8676TIP3    H147443   2.160   3.883   2.897 -0.9234 -1.1084  0.2008
 8676TIP3    H247444   2.280   3.820   2.830  0.1364  0.4800  0.5632
 8677TIP3   OH247445   0.083   2.795   2.608  0.4834 -0.7587  0.7664
 8677TIP3    H147446   0.132   2.871   2.641  0.3315 -1.3476  2.4046
 8677TIP3    H247447   0.080   2.808   2.513 -1.5181  2.4525  1.1895
 8678TIP3   OH247448   3.891   6.349  12.301 -0.5643 -0.7218  0.3036
 8678TIP3    H147449   3.831   6.286  12.341 -0.3612 -2.3890 -1.9422
 8678TIP3    H247450   3.958   6.295  12.259 -0.3989  0.9731 -1.6741
 8679TIP3   OH247451   6.427   6.175   0.535  0.3271 -0.5417  0.4954
 8679TIP3    H147452   6.493   6.135   0.478 -0.3961 -0.6772 -0.2578
 8679TIP3    H247453   6.473   6.194   0.616  0.9149 -2.0417  0.5188
 8680TIP3   OH247454   1.706   6.390   2.820 -0.3068  0.5817 -0.1191
 8680TIP3    H147455   1.749   6.346   2.893  0.0964  2.3517  0.7233
 8680TIP3    H247456   1.614   6.398   2.847  0.2443  3.0688  1.0964
 8681TIP3   OH247457   6.253   6.453  12.973 -0.0491  0.2928 -0.2496
 8681TIP3    H147458   6.300   6.517  13.026 -1.2376  0.5393  0.5257
 8681TIP3    H247459   6.164   6.488  12.968  0.2021  0.6666 -3.0068
 8682TIP3   OH247460   4.967   1.922   5.685 -0.3315 -0.0827  0.3934
 8682TIP3    H147461   5.058   1.926   5.714  0.0466 -0.3960 -0.7326
 8682TIP3    H247462   4.956   1.832   5.653 -1.0821 -0.0915  0.6754
 8683TIP3   OH247463   4.814   4.476  15.954 -0.8052  1.0327 -0.5296
 8683TIP3    H147464   4.796   4.442  16.042 -1.3942  0.8714 -0.7124
 8683TIP3    H247465   4.732   4.466  15.907 -0.0247 -0.4360 -1.6211
 8684TIP3   OH247466   3.099   3.176   4.879 -0.2083  0.5487 -0.1601
 8684TIP3    H147467   3.032   3.168   4.812  1.2519  1.3445 -1.7563
 8684TIP3    H247468   3.112   3.087   4.913 -1.0722  0.1814 -0.8031
 8685TIP3   OH247469   6.257   5.465  15.971 -0.0829 -0.3867  0.6587
 8685TIP3    H147470   6.343   5.432  15.997  0.0925 -0.8036 -0.3923
 8685TIP3    H247471   6.226   5.402  15.905 -1.6990 -0.8673  1.8423
 8686TIP3   OH247472   5.882   2.696   1.578  0.0226 -0.5171 -0.6506
 8686TIP3    H147473   5.950   2.743   1.626 -1.2611 -0.1356  0.8493
 8686TIP3    H247474   5.927   2.622   1.538  1.2530 -0.4790  0.6352
 8687TIP3   OH247475   4.351   0.774  14.145  0.1465  0.1046  0.1009
 8687TIP3    H147476   4.349   0.821  14.062  1.9072 -2.6680 -1.5952
 8687TIP3    H247477   4.260   0.749  14.161 -0.1068  0.0231 -1.3687
 8688TIP3   OH247478   2.608   0.983   3.073 -0.2862 -0.2134  0.2370
 8688TIP3    H147479   2.692   1.028   3.085  0.0087 -0.5786 -0.4954
 8688TIP3    H247480   2.596   0.933   3.154 -0.4945  0.9686  0.9586
 8689TIP3   OH247481   4.133   4.325   0.297 -0.2206 -0.0376 -0.0270
 8689TIP3    H147482   4.190   4.303   0.370  2.2186  0.1801 -1.8014
 8689TIP3    H247483   4.170   4.405   0.260 -1.6506  0.0910 -1.2444
 8690TIP3   OH247484   3.040   2.800  12.854 -0.1505  0.6044  0.1423
 8690TIP3    H147485   3.055   2.843  12.770 -1.0894 -0.4585 -0.5920
 8690TIP3    H247486   2.998   2.867  12.909 -0.5108  0.9860 -0.5945
 8691TIP3   OH247487   2.649   6.572  12.183  0.7302  0.4535 -0.0618
 8691TIP3    H147488   2.632   6.584  12.277  1.5679  0.1697  0.1292
 8691TIP3    H247489   2.718   6.506  12.180 -0.8397 -1.1919 -0.9588
 8692TIP3   OH247490   3.213   3.031   1.809  0.4718 -0.0141  0.5775
 8692TIP3    H147491   3.140   2.987   1.853 -0.0267 -0.0961 -0.3170
 8692TIP3    H247492   3.284   3.030   1.874 -0.9746  1.9636  2.2389
 8693TIP3   OH247493   4.688   1.625  12.966  0.2230  0.0537 -0.2291
 8693TIP3    H147494   4.719   1.583  13.046  0.1825  2.4080  1.0697
 8693TIP3    H247495   4.758   1.608  12.902  1.3185  0.0762  0.9380
 8694TIP3   OH247496   5.139   1.930   0.556 -0.3135  0.0903 -0.0546
 8694TIP3    H147497   5.044   1.934   0.543 -0.2626  0.2739 -0.3804
 8694TIP3    H247498   5.171   1.879   0.482 -0.2574 -0.7671  0.5657
 8695TIP3   OH247499   6.382   2.918   1.692  0.3720  0.4711 -0.5785
 8695TIP3    H147500   6.417   3.008   1.695  2.3114 -0.2713  0.0078
 8695TIP3    H247501   6.434   2.875   1.625 -0.4539 -0.2761 -0.7410
 8696TIP3   OH247502   1.104   6.246   1.116 -0.3447  0.0556  0.3657
 8696TIP3    H147503   1.035   6.309   1.138  0.4311  1.4140 -0.9817
 8696TIP3    H247504   1.079   6.215   1.028  1.5041  1.6443 -0.7561
 8697TIP3   OH247505   2.724   0.820   0.015  0.3940  0.2338 -0.3464
 8697TIP3    H147506   2.655   0.886   0.005 -1.1401 -0.9579  1.9043
 8697TIP3    H247507   2.794   0.865   0.062  1.0967  1.3822 -2.4284
 8698TIP3   OH247508   2.980   5.926   6.300 -0.4561 -0.3947 -0.3944
 8698TIP3    H147509   2.922   5.867   6.348 -0.4372 -0.0324  0.0844
 8698TIP3    H247510   2.923   5.971   6.238 -0.3720 -1.3180 -1.1506
 8699TIP3   OH247511   5.647   1.082   0.632  0.2423  0.2062  0.0541
 8699TIP3    H147512   5.574   1.142   0.649 -0.1798 -0.4169  0.4928
 8699TIP3    H247513   5.678   1.056   0.719  3.3262  3.1938 -0.0605
 8700TIP3   OH247514   0.417   3.419   2.383 -0.6538  0.3410 -0.1356
 8700TIP3    H147515   0.425   3.491   2.445  1.2408 -0.4188  0.5288
 8700TIP3    H247516   0.491   3.430   2.324 -0.3478 -1.0609 -0.0188
 8701TIP3   OH247517   6.229   2.633   0.264 -0.5506 -0.1403  0.0033
 8701TIP3    H147518   6.214   2.538   0.269  1.5501 -0.4641  0.3228
 8701TIP3    H247519   6.311   2.642   0.217 -2.0774  1.6597 -2.4121
 8702TIP3   OH247520   5.258   5.670   1.783 -0.2102 -0.0798 -0.1753
 8702TIP3    H147521   5.279   5.612   1.856  1.7625  2.8728  1.7211
 8702TIP3    H247522   5.163   5.682   1.789 -0.2621 -0.9926  1.0287
 8703TIP3   OH247523   4.806   0.783  13.711  0.4008 -0.2408 -0.1714
 8703TIP3    H147524   4.897   0.755  13.721  0.1919 -1.3197 -1.1842
 8703TIP3    H247525   4.813   0.869  13.669  0.9238 -1.0302 -1.7459
 8704TIP3   OH247526   3.459   1.019  11.845 -0.3779  0.4852  0.3001
 8704TIP3    H147527   3.538   0.966  11.833  1.2151  2.4010  1.9645
 8704TIP3    H247528   3.387   0.958  11.830  1.4059 -1.4831 -0.5208
 8705TIP3   OH247529   1.873   3.521  16.828  0.4415 -0.0414  0.0474
 8705TIP3    H147530   1.873   3.459  16.901  2.9019  1.1917  1.1636
 8705TIP3    H247531   1.814   3.591  16.855  0.8866  0.1187  0.6220
 8706TIP3   OH247532   4.477   4.684  11.516 -0.2453 -0.2651 -0.3403
 8706TIP3    H147533   4.418   4.684  11.441  1.1640 -1.2346 -1.4686
 8706TIP3    H247534   4.537   4.612  11.500  1.3269  0.7688  0.7220
 8707TIP3   OH247535   0.374   6.223   2.422  0.1202  0.1850 -0.2737
 8707TIP3    H147536   0.306   6.291   2.422 -1.0421 -0.9748 -0.3493
 8707TIP3    H247537   0.367   6.182   2.336 -1.1680 -1.9915  0.8243
 8708TIP3   OH247538   2.700   1.919  16.843 -0.1616 -0.1949 -0.1667
 8708TIP3    H147539   2.684   1.970  16.764 -2.4273  0.9613  0.9945
 8708TIP3    H247540   2.789   1.944  16.869 -1.4079  3.7843  0.7204
 8709TIP3   OH247541   6.712   3.534  17.118 -0.1968  0.4079  0.5789
 8709TIP3    H147542   6.702   3.498  17.030 -0.5042 -1.7327  1.4519
 8709TIP3    H247543   6.654   3.480  17.173  1.5014  0.3848  2.4201
 8710TIP3   OH247544   4.080   5.035  11.591  0.2888 -0.0553 -0.3805
 8710TIP3    H147545   4.081   5.004  11.681  2.0855  0.7698 -0.0930
 8710TIP3    H247546   3.997   5.003  11.555 -1.0301  0.7085  1.9197
 8711TIP3   OH247547   6.243   6.222   3.879  0.2691  0.1000  0.5213
 8711TIP3    H147548   6.192   6.274   3.941 -0.8725  1.1533 -1.2612
 8711TIP3    H247549   6.178   6.170   3.832  0.6800  2.1944 -2.4612
 8712TIP3   OH247550   2.823   3.330  15.637  0.2634 -0.4347  0.5120
 8712TIP3    H147551   2.848   3.351  15.727  0.1923  0.1052  0.4022
 8712TIP3    H247552   2.805   3.236  15.640  0.2268 -0.4171  1.0709
 8713TIP3   OH247553   1.560   0.447   6.316 -0.3699  0.0239  0.5770
 8713TIP3    H147554   1.577   0.525   6.369 -1.6690 -0.6142  1.9500
 8713TIP3    H247555   1.465   0.436   6.317 -0.2248 -1.4812  0.2743
 8714TIP3   OH247556   0.953   5.679   5.244 -0.1235 -0.2721  0.2915
 8714TIP3    H147557   0.999   5.690   5.328 -2.8348  1.6878  1.6043
 8714TIP3    H247558   0.898   5.602   5.257  1.9565 -1.9933 -0.9119
 8715TIP3   OH247559   0.296   6.337   4.604  0.6367 -0.5558 -0.2790
 8715TIP3    H147560   0.305   6.411   4.544 -2.2049  1.7198  1.9235
 8715TIP3    H247561   0.289   6.378   4.690 -0.3757 -3.4283  1.0499
 8716TIP3   OH247562   5.858   3.230  10.843  0.5496  0.0658  0.8400
 8716TIP3    H147563   5.781   3.278  10.871  1.6741  1.6678  1.2487
 8716TIP3    H247564   5.915   3.227  10.920  1.9590  1.0765 -0.1313
 8717TIP3   OH247565   5.584   6.347   2.332 -0.1168 -0.0243  0.3592
 8717TIP3    H147566   5.573   6.303   2.248  0.3232  1.6671 -0.6176
 8717TIP3    H247567   5.678   6.356   2.343 -0.2159  1.4717  0.0949
 8718TIP3   OH247568   2.017   3.057  15.783  0.5878  0.0266  0.6153
 8718TIP3    H147569   2.010   2.961  15.789  0.6665 -0.1019 -1.0641
 8718TIP3    H247570   2.054   3.072  15.696  0.0453  1.6155  0.6595
 8719TIP3   OH247571   3.154   6.427   1.946 -0.4792  0.1619  0.3441
 8719TIP3    H147572   3.246   6.409   1.966 -0.3062  0.9308  0.2623
 8719TIP3    H247573   3.155   6.515   1.908 -1.1282 -0.2115 -0.5527
 8720TIP3   OH247574   4.406   6.624   4.000  0.0098  0.2323 -0.2709
 8720TIP3    H147575   4.311   6.612   4.010  0.2889 -1.0543  0.9778
 8720TIP3    H247576   4.442   6.604   4.086  1.4550  0.4565 -0.8101
 8721TIP3   OH247577   1.862   1.179   3.429 -0.8079 -0.0150  0.1930
 8721TIP3    H147578   1.946   1.153   3.393 -0.4229  1.7670 -0.2697
 8721TIP3    H247579   1.805   1.104   3.416  0.0092 -0.2941 -1.8678
 8722TIP3   OH247580   1.697   5.285   2.048 -0.3717  0.3024  0.4267
 8722TIP3    H147581   1.683   5.322   1.961  0.6003 -1.4139 -0.4995
 8722TIP3    H247582   1.783   5.318   2.075 -0.3463  0.2444  0.4165
 8723TIP3   OH247583   2.870   5.895  13.651 -0.0995 -0.2921 -0.0945
 8723TIP3    H147584   2.788   5.847  13.645 -1.1673  1.6652 -2.0826
 8723TIP3    H247585   2.884   5.930  13.563  1.9331  0.9423  0.6673
 8724TIP3   OH247586   2.936   3.251  11.169 -0.1684 -0.2422 -1.0706
 8724TIP3    H147587   2.996   3.323  11.147 -0.6108  0.2142 -0.7690
 8724TIP3    H247588   2.913   3.214  11.084  2.7187 -2.1978 -1.0807
 8725TIP3   OH247589   0.411   5.706   2.201 -0.1144 -0.2626 -0.6325
 8725TIP3    H147590   0.433   5.711   2.108  0.4378 -0.0189 -0.4927
 8725TIP3    H247591   0.436   5.618   2.227 -0.8236 -0.5321 -0.8498
 8726TIP3   OH247592   0.276   0.933   4.924 -0.0763 -0.0696  0.5264
 8726TIP3    H147593   0.271   1.026   4.903 -0.4053 -0.0259  0.8063
 8726TIP3    H247594   0.356   0.903   4.879 -0.5555  0.1091 -0.4659
 8727TIP3   OH247595   6.113   4.170   3.416  0.0507  0.1452 -0.0584
 8727TIP3    H147596   6.052   4.158   3.343 -1.2111 -1.1461  1.1589
 8727TIP3    H247597   6.185   4.111   3.397 -1.1051 -1.5165  0.5728
 8728TIP3   OH247598   2.905   1.204  11.605  0.4908  0.3341 -0.0522
 8728TIP3    H147599   2.842   1.132  11.610 -1.5078  2.0713  0.6230
 8728TIP3    H247600   2.912   1.236  11.695  0.9148  1.3477 -0.4417
 8729TIP3   OH247601   2.644   1.993   1.906 -0.0110  0.4019  0.4606
 8729TIP3    H147602   2.610   1.932   1.840 -0.9025 -0.7705  1.9621
 8729TIP3    H247603   2.567   2.019   1.956  0.8393  0.3222  1.8200
 8730TIP3   OH247604   0.173   1.017  11.492  0.0645 -0.1748  0.3626
 8730TIP3    H147605   0.188   0.950  11.559 -2.2332  0.0999  1.1989
 8730TIP3    H247606   0.192   1.100  11.536 -0.3089 -0.0654  0.3187
 8731TIP3   OH247607   2.470   4.856  10.884  0.1744  0.3828 -0.3382
 8731TIP3    H147608   2.392   4.900  10.851  0.9141  0.0756 -2.6024
 8731TIP3    H247609   2.494   4.795  10.814  1.7625 -0.3645  0.8295
 8732TIP3   OH247610   0.152   5.320   2.449  1.0900 -0.1731  0.1847
 8732TIP3    H147611   0.084   5.353   2.391  0.5817 -0.8682  0.3738
 8732TIP3    H247612   0.196   5.398   2.482  0.9122  0.2528 -0.5640
 8733TIP3   OH247613   0.379   2.579  15.554  0.4461  0.0804  0.2509
 8733TIP3    H147614   0.466   2.563  15.517 -0.3623 -2.0635 -0.7971
 8733TIP3    H247615   0.393   2.650  15.617  3.5447 -2.1322  2.2430
 8734TIP3   OH247616   5.297   6.271  14.371  0.0755 -0.1264  0.3986
 8734TIP3    H147617   5.234   6.269  14.443  0.3789 -2.5408  0.6487
 8734TIP3    H247618   5.251   6.315  14.300 -1.3373 -0.4708  1.0871
 8735TIP3   OH247619   1.621   1.026  11.671  0.3453  0.0328  0.1491
 8735TIP3    H147620   1.633   1.024  11.766  0.2211  2.2048  0.2491
 8735TIP3    H247621   1.598   0.936  11.647  0.3480 -0.5278  2.1770
 8736TIP3   OH247622   6.398   5.545   1.824  0.3673 -0.6340 -0.4225
 8736TIP3    H147623   6.367   5.636   1.822  0.3534 -0.6418 -0.6421
 8736TIP3    H247624   6.329   5.496   1.778  0.7320 -0.6437 -0.9589
 8737TIP3   OH247625   0.410   1.022  16.917  0.2776 -0.5578  0.0634
 8737TIP3    H147626   0.422   1.098  16.973  0.9521 -0.4238 -0.2556
 8737TIP3    H247627   0.359   0.961  16.969 -0.5878  0.2598  0.1887
 8738TIP3   OH247628   5.168   1.978  14.861 -0.0340  0.1555 -0.3328
 8738TIP3    H147629   5.084   2.010  14.829 -1.0307 -0.4006  1.6259
 8738TIP3    H247630   5.194   1.911  14.798 -1.1081  0.2457 -0.8810
 8739TIP3   OH247631   4.741   3.492  12.405 -0.5860  0.1157  0.6363
 8739TIP3    H147632   4.648   3.479  12.388 -1.0851  0.5090  2.9509
 8739TIP3    H247633   4.748   3.581  12.439  0.5956 -0.0296  0.8130
 8740TIP3   OH247634   5.157   4.822  16.063  0.2481  0.1968 -0.3191
 8740TIP3    H147635   5.165   4.909  16.101 -0.7281  1.3166 -2.5717
 8740TIP3    H247636   5.240   4.779  16.083  1.2687  2.1229 -0.3542
 8741TIP3   OH247637   1.590   2.487   2.986  0.0805 -0.3925  0.4384
 8741TIP3    H147638   1.608   2.503   2.893 -0.1620  0.7498  0.5757
 8741TIP3    H247639   1.507   2.531   3.002  0.1889 -0.4725  1.2302
 8742TIP3   OH247640   5.572   5.197   3.537 -0.0787 -0.0322 -0.3684
 8742TIP3    H147641   5.546   5.270   3.481  0.5295  0.9791  0.6537
 8742TIP3    H247642   5.515   5.125   3.510  0.0239  0.5059 -2.1062
 8743TIP3   OH247643   5.896   3.719  16.869  0.3190 -0.0860  0.3754
 8743TIP3    H147644   5.806   3.696  16.892  0.1923 -0.3121 -0.3418
 8743TIP3    H247645   5.892   3.742  16.776  1.1399 -0.8017  0.1634
 8744TIP3   OH247646   1.381   2.584  13.792 -0.0857  0.3659 -0.4841
 8744TIP3    H147647   1.424   2.623  13.716  3.9252 -0.7426  1.0813
 8744TIP3    H247648   1.371   2.492  13.769 -2.0199  0.6746 -0.9627
 8745TIP3   OH247649   0.371   1.275   2.334 -0.1021 -0.3289  0.8653
 8745TIP3    H147650   0.316   1.323   2.272  1.6560  1.8334  0.8966
 8745TIP3    H247651   0.362   1.183   2.308 -1.8541  0.2233 -0.5971
 8746TIP3   OH247652   6.179   6.435  11.370  0.4483 -0.0087 -0.0789
 8746TIP3    H147653   6.145   6.468  11.453  0.7677  0.7660 -0.2538
 8746TIP3    H247654   6.118   6.469  11.304  1.7071  1.6069 -0.4193
 8747TIP3   OH247655   5.924   1.641   0.358  0.8169  0.5184 -0.2789
 8747TIP3    H147656   5.869   1.563   0.357  2.0806 -0.3910  0.3972
 8747TIP3    H247657   5.988   1.627   0.287  0.6473  1.2350 -0.5825
 8748TIP3   OH247658   4.288   4.704   3.089  0.4539 -0.2211  0.0829
 8748TIP3    H147659   4.217   4.652   3.052 -0.0593  0.7795 -0.3480
 8748TIP3    H247660   4.355   4.706   3.020  0.3233 -0.0046 -0.0361
 8749TIP3   OH247661   1.942   6.140  11.533 -0.1008  0.1802 -0.6059
 8749TIP3    H147662   1.979   6.187  11.608 -2.6843  1.1587  0.1238
 8749TIP3    H247663   1.961   6.048  11.550  0.4790  0.5124  0.5916
 8750TIP3   OH247664   4.674   1.646   3.005 -0.4462  0.3835  0.7033
 8750TIP3    H147665   4.638   1.558   3.018  0.5794 -0.3269 -1.1452
 8750TIP3    H247666   4.732   1.659   3.081  0.9970 -1.3856 -0.0495
 8751TIP3   OH247667   5.512   1.165  14.167 -0.1099 -0.4807  0.2218
 8751TIP3    H147668   5.470   1.241  14.125  0.1482 -0.9361 -0.8863
 8751TIP3    H247669   5.450   1.137  14.234  0.2685  1.3670  1.3903
 8752TIP3   OH247670   1.287   5.437  12.594 -0.3096  0.0020  0.2119
 8752TIP3    H147671   1.223   5.403  12.657  0.7530  0.9319  1.8352
 8752TIP3    H247672   1.332   5.359  12.561 -0.1955 -0.4324  1.3682
 8753TIP3   OH247673   3.848   4.547   0.756 -0.0162  0.1714 -0.1105
 8753TIP3    H147674   3.837   4.453   0.742  0.6456 -0.0891  0.9964
 8753TIP3    H247675   3.943   4.561   0.753 -0.0781  0.7054  0.2574
 8754TIP3   OH247676   1.083   2.096   3.983 -0.0408  0.0754  0.6045
 8754TIP3    H147677   1.107   2.167   3.923 -1.9704  1.0821  0.9968
 8754TIP3    H247678   1.166   2.071   4.024  0.8301  1.4236 -0.2773
 8755TIP3   OH247679   4.881   5.604   2.313  0.0755 -0.2216 -0.2599
 8755TIP3    H147680   4.884   5.523   2.364  0.3922  0.7223  1.2477
 8755TIP3    H247681   4.892   5.576   2.223 -0.7189 -1.9476  0.1678
 8756TIP3   OH247682   0.451   2.571   3.173 -0.0902 -0.4435  0.5495
 8756TIP3    H147683   0.518   2.541   3.234  0.4651 -0.9697 -0.3068
 8756TIP3    H247684   0.400   2.493   3.154 -1.2592  0.0519  1.5645
 8757TIP3   OH247685   2.057   0.233  14.367 -0.5727 -0.4993  0.0020
 8757TIP3    H147686   2.104   0.168  14.314  2.0624 -0.4765  2.1718
 8757TIP3    H247687   2.085   0.317  14.331 -0.6207 -0.5200 -0.0840
 8758TIP3   OH247688   4.056   3.882   2.408  0.8104 -0.1218  0.2784
 8758TIP3    H147689   3.990   3.918   2.349  0.0797  0.3594  1.3742
 8758TIP3    H247690   4.054   3.788   2.392 -0.1874 -0.1181  0.3569
 8759TIP3   OH247691   4.366   3.217   4.891  0.6133 -0.1862  0.0188
 8759TIP3    H147692   4.337   3.136   4.934 -0.6022  0.7780  1.0696
 8759TIP3    H247693   4.298   3.281   4.913  0.8596  0.7874 -1.9329
 8760TIP3   OH247694   1.929   2.830  13.172  0.3034 -0.7856 -0.2034
 8760TIP3    H147695   1.966   2.850  13.257  1.0732  0.4468 -0.8111
 8760TIP3    H247696   1.838   2.807  13.190  0.6123 -1.0844  1.0043
 8761TIP3   OH247697   5.016   0.883  16.310 -0.2903  0.1687 -0.3607
 8761TIP3    H147698   4.981   0.832  16.237  1.8395  0.0517 -1.3115
 8761TIP3    H247699   5.026   0.820  16.381 -0.6870 -0.0745 -0.5214
 8762TIP3   OH247700   0.131   4.967   1.625 -0.4938  0.5010 -0.1510
 8762TIP3    H147701   0.168   5.000   1.707  2.4909  0.9333 -1.6178
 8762TIP3    H247702   0.145   5.038   1.562 -0.0647 -0.9727 -1.7436
 8763TIP3   OH247703   4.769   6.120  13.788 -0.6868  0.0682 -0.4980
 8763TIP3    H147704   4.676   6.135  13.775 -0.4281  2.5929  0.2510
 8763TIP3    H247705   4.812   6.193  13.744  1.0172 -1.6975 -1.8552
 8764TIP3   OH247706   4.737   1.485   1.896  0.3981 -0.0174  0.5531
 8764TIP3    H147707   4.805   1.420   1.881  1.4853  1.3386 -0.3826
 8764TIP3    H247708   4.655   1.435   1.889  0.9874 -0.5402 -4.5373
 8765TIP3   OH247709   3.583   3.470   0.408  0.3388  0.0212 -0.2192
 8765TIP3    H147710   3.574   3.518   0.326 -1.7237 -2.9089 -1.8080
 8765TIP3    H247711   3.514   3.506   0.464 -1.7927 -1.5693 -1.7177
 8766TIP3   OH247712   5.962   2.468   5.076 -0.2905  0.4154 -0.5144
 8766TIP3    H147713   5.884   2.462   5.021  0.3380  0.9070 -1.4823
 8766TIP3    H247714   5.940   2.420   5.155 -1.0222 -0.7772 -1.4235
 8767TIP3   OH247715   1.715   1.263   1.758 -0.4760 -0.0280  0.7080
 8767TIP3    H147716   1.652   1.330   1.787 -0.7868  0.9304 -2.0661
 8767TIP3    H247717   1.679   1.181   1.791 -1.4131  0.8860  2.0344
 8768TIP3   OH247718   1.539   0.180  16.339 -0.1228 -0.2691 -0.0159
 8768TIP3    H147719   1.606   0.220  16.394 -1.4310  0.5525  1.0014
 8768TIP3    H247720   1.564   0.204  16.249  0.9136  0.0547  0.3503
 8769TIP3   OH247721   1.732   1.032  13.976  0.2814  0.1905  0.5245
 8769TIP3    H147722   1.730   0.937  13.981 -1.5882  0.1710 -0.3228
 8769TIP3    H247723   1.820   1.052  13.942  0.1964 -1.3046 -0.6253
 8770TIP3   OH247724   3.534   1.326  13.891 -0.4870 -0.5811  0.1239
 8770TIP3    H147725   3.475   1.394  13.858 -0.7838  0.0284  1.8651
 8770TIP3    H247726   3.619   1.347  13.853 -0.2702  1.5709  1.7089
 8771TIP3   OH247727   0.087   2.188  13.261 -0.0511  0.1482 -0.2768
 8771TIP3    H147728   0.045   2.102  13.257  0.8755 -0.3642  0.6282
 8771TIP3    H247729   0.180   2.168  13.273  0.4822  1.2533 -2.2926
 8772TIP3   OH247730   2.476   3.181   5.478 -0.0463  0.7395 -0.3078
 8772TIP3    H147731   2.570   3.189   5.458  0.0759  0.0244 -0.0120
 8772TIP3    H247732   2.433   3.200   5.395  0.4256 -0.8065 -0.9159
 8773TIP3   OH247733   5.375   0.136   0.112 -0.6718 -0.5101 -0.4961
 8773TIP3    H147734   5.398   0.043   0.102  0.4570 -0.4562  1.3128
 8773TIP3    H247735   5.440   0.182   0.060 -0.3165 -0.6670 -0.1958
 8774TIP3   OH247736   0.677   3.145   6.282  0.0676  0.6061 -0.2867
 8774TIP3    H147737   0.748   3.081   6.283  2.3796  3.0548 -1.8089
 8774TIP3    H247738   0.614   3.111   6.219  0.2913 -1.1303  0.3986
 8775TIP3   OH247739   0.171   2.212   0.493  0.1137  0.1818 -0.2248
 8775TIP3    H147740   0.228   2.270   0.544  0.8216 -0.5296 -0.2084
 8775TIP3    H247741   0.216   2.203   0.408 -0.3807  0.2671 -0.4994
 8776TIP3   OH247742   2.167   5.360  15.818  0.1820  0.2204 -0.2299
 8776TIP3    H147743   2.136   5.401  15.899 -2.4594  0.3952 -1.3038
 8776TIP3    H247744   2.106   5.287  15.803  0.3251  0.5052 -2.3454
 8777TIP3   OH247745   5.172   4.997  14.099  0.6161  0.3701 -0.1470
 8777TIP3    H147746   5.113   4.922  14.085  3.1983 -1.6092 -0.7574
 8777TIP3    H247747   5.200   5.021  14.011  2.8813 -0.5203  0.3047
 8778TIP3   OH247748   3.454   0.597   2.592 -0.3407  0.5046 -0.0081
 8778TIP3    H147749   3.419   0.671   2.641 -2.2225  0.9938 -2.0319
 8778TIP3    H247750   3.535   0.631   2.553  0.3819  0.5590  1.5158
 8779TIP3   OH247751   2.912   2.698  17.144  0.0632  0.2068  0.2151
 8779TIP3    H147752   2.833   2.721  17.193 -0.2209  0.0326 -0.1692
 8779TIP3    H247753   2.941   2.615  17.183 -0.3109 -0.0665 -0.0968
 8780TIP3   OH247754   5.808   2.616  11.692 -0.3900 -0.2630  0.4672
 8780TIP3    H147755   5.849   2.622  11.605  1.3614  0.0510  1.2851
 8780TIP3    H247756   5.879   2.635  11.753 -2.2069  2.2172  1.8909
 8781TIP3   OH247757   2.714   1.778   5.566 -0.1843  0.2716  0.6989
 8781TIP3    H147758   2.769   1.748   5.639  0.6863 -0.4428 -0.2333
 8781TIP3    H247759   2.772   1.775   5.490 -1.8637 -1.7605 -0.5540
 8782TIP3   OH247760   5.582   5.673   5.578 -0.1246  1.1439 -0.1417
 8782TIP3    H147761   5.565   5.612   5.649  0.0728 -1.1454 -2.0104
 8782TIP3    H247762   5.624   5.748   5.621 -0.5717  0.0883  2.2210
 8783TIP3   OH247763   1.081   2.252  16.285  0.5897  0.8654  0.3637
 8783TIP3    H147764   1.022   2.327  16.286 -1.7639 -0.8795 -0.9057
 8783TIP3    H247765   1.117   2.251  16.196 -1.4917 -1.0017 -0.5127
 8784TIP3   OH247766   1.766   4.286   5.327  0.0064 -0.0403 -0.4471
 8784TIP3    H147767   1.848   4.334   5.336  0.1872 -0.7939  2.7278
 8784TIP3    H247768   1.792   4.200   5.295  0.0801  0.7111 -2.4828
 8785TIP3   OH247769   4.321   1.711   6.196 -0.5210 -0.2952  0.1781
 8785TIP3    H147770   4.306   1.687   6.105 -0.2333 -0.7877  0.2618
 8785TIP3    H247771   4.234   1.704   6.237 -0.5749 -0.4550  0.0342
 8786TIP3   OH247772   1.040   5.314  11.775  0.5196 -0.0025  0.0451
 8786TIP3    H147773   0.948   5.340  11.772 -0.0461 -1.8302  1.1050
 8786TIP3    H247774   1.060   5.304  11.868  0.7995 -2.9555 -0.2713
 8787TIP3   OH247775   1.236   1.587   2.688 -0.1108  0.3953 -0.1935
 8787TIP3    H147776   1.191   1.668   2.709 -0.0409  0.5399 -0.5942
 8787TIP3    H247777   1.196   1.521   2.746 -1.4192  0.3525 -1.1252
 8788TIP3   OH247778   4.028   4.648  15.488  0.0013  0.0386  0.0390
 8788TIP3    H147779   4.029   4.735  15.526 -2.2171 -0.0794  0.4237
 8788TIP3    H247780   4.091   4.652  15.416  1.2593  1.4132  1.1936
 8789TIP3   OH247781   4.564   4.839  16.640  0.1399  0.1833  0.2168
 8789TIP3    H147782   4.561   4.764  16.699 -1.0285 -0.3472 -0.4850
 8789TIP3    H247783   4.652   4.838  16.604  0.9988  0.7532  2.2300
 8790TIP3   OH247784   4.429   2.971   0.818  0.1492  0.0558  0.2253
 8790TIP3    H147785   4.355   2.917   0.792  1.7584 -2.0382 -0.1691
 8790TIP3    H247786   4.391   3.056   0.841 -2.2796 -0.8237 -0.4512
 8791TIP3   OH247787   3.286   5.885   4.665 -0.1949  0.0135  0.0671
 8791TIP3    H147788   3.378   5.892   4.690  0.0052  0.6678 -0.8096
 8791TIP3    H247789   3.245   5.965   4.698 -0.5541 -0.4925  0.8614
 8792TIP3   OH247790   1.114   6.567   4.714  0.0317  0.7274 -0.0880
 8792TIP3    H147791   1.160   6.626   4.654  0.7808  2.3106  1.9757
 8792TIP3    H247792   1.109   6.615   4.797 -0.9949 -1.3782  1.1337
 8793TIP3   OH247793   2.961   5.691  14.214  0.2139 -0.1738 -0.2809
 8793TIP3    H147794   2.922   5.771  14.249 -0.3838 -1.6513  2.5553
 8793TIP3    H247795   2.887   5.636  14.188  0.6184  0.1436 -2.1585
 8794TIP3   OH247796   6.257   2.929  13.261  0.4860 -0.4969 -0.1029
 8794TIP3    H147797   6.189   2.990  13.290 -1.3361 -2.3051 -0.4804
 8794TIP3    H247798   6.305   2.977  13.194  0.2970  1.2109  0.9507
 8795TIP3   OH247799   1.698   4.041  10.617  0.0072  0.5559 -0.0807
 8795TIP3    H147800   1.633   4.064  10.683  0.7063  2.0781  0.0843
 8795TIP3    H247801   1.755   3.977  10.661 -0.6550  0.1217  0.1550
 8796TIP3   OH247802   0.612   2.705   5.053  0.1077 -0.1752 -0.0984
 8796TIP3    H147803   0.589   2.702   5.145 -0.3676 -1.4252 -0.2560
 8796TIP3    H247804   0.708   2.708   5.053  0.1094 -0.1471  0.4377
 8797TIP3   OH247805   5.981   5.020   2.522  0.3340 -0.0366 -0.1397
 8797TIP3    H147806   5.983   4.947   2.459  0.5221 -0.5921  0.5018
 8797TIP3    H247807   6.038   4.991   2.594 -1.2005 -0.1225  1.0666
 8798TIP3   OH247808   5.231   4.188  12.428  0.1699 -0.4719  0.0090
 8798TIP3    H147809   5.176   4.110  12.437  1.4709 -1.4777 -0.6520
 8798TIP3    H247810   5.317   4.160  12.457  0.5169  0.9007  0.3238
 8799TIP3   OH247811   3.103   1.451   2.145 -0.0890  0.8662  0.3062
 8799TIP3    H147812   3.089   1.364   2.108 -0.9622  0.7095  0.9764
 8799TIP3    H247813   3.194   1.472   2.124  0.0528 -0.1036 -0.0714
 8800TIP3   OH247814   3.455   1.494  13.268  0.0826 -0.1511  0.0547
 8800TIP3    H147815   3.540   1.518  13.232  0.0311  0.3558  0.2766
 8800TIP3    H247816   3.420   1.575  13.305 -0.2918 -0.4586  0.3782
 8801TIP3   OH247817   5.716   2.143   6.589  0.8040 -0.0239 -0.2535
 8801TIP3    H147818   5.725   2.202   6.664  0.0602  0.8847 -0.8603
 8801TIP3    H247819   5.626   2.112   6.594  1.3171 -1.4280  0.2890
 8802TIP3   OH247820   1.657   0.977   0.378 -0.2988 -0.6728  0.1917
 8802TIP3    H147821   1.657   1.073   0.378 -0.7839 -0.6694 -0.6598
 8802TIP3    H247822   1.698   0.953   0.462  1.8801  0.2714 -0.5773
 8803TIP3   OH247823   1.155   4.207  10.801 -0.2582 -0.2017  0.2565
 8803TIP3    H147824   1.096   4.282  10.809 -1.5108 -1.0963 -0.5134
 8803TIP3    H247825   1.236   4.244  10.767 -0.6546  0.8984  0.4774
 8804TIP3   OH247826   4.613   4.174   1.234  0.2577  0.0122 -0.0650
 8804TIP3    H147827   4.701   4.192   1.266  0.2158  0.1407 -0.0188
 8804TIP3    H247828   4.557   4.184   1.311 -0.0649  2.1078 -0.5497
 8805TIP3   OH247829   3.903   5.487   0.207  0.6462 -0.7327 -0.1703
 8805TIP3    H147830   3.873   5.530   0.127 -0.3522 -0.4119  0.3753
 8805TIP3    H247831   3.848   5.523   0.276  0.1157 -2.5344  0.3649
 8806TIP3   OH247832   2.071   5.931   1.607 -0.5084 -0.6886 -0.4081
 8806TIP3    H147833   2.144   5.991   1.624 -0.3757 -0.7901 -0.6117
 8806TIP3    H247834   2.080   5.909   1.514 -0.4577 -1.1516 -0.2922
 8807TIP3   OH247835   2.175   2.401  13.425 -0.4401  0.2327 -0.4985
 8807TIP3    H147836   2.109   2.397  13.494 -0.3796 -1.2065 -0.5140
 8807TIP3    H247837   2.190   2.494  13.411 -1.8920  0.5485  0.0513
 8808TIP3   OH247838   0.807   6.430   3.187  0.3631  0.0387 -0.3199
 8808TIP3    H147839   0.876   6.415   3.251  1.7606 -0.6110 -1.9482
 8808TIP3    H247840   0.747   6.492   3.230  2.1573  0.9214  0.9597
 8809TIP3   OH247841   3.930   1.517  14.954  0.3804 -0.0122 -0.6996
 8809TIP3    H147842   3.975   1.567  14.886  0.5341 -1.2109 -1.5128
 8809TIP3    H247843   3.939   1.569  15.033  1.5859  0.6542 -1.2646
 8810TIP3   OH247844   3.552   0.849   4.026  0.1033  0.3559 -0.1288
 8810TIP3    H147845   3.521   0.897   3.949  0.7447 -0.4808 -0.9130
 8810TIP3    H247846   3.552   0.758   3.998 -0.4013 -0.0278  1.1181
 8811TIP3   OH247847   5.605   2.968   0.135 -0.0960 -0.0400  0.2334
 8811TIP3    H147848   5.575   2.934   0.219  1.5627  1.2484  1.3747
 8811TIP3    H247849   5.679   3.025   0.157 -0.8853  1.8748 -1.9035
 8812TIP3   OH247850   2.239   0.483   1.460  0.1224  0.1837  0.1978
 8812TIP3    H147851   2.160   0.429   1.466  0.5576 -0.4209  0.6049
 8812TIP3    H247852   2.207   0.570   1.436 -0.5323 -0.4000 -1.1320
 8813TIP3   OH247853   6.423   3.084  13.964  0.0974  0.0628 -0.1250
 8813TIP3    H147854   6.490   3.117  14.024 -0.6739  1.5387 -0.0425
 8813TIP3    H247855   6.468   3.076  13.880  1.1233 -1.7820  0.5652
 8814TIP3   OH247856   3.038   1.077   0.264 -0.0770  0.0140  0.5844
 8814TIP3    H147857   3.050   1.013   0.335 -1.2067 -1.7626 -0.7714
 8814TIP3    H247858   2.948   1.062   0.234  0.8813 -0.3725 -2.2683
 8815TIP3   OH247859   4.782   0.091  12.406 -0.4864  0.1776  0.8326
 8815TIP3    H147860   4.714   0.077  12.472  0.1705 -0.7107  1.3203
 8815TIP3    H247861   4.773   0.184  12.383 -2.7267 -0.2252 -0.0727
 8816TIP3   OH247862   6.579   6.397   0.719  0.4273 -0.6638 -0.1002
 8816TIP3    H147863   6.655   6.338   0.725  0.5239 -0.4666  0.7293
 8816TIP3    H247864   6.512   6.354   0.771  0.1296 -0.5925 -0.4268
 8817TIP3   OH247865   6.569   3.630  12.005 -0.3189  0.1344  0.3481
 8817TIP3    H147866   6.490   3.576  12.011 -0.3212 -0.0745 -1.3286
 8817TIP3    H247867   6.544   3.714  12.043 -0.6026 -0.7236  2.0884
 8818TIP3   OH247868   0.298   0.167  14.578 -0.0433  0.0370 -0.4635
 8818TIP3    H147869   0.258   0.131  14.657  0.4402  0.4913 -0.0034
 8818TIP3    H247870   0.225   0.188  14.521 -0.5544  1.9557  0.8278
 8819TIP3   OH247871   2.219   5.510  12.512 -0.4689  0.6269 -0.1485
 8819TIP3    H147872   2.186   5.458  12.439 -0.0412  1.4267 -0.9258
 8819TIP3    H247873   2.259   5.446  12.571 -2.5395 -0.2309  0.3487
 8820TIP3   OH247874   5.900   2.918  14.557 -0.1882 -0.0030 -0.3187
 8820TIP3    H147875   5.844   2.850  14.596  0.9968 -1.2106 -0.6969
 8820TIP3    H247876   5.839   2.975  14.511 -1.3132 -0.1982  0.8905
 8821TIP3   OH247877   0.273   3.656  12.064 -0.4327  0.6138 -0.2529
 8821TIP3    H147878   0.258   3.684  11.974 -0.4704 -0.4715 -0.5850
 8821TIP3    H247879   0.270   3.560  12.061 -1.5428  0.5785  1.0778
 8822TIP3   OH247880   5.342   3.661  15.120  0.2149  0.9632  0.5381
 8822TIP3    H147881   5.334   3.632  15.029 -0.6435  2.1619  0.2202
 8822TIP3    H247882   5.437   3.662  15.136  0.3679  0.6011 -0.2968
 8823TIP3   OH247883   4.692   4.974   3.101 -0.7219 -0.1908  0.0709
 8823TIP3    H147884   4.665   5.055   3.143 -2.3509 -0.2507 -0.8345
 8823TIP3    H247885   4.771   4.947   3.149 -1.3290  0.8440  1.6883
 8824TIP3   OH247886   0.375   0.928  14.428 -0.4554  0.1897  0.2235
 8824TIP3    H147887   0.456   0.878  14.421 -0.0975  0.7421  0.3677
 8824TIP3    H247888   0.342   0.933  14.338  0.6060  1.4939 -0.1040
 8825TIP3   OH247889   4.626   3.543  14.945 -0.3080  0.1973 -0.0203
 8825TIP3    H147890   4.545   3.516  14.990  0.1053 -0.7932  0.1566
 8825TIP3    H247891   4.596   3.594  14.870 -1.1065 -0.2793 -0.0321
 8826TIP3   OH247892   6.384   4.089   0.273 -0.4054  0.8196  0.4170
 8826TIP3    H147893   6.322   4.017   0.283 -1.1197  1.1856 -1.3268
 8826TIP3    H247894   6.459   4.063   0.328 -1.3566 -0.4273  1.1692
 8827TIP3   OH247895   0.104   5.741   4.031  0.1653 -0.5531 -0.1843
 8827TIP3    H147896   0.115   5.779   3.943  4.1115  0.3925  0.6564
 8827TIP3    H247897   0.104   5.816   4.090 -1.1823 -1.2870  0.7848
 8828TIP3   OH247898   1.579   3.289   4.742 -0.3669  0.4147 -0.0608
 8828TIP3    H147899   1.585   3.256   4.652 -0.0121 -0.1534  0.1715
 8828TIP3    H247900   1.495   3.256   4.773 -0.6668  0.9363 -0.3140
 8829TIP3   OH247901   4.031   3.756  16.150 -0.3791 -0.9024 -0.0145
 8829TIP3    H147902   4.014   3.663  16.165 -2.2100 -0.6101 -0.0969
 8829TIP3    H247903   3.946   3.792  16.123  0.1768  0.8996  0.5327
 8830TIP3   OH247904   4.202   2.264  17.190  0.7179 -0.1336 -0.0639
 8830TIP3    H147905   4.209   2.271  17.094  2.2049 -0.7394 -0.0164
 8830TIP3    H247906   4.231   2.175  17.210  0.8859  0.1504  0.9898
 8831TIP3   OH247907   1.067   0.490   1.734  0.0252 -0.2732 -0.2281
 8831TIP3    H147908   1.016   0.526   1.661 -1.7397  0.4994  1.3575
 8831TIP3    H247909   1.157   0.518   1.717 -0.6756  1.4755 -1.1148
 8832TIP3   OH247910   4.331   4.492   4.582 -0.1622 -0.3514 -0.3406
 8832TIP3    H147911   4.278   4.444   4.518 -0.4628  0.9337 -1.0787
 8832TIP3    H247912   4.267   4.532   4.640  0.0913 -0.9072  0.3263
 8833TIP3   OH247913   1.740   0.462  14.045  0.4235 -0.5394  0.5205
 8833TIP3    H147914   1.676   0.511  14.096 -0.4234 -2.2383  1.1240
 8833TIP3    H247915   1.699   0.452  13.959  0.0744 -1.2216  0.7634
 8834TIP3   OH247916   2.102   3.701  14.805  0.2186  0.4490 -0.4194
 8834TIP3    H147917   2.082   3.641  14.734  0.4333 -0.8666  0.6117
 8834TIP3    H247918   2.023   3.699  14.860  1.1301 -0.7124  0.8693
 8835TIP3   OH247919   1.450   4.439  15.444 -0.0078  0.0940 -0.3499
 8835TIP3    H147920   1.494   4.440  15.529  0.2840 -0.8169 -0.4793
 8835TIP3    H247921   1.389   4.366  15.450  3.1491 -2.8966 -2.4467
 8836TIP3   OH247922   3.739   3.705   0.565 -0.1288 -0.7663  0.3535
 8836TIP3    H147923   3.827   3.687   0.598 -0.1837  1.7069  2.0247
 8836TIP3    H247924   3.681   3.668   0.631 -0.3018  0.1996  0.7448
 8837TIP3   OH247925   4.639   2.645  15.934  0.2170  0.2728 -0.1296
 8837TIP3    H147926   4.587   2.672  15.859 -0.5227  1.1301  0.6914
 8837TIP3    H247927   4.617   2.707  16.003  0.4263 -0.8653  0.9882
 8838TIP3   OH247928   2.612   5.649   5.459  0.0497  0.0017  0.5584
 8838TIP3    H147929   2.558   5.594   5.402  1.8898 -0.5956 -0.6264
 8838TIP3    H247930   2.593   5.616   5.547 -0.4300 -1.1748  0.0296
 8839TIP3   OH247931   0.945   0.931   0.584 -0.2014 -0.1741  0.0528
 8839TIP3    H147932   0.944   0.883   0.667 -1.4680 -0.7505 -0.2809
 8839TIP3    H247933   0.868   0.900   0.538  1.6034 -1.4462 -2.2468
 8840TIP3   OH247934   4.574   6.382   2.734  0.3916  0.0673 -0.1502
 8840TIP3    H147935   4.664   6.411   2.746  0.7624 -1.5530  1.2019
 8840TIP3    H247936   4.527   6.419   2.809 -0.1924  1.2770 -1.0832
 8841TIP3   OH247937   0.792   2.681  11.821 -0.3223 -0.1274  0.1729
 8841TIP3    H147938   0.789   2.602  11.767 -0.2061  0.5757 -0.8619
 8841TIP3    H247939   0.779   2.649  11.911 -1.5576 -1.1742 -0.3718
 8842TIP3   OH247940   2.709   4.191  13.548  0.2635  0.0206  0.1642
 8842TIP3    H147941   2.744   4.127  13.610  2.9397 -1.4188 -2.6913
 8842TIP3    H247942   2.622   4.159  13.527  0.1538 -0.6354  1.5327
 8843TIP3   OH247943   3.237   5.047   3.892  0.2959 -0.1829  0.2744
 8843TIP3    H147944   3.203   4.963   3.923 -2.4544  0.9880  0.5186
 8843TIP3    H247945   3.272   5.089   3.970  0.5079 -0.5553  0.3806
 8844TIP3   OH247946   3.326   2.374  14.628 -0.5137 -0.1251 -0.1385
 8844TIP3    H147947   3.353   2.427  14.703 -0.5649  0.6543 -0.6690
 8844TIP3    H247948   3.276   2.302  14.666 -0.3020  0.1113  0.5962
 8845TIP3   OH247949   2.521   1.367   0.860 -0.0252 -0.3693  0.0053
 8845TIP3    H147950   2.457   1.314   0.812 -0.1221  0.6526 -1.0192
 8845TIP3    H247951   2.487   1.456   0.854  0.7921 -0.0065  0.6353
 8846TIP3   OH247952   2.953   0.080   3.739  0.0564 -0.2600  0.1960
 8846TIP3    H147953   3.021   0.103   3.675  1.4725  1.3820  2.1904
 8846TIP3    H247954   2.975  -0.009   3.766  1.5032  0.2676  0.8588
 8847TIP3   OH247955   2.625   1.725  10.458 -0.2684 -0.0893 -0.1285
 8847TIP3    H147956   2.547   1.738  10.512 -0.0689 -1.6776  0.5518
 8847TIP3    H247957   2.606   1.647  10.406  0.5619 -0.0263 -0.5394
 8848TIP3   OH247958   0.080   1.900  13.165 -0.2052  0.0920  0.6506
 8848TIP3    H147959   0.069   1.828  13.104 -0.6366  0.2932  0.4853
 8848TIP3    H247960   0.089   1.859  13.251 -1.5800 -0.1171  0.7027
 8849TIP3   OH247961   1.654   0.961  15.489 -0.2133 -0.4902  0.0046
 8849TIP3    H147962   1.705   0.889  15.453  0.2962  0.4132 -1.0905
 8849TIP3    H247963   1.682   1.038  15.440 -2.3072  0.1011 -0.3336
 8850TIP3   OH247964   5.587   4.015  15.001  0.0184  0.3089 -0.4701
 8850TIP3    H147965   5.553   3.999  14.913 -0.7502  1.5239 -0.3933
 8850TIP3    H247966   5.677   3.982  14.998 -0.4036 -0.7910 -1.3458
 8851TIP3   OH247967   4.584   5.235   2.466 -0.5184  0.0342  0.8270
 8851TIP3    H147968   4.532   5.215   2.544 -1.6572 -1.5355 -0.2943
 8851TIP3    H247969   4.599   5.150   2.425  1.5334  0.6580  0.2374
 8852TIP3   OH247970   3.460   5.243  15.387  0.2088  0.1260  0.3120
 8852TIP3    H147971   3.512   5.319  15.362  1.2019 -0.7786 -0.4324
 8852TIP3    H247972   3.463   5.241  15.483  0.6962  0.6625  0.3064
 8853TIP3   OH247973   4.423   2.571   4.402  0.1446  0.2732  0.3589
 8853TIP3    H147974   4.459   2.543   4.486 -3.1959  0.3375  1.8635
 8853TIP3    H247975   4.356   2.506   4.382 -0.3477  1.2821 -1.3810
 8854TIP3   OH247976   6.096   2.740  14.424 -0.4273 -0.4703 -0.2050
 8854TIP3    H147977   6.030   2.790  14.471  1.1337  0.8550  0.6299
 8854TIP3    H247978   6.129   2.678  14.489  0.5984  0.2779  0.0033
 8855TIP3   OH247979   2.895   6.637   0.386  0.0522 -0.3258 -0.6947
 8855TIP3    H147980   2.969   6.611   0.332  0.4069  0.2954 -0.5046
 8855TIP3    H247981   2.927   6.710   0.439  0.4746 -2.4978  2.1765
 8856TIP3   OH247982   1.672   2.250   4.683 -0.0544  0.2767 -0.1399
 8856TIP3    H147983   1.622   2.315   4.632 -1.4949  0.0133  0.9167
 8856TIP3    H247984   1.756   2.244   4.637 -0.9966  0.6991 -1.9692
 8857TIP3   OH247985   5.164   4.654  16.930  0.6706 -0.7222 -0.1453
 8857TIP3    H147986   5.172   4.707  17.010 -2.0711  0.5470 -0.6310
 8857TIP3    H247987   5.118   4.575  16.959  0.8870 -0.8826 -0.2358
 8858TIP3   OH247988   4.591   4.919   1.215 -0.2549  0.3362  0.2425
 8858TIP3    H147989   4.656   4.976   1.256 -0.5636  0.3403  0.7412
 8858TIP3    H247990   4.639   4.870   1.149 -0.0372  1.3494 -0.3579
 8859TIP3   OH247991   0.137   0.253  11.809  0.0958 -0.8132 -0.1647
 8859TIP3    H147992   0.137   0.324  11.873  2.3978  0.1056 -1.1388
 8859TIP3    H247993   0.128   0.173  11.862 -0.2727  0.0527  1.1021
 8860TIP3   OH247994   3.134   4.978   1.365  0.2113 -0.0165  0.0093
 8860TIP3    H147995   3.087   4.926   1.300 -1.7747  1.7159 -0.0118
 8860TIP3    H247996   3.221   4.939   1.369 -0.7715 -2.4151 -1.0304
 8861TIP3   OH247997   4.177   4.993  16.161 -0.1451 -0.4104 -0.3482
 8861TIP3    H147998   4.247   4.937  16.194  0.6954  1.2925  0.8451
 8861TIP3    H247999   4.156   4.957  16.075  2.6065 -0.6387 -0.9733
 8862TIP3   OH248000   5.680   1.833   3.044  0.3944 -0.0752 -0.3165
 8862TIP3    H148001   5.741   1.798   3.108  0.8919  1.1583 -0.1002
 8862TIP3    H248002   5.599   1.784   3.059  0.5176  0.1642  1.2195
 8863TIP3   OH248003   6.236   2.887   2.991  0.2345  0.0659  0.0787
 8863TIP3    H148004   6.167   2.953   2.986  0.5425  0.4068  0.2041
 8863TIP3    H248005   6.194   2.809   3.027  0.2057  0.6978  1.4627
 8864TIP3   OH248006   2.311   5.876   2.960 -0.3204 -0.1572 -0.3274
 8864TIP3    H148007   2.234   5.872   3.017  0.9983 -2.6457  1.4019
 8864TIP3    H248008   2.355   5.958   2.984  0.3339 -1.2742  2.5057
 8865TIP3   OH248009   0.313   1.519   1.714 -0.1282  0.2552  0.5286
 8865TIP3    H148010   0.233   1.466   1.719  0.6290 -0.7511  2.2612
 8865TIP3    H248011   0.335   1.521   1.621 -1.1162 -1.0371  0.2568
 8866TIP3   OH248012   4.240   1.224   1.008 -0.3312  0.1728 -0.1392
 8866TIP3    H148013   4.211   1.284   0.938  0.4744  1.0360  0.2486
 8866TIP3    H248014   4.305   1.169   0.966 -0.2854  0.2915 -0.2263
 8867TIP3   OH248015   6.263   4.337   5.309  0.6822 -0.2945 -0.1935
 8867TIP3    H148016   6.183   4.370   5.268 -0.7376 -0.8302  2.0394
 8867TIP3    H248017   6.314   4.415   5.330  0.0970  0.1431 -0.3876
 8868TIP3   OH248018   2.315   3.366  12.088  0.2327 -0.1242  0.4744
 8868TIP3    H148019   2.226   3.337  12.111  0.3760 -0.0690  1.1130
 8868TIP3    H248020   2.372   3.316  12.147  0.6231 -0.1151  0.1062
 8869TIP3   OH248021   4.310   0.992  16.339  0.2754  0.0923 -0.1887
 8869TIP3    H148022   4.282   0.934  16.268  3.3777 -3.2434  1.1616
 8869TIP3    H248023   4.237   0.995  16.400 -1.0539  0.1216 -1.7662
 8870TIP3   OH248024   4.052   3.101  15.347 -0.2962 -0.1315  0.2551
 8870TIP3    H148025   4.111   3.169  15.313 -1.4522  0.5130 -0.4803
 8870TIP3    H248026   4.084   3.084  15.435  0.5594  0.7159  0.1238
 8871TIP3   OH248027   0.007   2.275   2.145 -0.3012 -0.1945 -0.7461
 8871TIP3    H148028   0.035   2.233   2.226 -0.6049  2.0257  0.5223
 8871TIP3    H248029  -0.065   2.332   2.171  0.4207  1.4955 -2.3398
 8872TIP3   OH248030   1.877   5.912  13.084  0.0108 -0.0870  0.4652
 8872TIP3    H148031   1.914   5.845  13.141  0.5817  0.8945  1.2598
 8872TIP3    H248032   1.895   5.995  13.129  0.8844  0.7349 -1.3528
 8873TIP3   OH248033   3.102   3.455   1.518  0.2302 -0.4287  0.0154
 8873TIP3    H148034   3.138   3.381   1.469 -0.9071 -0.9360 -0.0709
 8873TIP3    H248035   3.056   3.508   1.453  1.2114  0.4760  0.0416
 8874TIP3   OH248036   5.628   1.442  16.441  0.1620  0.3252 -0.3371
 8874TIP3    H148037   5.605   1.434  16.533 -1.3892 -0.7785 -0.8116
 8874TIP3    H248038   5.657   1.533  16.431 -0.0219  0.5459  1.1459
 8875TIP3   OH248039   2.330   3.029   1.003  0.2193 -0.4330 -0.1085
 8875TIP3    H148040   2.239   3.045   0.977 -0.1233 -3.1482 -0.6656
 8875TIP3    H248041   2.378   3.105   0.969 -1.5116  0.0104 -1.6170
 8876TIP3   OH248042   2.428   4.064  14.229 -0.1232 -0.0515 -0.4732
 8876TIP3    H148043   2.434   3.979  14.185 -0.9430 -1.2413  1.6580
 8876TIP3    H248044   2.339   4.094  14.211 -0.3234 -0.3447  0.0320
 8877TIP3   OH248045   4.156   1.130  14.190 -0.1005 -0.1925  0.1323
 8877TIP3    H148046   4.185   1.221  14.185  1.2161 -0.5585  0.7982
 8877TIP3    H248047   4.138   1.105  14.099  1.5362  0.1081 -0.2839
 8878TIP3   OH248048   4.401   1.254   0.332  0.3354 -0.3842 -0.1239
 8878TIP3    H148049   4.466   1.186   0.349  1.9241  1.0852 -0.1883
 8878TIP3    H248050   4.339   1.212   0.272  0.6716 -2.1200  0.6977
 8879TIP3   OH248051   2.945   2.439   0.016  0.3492  0.5751 -0.4112
 8879TIP3    H148052   3.018   2.383  -0.011 -1.2472 -0.9820 -1.6564
 8879TIP3    H248053   2.867   2.387  -0.004 -1.0700  1.7955  1.8303
 8880TIP3   OH248054   6.619   0.557   3.415 -0.0524  0.8227  0.9716
 8880TIP3    H148055   6.687   0.505   3.372  0.7681  1.3959  1.5633
 8880TIP3    H248056   6.545   0.497   3.426 -0.1459  0.5698 -0.9076
 8881TIP3   OH248057   2.421   4.687  11.825  0.8351  0.1194  0.3036
 8881TIP3    H148058   2.342   4.685  11.772  1.2177  0.8029 -0.3029
 8881TIP3    H248059   2.422   4.603  11.870 -0.3422  0.1933  0.4774
 8882TIP3   OH248060   2.516   1.543  15.982  0.1115  0.1443 -0.3944
 8882TIP3    H148061   2.427   1.562  15.953  0.2747 -0.1205 -1.0795
 8882TIP3    H248062   2.525   1.448  15.973  0.0219 -0.0062  0.9433
 8883TIP3   OH248063   1.120   2.694   0.925 -0.8290  0.0793  0.1271
 8883TIP3    H148064   1.180   2.620   0.928 -1.3699 -0.3091  1.9945
 8883TIP3    H248065   1.035   2.657   0.950 -0.4337  1.9218  4.6265
 8884TIP3   OH248066   2.924   5.879   2.295  0.0068 -0.3445  0.0258
 8884TIP3    H148067   2.839   5.865   2.253 -1.3277 -0.7735  2.6993
 8884TIP3    H248068   2.961   5.954   2.250 -3.1602  1.7403  0.6854
 8885TIP3   OH248069   6.762   4.557  10.509 -0.5088 -0.8208  0.0523
 8885TIP3    H148070   6.775   4.533  10.600 -1.7013  2.5426  1.1953
 8885TIP3    H248071   6.849   4.550  10.469  0.8317  1.3801  2.4325
 8886TIP3   OH248072   4.651   3.419   6.443  0.0411  0.2776  0.0746
 8886TIP3    H148073   4.622   3.347   6.498  1.1322  0.0248  0.3455
 8886TIP3    H248074   4.583   3.428   6.376 -0.5315 -0.4232  0.5618
 8887TIP3   OH248075   3.548   2.160   4.009 -0.0867  0.1086  0.2269
 8887TIP3    H148076   3.503   2.162   3.925 -0.5574 -0.0024  0.4749
 8887TIP3    H248077   3.633   2.202   3.992 -0.9182  1.7698  0.1392
 8888TIP3   OH248078   5.829   0.530   5.916  0.6354 -0.0528  0.5797
 8888TIP3    H148079   5.909   0.478   5.915  0.1816 -0.7611  0.4594
 8888TIP3    H248080   5.785   0.504   5.997  0.0211 -0.4679  0.1225
 8889TIP3   OH248081   0.726   2.757   4.708 -0.4464 -0.1148  0.0190
 8889TIP3    H148082   0.772   2.814   4.647 -0.6937  0.4919  0.3945
 8889TIP3    H248083   0.653   2.810   4.741  0.0233 -0.2264  1.2762
 8890TIP3   OH248084   0.606   1.040   1.800  0.6131 -0.7651 -0.0272
 8890TIP3    H148085   0.671   1.110   1.794  0.2315 -0.2562  1.4937
 8890TIP3    H248086   0.542   1.072   1.863  0.7467 -2.7218  1.1564
 8891TIP3   OH248087   1.743   3.951  12.240  0.0715 -0.1047 -0.1990
 8891TIP3    H148088   1.812   3.990  12.295  0.5160  1.8936 -2.0934
 8891TIP3    H248089   1.785   3.874  12.201  0.8723  0.4597 -0.4667
 8892TIP3   OH248090   0.152   5.964  16.857 -0.1421 -0.0759  0.1532
 8892TIP3    H148091   0.151   5.898  16.926 -1.0082  0.1948  0.4075
 8892TIP3    H248092   0.244   5.975  16.836  0.1271 -0.1631  1.2677
 8893TIP3   OH248093   5.849   5.377  13.874  0.4814 -0.0397 -0.4023
 8893TIP3    H148094   5.856   5.291  13.831 -0.0525 -0.5279  0.4806
 8893TIP3    H248095   5.922   5.427  13.838  1.6434 -1.3252  0.1296
 8894TIP3   OH248096   4.375   0.711   3.751 -0.5498 -0.1206 -0.0815
 8894TIP3    H148097   4.344   0.636   3.700  0.6123 -0.8355  0.2593
 8894TIP3    H248098   4.469   0.715   3.734 -0.3854  0.4739  0.9314
 8895TIP3   OH248099   6.718   5.845   5.022 -0.1034 -0.0582  0.1386
 8895TIP3    H148100   6.708   5.907   4.950 -1.3219 -1.1452 -0.6587
 8895TIP3    H248101   6.812   5.829   5.026 -0.1592 -1.4320 -2.5094
 8896TIP3   OH248102   6.478   3.177   3.397  0.0157  0.6364  0.5087
 8896TIP3    H148103   6.419   3.252   3.389  0.0480  0.5508 -0.6544
 8896TIP3    H248104   6.448   3.116   3.329  0.7056  0.0930  0.6901
 8897TIP3   OH248105   3.992   0.641   4.289  0.2436  0.1050  0.2751
 8897TIP3    H148106   4.076   0.683   4.270  0.2187  0.4582  0.9317
 8897TIP3    H248107   3.931   0.684   4.229  0.6123 -0.4818 -0.5346
 8898TIP3   OH248108   4.396   6.258   0.257 -1.5277  0.1678 -0.3268
 8898TIP3    H148109   4.305   6.229   0.260 -1.0930 -1.0975  1.9810
 8898TIP3    H248110   4.436   6.204   0.188 -2.0560 -0.7643  0.0854
 8899TIP3   OH248111   0.931   3.371   5.181 -0.0502  0.4951 -0.2646
 8899TIP3    H148112   0.947   3.307   5.250 -0.4136  1.0035  0.3060
 8899TIP3    H248113   0.989   3.444   5.202  1.3021 -0.1767 -1.6433
 8900TIP3   OH248114   2.250   5.688   4.146 -0.0815  0.6070  0.0556
 8900TIP3    H148115   2.287   5.652   4.065 -0.0556  0.2137  0.2405
 8900TIP3    H248116   2.247   5.614   4.206 -1.0940  0.6481  0.0716
 8901TIP3   OH248117   3.058   3.995   4.511  0.7991  0.6393  0.0809
 8901TIP3    H148118   3.038   3.911   4.551 -0.0195  0.8220  0.0691
 8901TIP3    H248119   3.152   4.007   4.526  0.7419  0.1494  0.8892
 8902TIP3   OH248120   6.192   2.046  12.733  0.0468  0.1360  0.4576
 8902TIP3    H148121   6.163   2.017  12.646  3.3144  0.6531 -0.8740
 8902TIP3    H248122   6.206   2.140  12.723  0.2010  0.2429  1.6219
 8903TIP3   OH248123   4.985   1.912  12.084  0.3557 -0.5737  0.1784
 8903TIP3    H148124   5.042   1.982  12.051 -1.9237  0.3927 -1.8211
 8903TIP3    H248125   4.915   1.958  12.130 -0.2871 -1.6377  0.2723
 8904TIP3   OH248126   5.133   2.293  14.158 -0.1170  0.2448  0.4047
 8904TIP3    H148127   5.171   2.218  14.111  0.9722  2.1613 -1.8680
 8904TIP3    H248128   5.041   2.270  14.167  0.4600 -2.0018  1.0253
 8905TIP3   OH248129   6.258   6.510  13.916  0.2157 -0.4483  0.4608
 8905TIP3    H148130   6.210   6.536  13.994 -0.3823  0.3477 -0.1651
 8905TIP3    H248131   6.350   6.510  13.943  0.2469  2.3844  0.4835
 8906TIP3   OH248132   1.204   5.219   6.438  0.0259  0.2805  0.0853
 8906TIP3    H148133   1.249   5.288   6.488  0.1814  0.0396  0.2789
 8906TIP3    H248134   1.135   5.188   6.496 -1.1063  1.4226 -0.6402
 8907TIP3   OH248135   6.420   2.302  12.354 -0.2373 -0.0014 -0.5364
 8907TIP3    H148136   6.416   2.299  12.449 -0.3405  0.6324 -0.5178
 8907TIP3    H248137   6.420   2.211  12.327  0.8043 -0.2131  0.1207
 8908TIP3   OH248138   4.142   5.586  12.187  0.2312  0.3939  0.6962
 8908TIP3    H148139   4.232   5.555  12.196 -0.0131 -0.1157  1.3900
 8908TIP3    H248140   4.092   5.536  12.252 -0.4151  1.2156  0.8482
 8909TIP3   OH248141   3.532   6.522  14.082  0.2309 -0.2045 -0.1046
 8909TIP3    H148142   3.596   6.467  14.127 -0.7899 -0.6489  0.8444
 8909TIP3    H248143   3.584   6.592  14.043  1.4915 -1.5289 -0.8758
 8910TIP3   OH248144   4.326   5.907  13.872 -0.6442 -0.0485 -0.4312
 8910TIP3    H148145   4.247   5.947  13.834 -0.3272  0.6901 -0.3221
 8910TIP3    H248146   4.333   5.823  13.827 -0.7720  0.4335 -1.3830
 8911TIP3   OH248147   2.264   6.766  12.057  0.5073 -0.3481  0.0144
 8911TIP3    H148148   2.252   6.845  12.004  1.9775  0.0085  0.1870
 8911TIP3    H248149   2.175   6.733  12.071  0.0573 -0.2219 -2.3173
 8912TIP3   OH248150   2.585   5.346  14.124  0.3181  0.0504 -0.3540
 8912TIP3    H148151   2.641   5.282  14.169  1.6566  0.6528 -1.1196
 8912TIP3    H248152   2.534   5.293  14.062 -0.6827 -0.6300  1.0333
 8913TIP3   OH248153   4.933   0.864   5.372  0.4653 -0.0852 -0.1383
 8913TIP3    H148154   4.979   0.932   5.421  2.3888 -0.3230 -1.5939
 8913TIP3    H248155   4.841   0.874   5.400  0.8164  2.5851  0.2594
 8914TIP3   OH248156   6.593   0.498  11.803 -0.0564 -0.3091 -0.2135
 8914TIP3    H148157   6.635   0.532  11.882  1.4089 -0.4794 -0.9065
 8914TIP3    H248158   6.513   0.550  11.794 -1.5834 -1.9965  2.8002
 8915TIP3   OH248159   6.512   2.719   1.066 -0.5311  0.3474 -0.4304
 8915TIP3    H148160   6.516   2.624   1.068 -0.6328  0.3473 -0.1910
 8915TIP3    H248161   6.476   2.740   0.980  1.8970  0.2604 -1.5197
 8916TIP3   OH248162   2.489   4.797   3.560  0.2605  0.6074 -0.4551
 8916TIP3    H148163   2.495   4.823   3.652  1.0744  0.3189 -0.4222
 8916TIP3    H248164   2.403   4.755   3.553  1.6587 -2.7255  1.0701
 8917TIP3   OH248165   4.433   3.744   0.682 -0.5928 -0.7460  0.1136
 8917TIP3    H148166   4.455   3.714   0.594  0.7306 -1.8064  0.7841
 8917TIP3    H248167   4.492   3.695   0.739 -0.5494  0.8741  1.4966
 8918TIP3   OH248168   0.089   1.863   2.165  0.3266  0.2206 -0.2499
 8918TIP3    H148169   0.176   1.823   2.159  0.4044  0.1370  1.2662
 8918TIP3    H248170   0.070   1.865   2.258 -0.4975  1.9966 -0.4439
 8919TIP3   OH248171   5.776   5.359   3.932  0.1375 -0.2877  0.2189
 8919TIP3    H148172   5.867   5.360   3.962 -0.0969 -2.5911  1.0977
 8919TIP3    H248173   5.727   5.324   4.006 -1.2606 -0.4695 -0.7775
 8920TIP3   OH248174   5.961   0.653   2.792  0.1543 -0.1750 -0.1107
 8920TIP3    H148175   5.867   0.632   2.789  0.1587 -0.0622 -1.2960
 8920TIP3    H248176   5.967   0.727   2.853 -0.3228 -1.1885  1.1908
 8921TIP3   OH248177   5.979   1.268   3.915  0.2142  0.5838  0.2240
 8921TIP3    H148178   6.050   1.310   3.866 -0.9101  0.1278 -1.8801
 8921TIP3    H248179   5.949   1.334   3.976  1.6139  1.2065  0.2542
 8922TIP3   OH248180   5.982   5.725   0.075  0.2526 -0.6645 -0.1481
 8922TIP3    H148181   5.954   5.795   0.134 -0.3529  1.2382 -2.6016
 8922TIP3    H248182   6.040   5.769   0.012 -1.6835 -1.9111 -2.9219
 8923TIP3   OH248183   6.125   2.076   1.737  0.0775 -0.3381  0.1315
 8923TIP3    H148184   6.180   2.012   1.783  0.4107  1.3165  2.0790
 8923TIP3    H248185   6.146   2.063   1.644  1.2319 -2.0469  0.6132
 8924TIP3   OH248186   5.443   3.743  17.192 -0.1312  0.3273 -0.1412
 8924TIP3    H148187   5.353   3.753  17.163 -0.1299 -0.2860 -0.3660
 8924TIP3    H248188   5.488   3.703  17.118  0.3495  0.7410 -0.0738
 8925TIP3   OH248189   3.531   3.009  13.923 -0.1227  0.4260  0.3534
 8925TIP3    H148190   3.612   2.995  13.874  0.2411  1.0094  0.7786
 8925TIP3    H248191   3.537   3.101  13.951 -0.9960  0.5123  0.2619
 8926TIP3   OH248192   6.088   2.413   0.256 -0.4972 -0.0092  0.3770
 8926TIP3    H148193   6.025   2.383   0.322 -0.8009  1.0965  0.5977
 8926TIP3    H248194   6.053   2.381   0.173  0.1971 -1.9214  0.7880
 8927TIP3   OH248195   4.790   5.657  13.497 -0.0397 -0.1629 -0.0569
 8927TIP3    H148196   4.701   5.640  13.465 -0.7439  1.3890  1.0498
 8927TIP3    H248197   4.819   5.732  13.446  0.6743 -0.6982 -0.4468
 8928TIP3   OH248198   1.723   5.040   4.560 -0.1666 -0.0461 -0.0967
 8928TIP3    H148199   1.651   4.981   4.538 -1.0230  1.2128 -0.7154
 8928TIP3    H248200   1.750   5.014   4.649 -0.4724 -1.4074 -0.3988
 8929TIP3   OH248201   4.401   6.365   5.972  0.1263 -0.2130  0.2437
 8929TIP3    H148202   4.477   6.321   5.934  1.0748  0.5296  1.2555
 8929TIP3    H248203   4.422   6.458   5.966 -1.0721  0.0352 -0.2112
 8930TIP3   OH248204   0.012   1.468  11.261 -0.3789 -0.3134 -0.1932
 8930TIP3    H148205   0.059   1.404  11.208  1.6974 -1.3456  2.7926
 8930TIP3    H248206  -0.081   1.447  11.246  0.2166 -2.3808 -1.2397
 8931TIP3   OH248207   4.210   2.245  16.207 -0.5397 -0.1629  0.2011
 8931TIP3    H148208   4.267   2.287  16.270  0.7126  0.6297 -1.4210
 8931TIP3    H248209   4.237   2.153  16.208 -0.9197 -0.2649  1.2263
 8932TIP3   OH248210   2.041   4.716  13.269  0.2129  0.5448  0.0500
 8932TIP3    H148211   2.006   4.767  13.341  0.2923  1.9791 -0.9025
 8932TIP3    H248212   1.981   4.732  13.196 -1.3465 -2.9329  0.4522
 8933TIP3   OH248213   3.171   1.977   0.181 -0.0898  0.4853 -0.2380
 8933TIP3    H148214   3.080   1.948   0.185  0.2759 -0.7032 -0.3477
 8933TIP3    H248215   3.213   1.917   0.119  1.5274 -1.1747  2.3491
 8934TIP3   OH248216   4.940   1.246  12.096  0.1961  0.2645 -0.2710
 8934TIP3    H148217   5.012   1.207  12.046 -0.6108 -1.2076 -0.3187
 8934TIP3    H248218   4.867   1.186  12.083 -1.0234  1.6712 -0.1245
 8935TIP3   OH248219   4.225   0.850  10.657  0.2429  0.2109 -0.3926
 8935TIP3    H148220   4.138   0.829  10.625  0.1646  1.3430 -0.9426
 8935TIP3    H248221   4.210   0.897  10.739  0.2949  1.2813 -0.9891
 8936TIP3   OH248222   1.301   0.355   6.344  0.4530  0.1551 -0.0185
 8936TIP3    H148223   1.236   0.382   6.408 -2.8427 -1.9496 -2.3557
 8936TIP3    H248224   1.335   0.272   6.378  0.1671  0.0408 -0.0123
 8937TIP3   OH248225   5.136   1.859  13.060 -0.1966  0.2805  0.4146
 8937TIP3    H148226   5.145   1.768  13.032 -0.3617  0.0962  0.9657
 8937TIP3    H248227   5.224   1.884  13.087 -0.4098 -0.1217  1.5003
 8938TIP3   OH248228   1.127   0.135  11.620 -0.0046  0.0348  0.8725
 8938TIP3    H148229   1.112   0.208  11.560 -0.0685  0.5801  1.5380
 8938TIP3    H248230   1.217   0.147  11.651  0.0266 -0.2366  0.8870
 8939TIP3   OH248231   1.401   0.111  14.787 -0.4074 -0.4091  0.8427
 8939TIP3    H148232   1.389   0.180  14.721 -1.3595 -0.6821  0.7222
 8939TIP3    H248233   1.496   0.096  14.789 -0.2514  0.5121  0.4701
 8940TIP3   OH248234   5.927   4.707  16.197 -0.3755  0.1027  0.2905
 8940TIP3    H148235   6.018   4.736  16.199 -0.2210 -0.1986 -1.6515
 8940TIP3    H248236   5.876   4.788  16.200 -0.0152  0.3565 -0.3340
 8941TIP3   OH248237   0.258   2.918  17.085 -0.0366 -0.7304 -0.1044
 8941TIP3    H148238   0.245   2.915  16.991 -3.6994 -0.7889  0.3275
 8941TIP3    H248239   0.319   2.990  17.099  0.3252 -0.5491 -2.4945
 8942TIP3   OH248240   4.732   1.436   3.340 -0.0849  0.1326 -0.1228
 8942TIP3    H148241   4.792   1.474   3.276 -0.3338  0.3109 -0.2513
 8942TIP3    H248242   4.778   1.360   3.374 -0.0962 -0.1640 -0.7685
 8943TIP3   OH248243   1.375   2.659   2.898  0.1860 -0.1670  0.0420
 8943TIP3    H148244   1.286   2.666   2.862  0.9018 -1.0137 -1.9540
 8943TIP3    H248245   1.406   2.750   2.901  0.0215 -0.0523 -1.2949
 8944TIP3   OH248246   3.815   4.116  13.740  0.1712  0.1903  0.1573
 8944TIP3    H148247   3.893   4.159  13.776  1.1033 -0.6994 -0.7780
 8944TIP3    H248248   3.823   4.025  13.768 -0.1281 -0.0727 -0.6043
 8945TIP3   OH248249   2.328   4.737  10.352  0.0098  0.2180 -0.0705
 8945TIP3    H148250   2.255   4.739  10.414  0.2897  0.7885  0.2387
 8945TIP3    H248251   2.320   4.820  10.304  0.4854  0.2971 -0.0050
 8946TIP3   OH248252   2.371   1.813   1.552  0.2671 -0.1305  0.3801
 8946TIP3    H148253   2.286   1.842   1.585 -0.6475  0.8470 -2.6239
 8946TIP3    H248254   2.350   1.736   1.498  1.2460  0.2261 -0.5288
 8947TIP3   OH248255   4.617   5.362  16.899  0.3145  0.3198 -0.3122
 8947TIP3    H148256   4.563   5.306  16.954  0.1206  1.4127  0.6482
 8947TIP3    H248257   4.554   5.415  16.849  0.4915  0.3579 -0.4953
 8948TIP3   OH248258   0.405   6.358  13.860 -0.0193  0.4221 -0.8784
 8948TIP3    H148259   0.347   6.432  13.878 -1.0290 -0.5354 -0.1000
 8948TIP3    H248260   0.467   6.358  13.933 -2.2366 -1.6202  1.1154
 8949TIP3   OH248261   2.527   3.298  16.511  0.1279 -0.3178 -0.3128
 8949TIP3    H148262   2.521   3.361  16.582  1.5961  0.2919 -0.7075
 8949TIP3    H248263   2.519   3.213  16.553  3.3649 -0.0830  0.9302
 8950TIP3   OH248264   2.478   4.764  12.697 -0.5026  0.4405 -0.1045
 8950TIP3    H148265   2.452   4.740  12.608  0.0978 -0.9507  0.0752
 8950TIP3    H248266   2.574   4.761  12.696 -0.4547  1.4202  0.3287
 8951TIP3   OH248267   3.317   6.137  12.442  0.1376  0.3168 -0.0970
 8951TIP3    H148268   3.276   6.073  12.500  0.0180  0.5493  0.0703
 8951TIP3    H248269   3.257   6.143  12.367  0.2050  0.1482 -0.1644
 8952TIP3   OH248270   2.070   5.297  14.113 -0.1788  0.2230  0.5359
 8952TIP3    H148271   2.084   5.234  14.042 -0.2585  0.5574  0.2207
 8952TIP3    H248272   2.141   5.281  14.174 -0.4500 -0.4711  0.6704
 8953TIP3   OH248273   0.577   2.637   5.512 -0.1245 -0.1955  0.2886
 8953TIP3    H148274   0.631   2.702   5.466 -1.0327  0.5112  0.2091
 8953TIP3    H248275   0.552   2.681   5.594 -1.8080  0.0420 -0.3449
 8954TIP3   OH248276   5.896   6.218   3.586  0.1480 -0.4897  0.1946
 8954TIP3    H148277   5.955   6.276   3.539 -0.3992 -0.0663  0.0333
 8954TIP3    H248278   5.833   6.188   3.520 -1.4493  1.1625  0.9188
 8955TIP3   OH248279   4.688   6.017   0.155  0.7622  0.1538 -0.1053
 8955TIP3    H148280   4.605   6.045   0.116  0.1785 -1.5289 -0.0897
 8955TIP3    H248281   4.668   6.005   0.248  0.7331 -1.2900 -0.2836
 8956TIP3   OH248282   6.097   2.808  10.419 -0.2068 -0.2884 -0.3273
 8956TIP3    H148283   6.120   2.863  10.494  0.6274 -2.5798  1.1715
 8956TIP3    H248284   6.137   2.852  10.344  1.9111  0.2793  1.0730
 8957TIP3   OH248285   1.863   3.347  11.747 -0.2715 -0.0391 -0.1428
 8957TIP3    H148286   1.959   3.348  11.752 -0.1836  0.3571 -1.5514
 8957TIP3    H248287   1.836   3.415  11.808  0.3226 -0.4815  0.6284
 8958TIP3   OH248288   0.177   6.407   2.382  0.0878  0.4351 -0.4569
 8958TIP3    H148289   0.150   6.366   2.300 -0.5542  1.1882 -0.6253
 8958TIP3    H248290   0.177   6.500   2.364  0.9445  0.5497  0.1078
 8959TIP3   OH248291   5.866   2.970  13.532 -0.0377 -0.2657 -0.1290
 8959TIP3    H148292   5.820   2.962  13.616  0.0949 -2.2242 -0.2248
 8959TIP3    H248293   5.798   2.990  13.469 -0.2051  0.7287  0.3499
 8960TIP3   OH248294   0.246   5.717  14.190  0.4262  0.8999  0.3052
 8960TIP3    H148295   0.246   5.680  14.278  1.5364  1.0094  0.3605
 8960TIP3    H248296   0.339   5.728  14.169  0.2890 -1.6823 -1.9651
 8961TIP3   OH248297   3.044   4.013   1.854  0.4526  0.2557  0.9889
 8961TIP3    H148298   3.034   4.102   1.819  1.6056 -0.0781 -0.2391
 8961TIP3    H248299   3.139   3.999   1.856  0.2293 -1.7827 -0.9992
 8962TIP3   OH248300   2.500   4.843  15.276 -0.3428 -0.0526 -0.5013
 8962TIP3    H148301   2.431   4.806  15.220  0.8288 -1.0157 -1.3497
 8962TIP3    H248302   2.456   4.911  15.327 -1.8744 -0.5141 -1.1692
 8963TIP3   OH248303   3.078   2.208  14.696  0.4493  0.1840 -0.0998
 8963TIP3    H148304   3.024   2.137  14.663  0.2633  0.6705 -0.8607
 8963TIP3    H248305   3.075   2.199  14.791  1.7061 -1.7713 -0.2151
 8964TIP3   OH248306   3.647   0.749   4.403 -0.3828  0.1524  0.2073
 8964TIP3    H148307   3.680   0.700   4.328  1.9055  0.6552  0.8515
 8964TIP3    H248308   3.716   0.742   4.469 -2.7221 -1.1373  2.6758
 8965TIP3   OH248309   5.277   4.858  11.997 -0.0828  0.8648  0.2882
 8965TIP3    H148310   5.244   4.771  11.976  0.3972  0.8502 -0.4325
 8965TIP3    H248311   5.352   4.842  12.054  0.7283  0.7451 -0.7958
 8966TIP3   OH248312   4.329   2.467  15.794 -0.0192  0.2497  0.0909
 8966TIP3    H148313   4.267   2.412  15.746  0.4425 -1.4628  1.4260
 8966TIP3    H248314   4.274   2.535  15.835 -0.8526 -0.4865  0.2069
 8967TIP3   OH248315   4.242   2.468  15.248 -0.1081 -0.1288  0.2222
 8967TIP3    H148316   4.242   2.505  15.160  0.3628  0.3570  0.4297
 8967TIP3    H248317   4.258   2.542  15.306  3.0843 -0.9656  0.4944
 8968TIP3   OH248318   3.915   1.667   2.552  0.5400  0.0477 -0.4706
 8968TIP3    H148319   3.983   1.675   2.485 -1.4374  0.0842 -2.5716
 8968TIP3    H248320   3.866   1.750   2.546 -0.4509 -0.4791  0.0995
 8969TIP3   OH248321   5.944   1.383  16.324  0.3855  0.1365 -0.0978
 8969TIP3    H148322   5.877   1.342  16.379 -0.2811  0.2165 -0.8384
 8969TIP3    H248323   6.004   1.312  16.301  1.2511  0.3019  1.5665
 8970TIP3   OH248324   5.155   4.709   3.301  0.5783 -0.3766  0.3976
 8970TIP3    H148325   5.150   4.634   3.243  1.2022 -1.2908  1.5168
 8970TIP3    H248326   5.241   4.748   3.283  1.2024 -1.2574  1.4206
 8971TIP3   OH248327   3.307   6.667  14.169  0.0875  0.0167  0.6709
 8971TIP3    H148328   3.356   6.593  14.135  1.5527  1.4244 -0.3326
 8971TIP3    H248329   3.272   6.711  14.091 -1.0881  0.1741  1.2712
 8972TIP3   OH248330   5.993   4.998  12.439  0.4519 -0.1680  0.2767
 8972TIP3    H148331   6.076   5.042  12.423 -0.7654  2.0160 -0.2345
 8972TIP3    H248332   5.937   5.026  12.367 -0.7529 -1.5805  0.6447
 8973TIP3   OH248333   6.150   2.046   1.351 -0.3878  0.3178 -0.1318
 8973TIP3    H148334   6.176   1.955   1.364  0.9041  0.6529 -0.3340
 8973TIP3    H248335   6.232   2.092   1.331 -0.7551  1.8651  1.8386
 8974TIP3   OH248336   5.217   5.144  12.960  0.0392 -0.0833 -0.0872
 8974TIP3    H148337   5.142   5.203  12.964  0.0698 -0.0110 -0.5466
 8974TIP3    H248338   5.280   5.189  12.904  0.1644 -0.4406 -0.2380
 8975TIP3   OH248339   4.197   6.486   4.150  0.1824 -0.3130 -0.2422
 8975TIP3    H148340   4.176   6.487   4.243 -0.3979  2.1939 -0.3567
 8975TIP3    H248341   4.114   6.504   4.106  0.7483  0.1026 -1.1672
 8976TIP3   OH248342   5.626   0.901   6.607  0.1540 -0.4844  0.1780
 8976TIP3    H148343   5.617   0.976   6.665  0.6577  0.9823 -1.5873
 8976TIP3    H248344   5.536   0.881   6.579  0.0548 -0.3426  0.3940
 8977TIP3   OH248345   4.033   2.032   3.646  0.0625 -0.4469  0.5048
 8977TIP3    H148346   3.960   2.082   3.609  0.3858  0.0988  0.6084
 8977TIP3    H248347   3.995   1.987   3.721 -0.2940 -0.5673  0.2517
 8978TIP3   OH248348   1.182   4.281  16.240  0.3248 -0.1028 -0.1159
 8978TIP3    H148349   1.206   4.275  16.333  2.0149 -1.0447 -0.5818
 8978TIP3    H248350   1.119   4.211  16.227  1.9763 -1.6057 -0.2133
 8979TIP3   OH248351   1.729   6.194  13.779 -0.2277  0.1249 -0.8353
 8979TIP3    H148352   1.727   6.180  13.684  1.1603 -1.0658 -0.7074
 8979TIP3    H248353   1.639   6.176  13.807 -0.3180 -0.9506 -1.7483
 8980TIP3   OH248354   1.049   0.947  16.784  0.8029  0.2504 -0.1139
 8980TIP3    H148355   1.118   0.882  16.773  2.3400  1.9958 -1.0036
 8980TIP3    H248356   1.060   0.978  16.874  0.0371 -0.7203  0.3284
 8981TIP3   OH248357   4.295   3.421   1.225 -0.4691  0.1361 -0.0853
 8981TIP3    H148358   4.230   3.455   1.163 -0.9235  1.3319  1.0434
 8981TIP3    H248359   4.245   3.402   1.305  0.2787 -0.5672  0.2215
 8982TIP3   OH248360   2.986   2.058  14.045 -0.3289  0.1456  0.3268
 8982TIP3    H148361   2.925   2.098  13.983 -0.3213 -0.3176  0.0241
 8982TIP3    H248362   2.935   1.990  14.089  0.3304 -1.1607 -0.8744
 8983TIP3   OH248363   4.736   1.659   1.255  0.2245 -0.4575 -0.0437
 8983TIP3    H148364   4.657   1.640   1.204 -1.1313 -1.7871  2.4542
 8983TIP3    H248365   4.726   1.751   1.281 -0.2177 -0.4608 -0.2002
 8984TIP3   OH248366   1.997   0.291   3.074 -0.1832 -0.1935  0.8016
 8984TIP3    H148367   2.070   0.338   3.114  0.1350  0.1065 -0.1191
 8984TIP3    H248368   2.037   0.215   3.031  0.1265  1.9182 -2.8725
 8985TIP3   OH248369   5.417   3.916  14.480  0.3223 -0.0323  0.8496
 8985TIP3    H148370   5.471   3.921  14.402 -0.7628 -0.9391  0.0038
 8985TIP3    H248371   5.371   3.999  14.483  2.9642  1.4204  2.5109
 8986TIP3   OH248372   4.834   3.051   5.471  0.8832  0.1204 -0.7690
 8986TIP3    H148373   4.814   3.113   5.402  2.0914  0.2751 -1.0004
 8986TIP3    H248374   4.926   3.027   5.456  1.5870  1.1787  1.5399
 8987TIP3   OH248375   4.162   5.799  13.098 -0.7035 -0.3717 -0.5962
 8987TIP3    H148376   4.113   5.877  13.124 -2.0363 -1.0747 -0.9602
 8987TIP3    H248377   4.123   5.728  13.149  2.1210 -0.4481  1.5969
 8988TIP3   OH248378   0.385   5.921  16.529 -0.4026  0.3535 -0.3233
 8988TIP3    H148379   0.473   5.884  16.532 -0.7458 -0.4455  0.3530
 8988TIP3    H248380   0.394   6.008  16.569 -0.2178 -0.3881  1.3009
 8989TIP3   OH248381   2.164   1.509  11.258 -0.3483 -0.5677 -0.2495
 8989TIP3    H148382   2.230   1.564  11.300 -1.6725 -0.3944  1.6212
 8989TIP3    H248383   2.137   1.560  11.181  0.3375  0.1930  0.0059
 8990TIP3   OH248384   6.224   3.784  16.386 -0.1968 -0.0017  0.5864
 8990TIP3    H148385   6.142   3.824  16.359 -1.9377 -1.9618  2.7440
 8990TIP3    H248386   6.246   3.724  16.315 -0.5468  0.6047 -0.0438
 8991TIP3   OH248387   5.326   1.387   1.860  0.1625  0.7642  0.2510
 8991TIP3    H148388   5.360   1.304   1.826  2.6813  1.2466  1.4956
 8991TIP3    H248389   5.323   1.444   1.783 -0.4630 -0.1317 -0.3910
 8992TIP3   OH248390   1.686   1.285  12.759 -0.3536 -0.0415 -0.3715
 8992TIP3    H148391   1.637   1.205  12.776 -1.5859  0.6996 -0.3996
 8992TIP3    H248392   1.620   1.354  12.754  0.5995  0.8298 -1.3356
 8993TIP3   OH248393   2.014   0.591  13.188 -0.2952  0.4887  0.0300
 8993TIP3    H148394   2.101   0.553  13.197 -0.3886  0.5893  1.6174
 8993TIP3    H248395   2.029   0.678  13.153  0.3928  1.0614  1.6789
 8994TIP3   OH248396   3.060   1.684  12.269 -0.3957  0.5282  0.1053
 8994TIP3    H148397   3.035   1.692  12.176 -1.1263  0.6786  0.3109
 8994TIP3    H248398   3.153   1.706  12.270  0.1408 -1.5619 -0.8960
 8995TIP3   OH248399   2.876   5.649   4.387 -0.0898  0.2508  0.1015
 8995TIP3    H148400   2.914   5.721   4.437  0.4671  0.1625 -0.1779
 8995TIP3    H248401   2.859   5.687   4.300  0.0170  0.1060  0.0162
 8996TIP3   OH248402   1.681   6.365   1.386 -0.0092 -0.1639 -0.1052
 8996TIP3    H148403   1.743   6.427   1.424 -1.2104  0.2692  1.2015
 8996TIP3    H248404   1.703   6.363   1.293  0.5949  1.5971 -0.0202
 8997TIP3   OH248405   2.199   1.143   0.830  0.1932  0.1269  0.0628
 8997TIP3    H148406   2.207   1.052   0.858 -1.0602  0.2982  1.0470
 8997TIP3    H248407   2.114   1.171   0.864  0.8866  1.8913  0.4236
 8998TIP3   OH248408   4.515   3.609   2.034 -0.1119  0.1731  0.9749
 8998TIP3    H148409   4.561   3.543   2.085  1.1879  0.7316  0.5540
 8998TIP3    H248410   4.584   3.652   1.983 -1.0262  1.4212  0.7661
 8999TIP3   OH248411   5.131   5.979  13.348 -0.5829  0.3140 -0.5293
 8999TIP3    H148412   5.226   5.971  13.343 -0.5638 -0.3806  0.6803
 8999TIP3    H248413   5.114   6.009  13.438 -1.4808  0.8081 -0.8556
 9000TIP3   OH248414   0.622   3.721   2.168 -0.0831  0.0555  0.0681
 9000TIP3    H148415   0.623   3.626   2.181  1.4381  0.0755  0.1739
 9000TIP3    H248416   0.626   3.733   2.073 -0.7619  0.0104  0.0332
 9001TIP3   OH248417   5.616   5.375  12.236  0.1472  0.1244 -0.7029
 9001TIP3    H148418   5.582   5.459  12.267  0.8117  0.2175 -0.2172
 9001TIP3    H248419   5.626   5.387  12.142  0.1514  0.5594 -0.6497
 9002TIP3   OH248420   1.515   3.430  12.804  0.3892  0.0906  0.1133
 9002TIP3    H148421   1.525   3.341  12.838 -0.5340  0.1194  0.4755
 9002TIP3    H248422   1.456   3.472  12.865 -0.0468  0.6239 -0.6666
 9003TIP3   OH248423   3.330   4.379   5.971  0.2509 -0.4378  0.5330
 9003TIP3    H148424   3.285   4.297   5.987 -2.4642  1.1129  1.1409
 9003TIP3    H248425   3.389   4.390   6.045 -0.7932 -0.8930  1.4330
 9004TIP3   OH248426   5.611   5.260   2.408  0.2668 -0.5103 -0.0822
 9004TIP3    H148427   5.566   5.301   2.334  1.3143  1.6942  0.4620
 9004TIP3    H248428   5.561   5.289   2.484 -0.0330 -1.7256  0.1946
 9005TIP3   OH248429   5.754   0.433   5.626  0.0098  0.4682  0.8258
 9005TIP3    H148430   5.692   0.434   5.699  0.3888  0.9368  1.1484
 9005TIP3    H248431   5.811   0.358   5.643 -1.5583 -1.0465 -0.4126
 9006TIP3   OH248432   4.081   3.201  16.902  0.1895  0.4271  0.7325
 9006TIP3    H148433   4.031   3.124  16.930 -1.1223  1.7266  2.0307
 9006TIP3    H248434   4.017   3.256  16.857  0.4939  1.9900  2.1783
 9007TIP3   OH248435   1.650   4.144   3.400 -0.2560 -0.0907 -0.1313
 9007TIP3    H148436   1.606   4.113   3.321 -0.7827 -0.8520  0.4512
 9007TIP3    H248437   1.706   4.071   3.427 -1.0187 -0.3166  0.8851
 9008TIP3   OH248438   5.540   3.442   5.540 -0.0731 -0.0756 -0.2588
 9008TIP3    H148439   5.507   3.490   5.615 -0.2088  0.2521 -0.5265
 9008TIP3    H248440   5.461   3.420   5.490 -0.4059 -3.6391  1.6459
 9009TIP3   OH248441   3.706   6.158  12.431 -0.5008  0.3708 -0.1429
 9009TIP3    H148442   3.689   6.064  12.442 -1.0877  0.4946  0.0525
 9009TIP3    H248443   3.675   6.197  12.512  1.4553  0.5369  0.5430
 9010TIP3   OH248444   4.024   4.120   0.168  0.3488  0.7941  0.4857
 9010TIP3    H148445   4.046   4.198   0.218  0.2576  1.1467 -0.0204
 9010TIP3    H248446   4.023   4.149   0.077 -1.3135  0.5872  0.4108
 9011TIP3   OH248447   5.886   4.698  10.999 -0.6088  0.1562 -0.0189
 9011TIP3    H148448   5.867   4.617  10.951  0.7834  0.0189 -0.3804
 9011TIP3    H248449   5.874   4.675  11.091  1.0858 -0.8558 -0.0282
 9012TIP3   OH248450   3.964   4.075  14.050 -1.2343  0.0447 -0.3103
 9012TIP3    H148451   3.926   4.076  14.137  0.1276 -0.7087  0.3064
 9012TIP3    H248452   3.935   3.993  14.011 -1.8611  0.3912 -0.5843
 9013TIP3   OH248453   5.298   4.194   4.256 -0.0942 -0.6552  0.5593
 9013TIP3    H148454   5.337   4.198   4.343  1.7519  0.2844 -0.2941
 9013TIP3    H248455   5.219   4.248   4.263  0.0364 -0.6044  1.6572
 9014TIP3   OH248456   1.169   2.402  11.528 -0.5160  0.0277  0.3267
 9014TIP3    H148457   1.126   2.335  11.581 -1.0305 -0.1913 -0.3700
 9014TIP3    H248458   1.102   2.429  11.465  0.8493 -1.4201 -1.7840
 9015TIP3   OH248459   4.096   5.048   3.180 -0.3705  0.0191 -0.1301
 9015TIP3    H148460   4.097   4.957   3.151  1.3778 -0.0542  0.0871
 9015TIP3    H248461   4.055   5.096   3.108  0.7241 -0.6490 -1.2097
 9016TIP3   OH248462   2.265   3.090   0.290  0.1427  0.3028 -0.5340
 9016TIP3    H148463   2.232   3.113   0.377  1.2310 -0.8360  0.1982
 9016TIP3    H248464   2.337   3.152   0.275  1.5065 -1.0152  0.4122
 9017TIP3   OH248465   1.601   0.996  12.338  0.0376 -0.4943 -0.2109
 9017TIP3    H148466   1.632   1.086  12.350 -1.9359  0.0278  1.2989
 9017TIP3    H248467   1.516   1.006  12.295  0.0818 -1.6900 -0.5833
 9018TIP3   OH248468   5.695   5.377  12.529 -0.0078 -0.2128 -0.0702
 9018TIP3    H148469   5.699   5.341  12.440  0.3695 -1.6182  0.4991
 9018TIP3    H248470   5.786   5.378  12.559 -0.1148  0.4141  0.2383
 9019TIP3   OH248471   0.647   3.279   0.951  0.8754 -0.2558  0.2211
 9019TIP3    H148472   0.715   3.276   0.884 -0.5292 -1.0803 -1.2052
 9019TIP3    H248473   0.667   3.205   1.008 -0.1684 -1.9784 -1.5777
 9020TIP3   OH248474   3.717   2.068  14.833  0.2034  0.0469 -0.5163
 9020TIP3    H148475   3.690   2.129  14.901 -0.3210 -0.2563 -0.4562
 9020TIP3    H248476   3.812   2.058  14.846  0.2759  0.7845 -0.4820
 9021TIP3   OH248477   1.987   3.930  13.624 -0.4968  0.3112 -0.5078
 9021TIP3    H148478   1.922   3.870  13.587 -2.4586  1.1582  1.4721
 9021TIP3    H248479   1.941   4.013  13.634  1.6170  1.6359 -1.3514
 9022TIP3   OH248480   0.682   4.310  12.840 -0.0352  0.4081  0.0520
 9022TIP3    H148481   0.656   4.397  12.810 -0.6427  0.4640  0.7417
 9022TIP3    H248482   0.673   4.254  12.762  2.7517  1.4241 -1.0751
 9023TIP3   OH248483   6.681   1.773  16.997  0.3928 -0.3673 -0.0641
 9023TIP3    H148484   6.683   1.825  17.077  0.3385 -1.3428  0.5825
 9023TIP3    H248485   6.764   1.790  16.954 -0.1925  1.3430 -0.5693
 9024TIP3   OH248486   1.557   4.393  12.635  0.1359  0.4918  0.4424
 9024TIP3    H148487   1.607   4.414  12.556 -2.2210  1.9370 -0.6803
 9024TIP3    H248488   1.545   4.477  12.679 -3.9281  0.6999 -0.8817
 9025TIP3   OH248489   3.611   0.797  11.776 -0.1293 -0.1884 -0.0229
 9025TIP3    H148490   3.602   0.835  11.688  2.0284 -1.0216 -0.6383
 9025TIP3    H248491   3.606   0.703  11.762 -1.1646 -0.2906  0.9535
 9026TIP3   OH248492   5.638   5.894  15.420  0.1840 -0.3714 -0.4988
 9026TIP3    H148493   5.689   5.971  15.395  0.6431 -0.3500  0.4879
 9026TIP3    H248494   5.685   5.857  15.494 -1.3160 -0.2721  0.5230
 9027TIP3   OH248495   6.617   4.339  13.519 -0.0615  0.3137 -0.1026
 9027TIP3    H148496   6.707   4.356  13.546  0.2932 -0.1763 -0.9605
 9027TIP3    H248497   6.621   4.255  13.474 -0.9699  0.2391 -0.0590
 9028TIP3   OH248498   5.806   0.923   0.454 -0.3644  0.2795  0.0320
 9028TIP3    H148499   5.875   0.964   0.401  0.7375 -0.7886  0.6120
 9028TIP3    H248500   5.764   0.996   0.499 -0.9906  1.1621 -1.9173
 9029TIP3   OH248501   4.524   2.276  11.297 -0.0086  0.1593 -0.3264
 9029TIP3    H148502   4.488   2.232  11.220  0.0314 -0.6995  0.1421
 9029TIP3    H248503   4.495   2.367  11.288  1.5673  0.4935 -2.3210
 9030TIP3   OH248504   3.774   0.407  12.539  0.7818  0.0022 -0.0356
 9030TIP3    H148505   3.720   0.458  12.600  0.7165  2.0211 -1.7295
 9030TIP3    H248506   3.845   0.372  12.593 -0.3612  0.0825  1.5644
 9031TIP3   OH248507   2.353   0.034   4.638 -0.2438 -0.0442  0.0946
 9031TIP3    H148508   2.316   0.088   4.568  2.4085  0.6333 -0.8535
 9031TIP3    H248509   2.396   0.096   4.696 -0.1663 -0.8391  0.8981
 9032TIP3   OH248510   2.417   5.750   4.361 -0.0037  0.1885 -0.9811
 9032TIP3    H148511   2.374   5.746   4.276 -1.3675 -0.5341 -0.2721
 9032TIP3    H248512   2.497   5.698   4.351 -0.0908  0.2244 -1.8482
 9033TIP3   OH248513   4.568   6.143   0.836  0.7419  0.0211  0.4684
 9033TIP3    H148514   4.574   6.078   0.765  0.7533 -0.4097  0.8620
 9033TIP3    H248515   4.474   6.155   0.848  0.7317 -0.3354  0.7672
 9034TIP3   OH248516   1.474   3.438  12.168 -0.4624 -0.5264  0.2268
 9034TIP3    H148517   1.472   3.367  12.232 -0.7290 -1.0151 -0.3167
 9034TIP3    H248518   1.529   3.404  12.097 -3.3699 -1.5652 -1.6009
 9035TIP3   OH248519   4.901   4.079  16.230 -0.3611 -0.8010 -0.1917
 9035TIP3    H148520   4.845   4.032  16.292 -1.1868  0.6534  0.1835
 9035TIP3    H248521   4.982   4.095  16.277  0.3063 -2.6715 -0.6404
 9036TIP3   OH248522   0.154   0.562  10.707 -0.4743  0.1184  0.3496
 9036TIP3    H148523   0.074   0.561  10.654 -0.3246 -0.7364  0.1285
 9036TIP3    H248524   0.135   0.503  10.780  0.0710 -0.3487  0.1193
 9037TIP3   OH248525   2.183   0.959  12.473 -0.3510 -0.3434  0.2190
 9037TIP3    H148526   2.106   1.014  12.485 -0.2175  0.0540 -0.6661
 9037TIP3    H248527   2.153   0.887  12.418  0.5519  1.3290 -2.5731
 9038TIP3   OH248528   2.041   4.122   2.424  0.7940  0.0622  0.2864
 9038TIP3    H148529   2.021   4.130   2.517  0.1785 -0.0489  0.1672
 9038TIP3    H248530   2.063   4.210   2.396 -1.4811  0.5602 -0.0200
 9039TIP3   OH248531   3.014   6.765   5.549  0.3097  0.0694  0.0545
 9039TIP3    H148532   3.025   6.752   5.643  1.1528  2.1475  0.2846
 9039TIP3    H248533   2.919   6.760   5.535  0.2357 -1.0089  0.8761
 9040TIP3   OH248534   5.037   3.714  15.006 -0.0778 -0.6327 -0.0861
 9040TIP3    H148535   5.005   3.664  14.931 -0.2662 -0.9364  0.1966
 9040TIP3    H248536   4.971   3.701  15.074  0.4813 -0.9994  0.3929
 9041TIP3   OH248537   4.387   5.732   3.258  0.2484  0.1737 -0.1208
 9041TIP3    H148538   4.336   5.707   3.180 -0.9475  0.7041  0.4737
 9041TIP3    H248539   4.448   5.659   3.271 -0.1017 -0.3014 -1.0759
 9042TIP3   OH248540   4.748   4.549   0.763 -0.3722  0.0681  0.0332
 9042TIP3    H148541   4.726   4.485   0.831  0.5573  2.2138  2.4325
 9042TIP3    H248542   4.665   4.571   0.722 -1.1556 -0.2449  1.4280
 9043TIP3   OH248543   1.190   6.182   1.417 -0.8205 -0.0871  0.1325
 9043TIP3    H148544   1.186   6.202   1.323 -0.7414 -1.7336 -0.2345
 9043TIP3    H248545   1.153   6.094   1.425  1.3453 -0.9344  1.3290
 9044TIP3   OH248546   0.944   5.765   4.832 -0.3117  0.2172 -0.0560
 9044TIP3    H148547   1.000   5.829   4.787 -1.1016  1.7466  1.0860
 9044TIP3    H248548   0.867   5.757   4.776 -0.1070  0.0850 -0.3210
 9045TIP3   OH248549   0.887   6.714  11.856 -0.1871 -0.1758  0.5454
 9045TIP3    H148550   0.964   6.723  11.911 -0.2501  2.1695  0.3011
 9045TIP3    H248551   0.866   6.803  11.829 -1.3849 -1.0567 -1.5909
 9046TIP3   OH248552   4.386   4.503   1.538  0.7689 -0.1825  0.1877
 9046TIP3    H148553   4.303   4.550   1.524  0.3218 -1.4803 -1.6527
 9046TIP3    H248554   4.405   4.516   1.631 -1.2834  0.5012  0.5360
 9047TIP3   OH248555   0.643   4.163  12.273  0.5853 -0.0737  0.1095
 9047TIP3    H148556   0.563   4.193  12.231  0.4956  0.8711  0.9495
 9047TIP3    H248557   0.706   4.154  12.201  0.1142  0.4605 -0.3709
 9048TIP3   OH248558   3.874   2.675   0.034 -0.3167  0.3232 -0.3900
 9048TIP3    H148559   3.930   2.742  -0.005 -0.5128  1.0021  0.4638
 9048TIP3    H248560   3.934   2.618   0.082 -0.0447 -0.6677 -1.8502
 9049TIP3   OH248561   1.096   3.734   4.962 -0.7893  0.1686 -0.2206
 9049TIP3    H148562   1.165   3.798   4.947 -1.4545  1.0551  0.3853
 9049TIP3    H248563   1.036   3.746   4.888 -1.1691  0.6056  0.1511
 9050TIP3   OH248564   1.513   4.088  13.434  0.1879  0.0002  0.0648
 9050TIP3    H148565   1.424   4.124  13.434  0.5192  0.9029  1.5007
 9050TIP3    H248566   1.563   4.149  13.379  0.2759  0.5161  0.6989
 9051TIP3   OH248567   2.252   2.416  11.797 -0.1498  0.0707 -0.5576
 9051TIP3    H148568   2.274   2.361  11.722  1.1706  0.7158 -0.6533
 9051TIP3    H248569   2.304   2.380  11.869  0.2400  0.7944 -0.4730
 9052TIP3   OH248570   1.610   3.524  15.099  0.3772  0.3752 -0.3535
 9052TIP3    H148571   1.570   3.611  15.104 -0.7180 -0.1959  1.3142
 9052TIP3    H248572   1.589   3.483  15.183  3.0968 -0.5809 -0.0882
 9053TIP3   OH248573   6.749   0.462  12.740 -0.2063  0.5248 -0.2115
 9053TIP3    H148574   6.762   0.549  12.702 -0.4650  0.7199  0.1436
 9053TIP3    H248575   6.701   0.413  12.673 -1.2744  1.0809  0.1409
 9054TIP3   OH248576   2.845   6.359   3.079  0.6361  0.0473  0.3778
 9054TIP3    H148577   2.787   6.433   3.061  1.0491  0.4811  0.7921
 9054TIP3    H248578   2.837   6.302   3.003  0.1617  0.4231  0.1458
 9055TIP3   OH248579   1.173   0.882   3.190 -0.1001  0.6025  0.2274
 9055TIP3    H148580   1.166   0.793   3.226  0.9472  0.2199 -0.4772
 9055TIP3    H248581   1.120   0.879   3.111  0.1665  0.5111  0.0491
 9056TIP3   OH248582   1.779   6.405   0.542  0.3783 -0.6689  0.7561
 9056TIP3    H148583   1.871   6.429   0.549  0.0185  0.6826  1.0245
 9056TIP3    H248584   1.738   6.442   0.620 -0.7026  0.2099 -0.2081
 9057TIP3   OH248585   0.273   2.702   0.935  0.1707 -0.1205  0.5197
 9057TIP3    H148586   0.288   2.612   0.907  0.7897  0.4818 -1.1982
 9057TIP3    H248587   0.292   2.754   0.857 -1.0911  1.4280  1.2281
 9058TIP3   OH248588   6.603   2.064  11.861 -0.3672  0.3076 -0.3385
 9058TIP3    H148589   6.619   2.045  11.769 -0.0019 -0.8401 -0.0384
 9058TIP3    H248590   6.512   2.095  11.863 -1.0395 -1.5926 -0.8003
 9059TIP3   OH248591   4.056   0.957   5.650  0.1255  0.0341 -0.4708
 9059TIP3    H148592   4.134   0.941   5.595 -0.4130 -0.3698 -1.1246
 9059TIP3    H248593   3.995   1.001   5.592 -0.4805 -0.4621 -0.2161
 9060TIP3   OH248594   3.280   4.870   1.013 -0.5488  0.3336  0.0061
 9060TIP3    H148595   3.232   4.946   0.980 -0.1883  0.6265  0.1548
 9060TIP3    H248596   3.366   4.904   1.036  0.1877 -0.4418 -1.4880
 9061TIP3   OH248597   3.457   2.215   2.593  0.4698 -0.1293  0.1256
 9061TIP3    H148598   3.493   2.135   2.555  0.1098 -0.8015  1.1454
 9061TIP3    H248599   3.510   2.230   2.672  0.6005  0.6946 -0.1196
 9062TIP3   OH248600   5.484   6.744   1.121 -0.4351  0.2066 -0.2064
 9062TIP3    H148601   5.430   6.716   1.195  0.3288  0.8524  0.6199
 9062TIP3    H248602   5.574   6.736   1.153  0.0162 -1.5561 -1.8097
 9063TIP3   OH248603   3.462   0.597   0.744  0.1199 -0.0646 -0.0385
 9063TIP3    H148604   3.383   0.618   0.696  1.0441 -1.7214 -2.3879
 9063TIP3    H248605   3.436   0.599   0.836 -2.4873  0.0115 -0.7476
 9064TIP3   OH248606   2.650   0.011   2.432  0.7902 -0.3624 -0.0211
 9064TIP3    H148607   2.693  -0.036   2.361  2.8503  1.1220  0.2036
 9064TIP3    H248608   2.655  -0.048   2.507  1.8123 -0.5062 -0.1938
 9065TIP3   OH248609   4.044   5.119  14.138  0.0595 -0.3088 -0.0795
 9065TIP3    H148610   4.044   5.184  14.067  0.9627 -0.4130 -0.1865
 9065TIP3    H248611   3.964   5.137  14.187 -0.9362 -0.6841 -1.5331
 9066TIP3   OH248612   5.930   2.854  13.069  0.7008 -0.1587 -0.0234
 9066TIP3    H148613   5.945   2.792  13.140  0.2143 -0.1205  0.1174
 9066TIP3    H248614   5.969   2.812  12.992  0.5543 -0.5482  0.1109
 9067TIP3   OH248615   3.098   0.631  16.062 -0.7013  0.1540  0.1999
 9067TIP3    H148616   3.056   0.564  16.117  0.3494  0.0623  0.9035
 9067TIP3    H248617   3.183   0.593  16.039 -0.8769  0.4602 -0.9708
 9068TIP3   OH248618   3.408   4.016  16.117 -0.2746  0.1676  0.2010
 9068TIP3    H148619   3.447   3.945  16.066  0.1623  0.4296  0.1731
 9068TIP3    H248620   3.420   4.094  16.063  2.5798  0.9518  1.8310
 9069TIP3   OH248621   5.608   2.916  11.263  0.2895  0.7000 -0.4528
 9069TIP3    H148622   5.560   2.950  11.187  1.6347 -1.3715 -2.3331
 9069TIP3    H248623   5.553   2.845  11.296  0.3805  0.6622 -0.3826
 9070TIP3   OH248624   1.855   2.223  14.656  1.1151 -0.4503 -0.2684
 9070TIP3    H148625   1.866   2.147  14.598  0.9902 -0.0791 -0.7757
 9070TIP3    H248626   1.928   2.217  14.717  1.0611 -1.0307 -0.2514
 9071TIP3   OH248627   2.863   5.798   5.522  0.2237  0.0986  0.1893
 9071TIP3    H148628   2.837   5.890   5.527 -0.1860  0.0006 -0.0855
 9071TIP3    H248629   2.781   5.751   5.506  0.4379 -0.3102  0.2836
 9072TIP3   OH248630   4.838   1.361  14.686 -0.0606 -0.0037 -0.7009
 9072TIP3    H148631   4.804   1.290  14.741  0.2242  0.6840  0.3752
 9072TIP3    H248632   4.768   1.378  14.623 -0.6841 -0.2957 -0.0918
 9073TIP3   OH248633   5.649   0.680  12.182 -0.2624 -0.6017 -0.6950
 9073TIP3    H148634   5.609   0.620  12.119 -1.5315  1.9778 -2.4203
 9073TIP3    H248635   5.575   0.712  12.234  0.4488 -0.7420  0.4191
 9074TIP3   OH248636   5.699   0.200  13.452  0.0179 -0.7349  0.2799
 9074TIP3    H148637   5.667   0.131  13.394 -1.3036  0.9432 -1.0259
 9074TIP3    H248638   5.622   0.224  13.505  0.5169 -0.3749  0.8506
 9075TIP3   OH248639   2.786   4.353   1.806  0.7073  0.1768 -0.0406
 9075TIP3    H148640   2.715   4.411   1.778 -0.0841  0.8314  3.1039
 9075TIP3    H248641   2.756   4.265   1.783  0.3697  0.7142 -1.7045
 9076TIP3   OH248642   1.284   1.431  11.526  0.6157  0.2253  0.0943
 9076TIP3    H148643   1.313   1.341  11.511  2.1236  0.8833 -1.0360
 9076TIP3    H248644   1.361   1.485  11.508 -0.6823  1.8626 -0.7491
 9077TIP3   OH248645   2.391   6.328  15.373 -0.5301  0.3443 -0.2098
 9077TIP3    H148646   2.392   6.417  15.337 -0.5273 -0.5993 -2.6328
 9077TIP3    H248647   2.299   6.309  15.388 -0.5705  0.5534 -0.1937
 9078TIP3   OH248648   5.483   4.727  11.199  0.4322 -0.2701 -0.2229
 9078TIP3    H148649   5.453   4.802  11.251 -0.1794 -0.2350 -0.6224
 9078TIP3    H248650   5.405   4.673  11.188  0.4647 -0.0991 -1.4086
 9079TIP3   OH248651   0.933   6.090  16.223  0.4570  0.4876 -0.2791
 9079TIP3    H148652   0.980   6.157  16.272  2.5892  0.3747 -2.0648
 9079TIP3    H248653   0.956   6.008  16.267  0.0274  0.6641  0.2743
 9080TIP3   OH248654   0.873   4.907   2.934 -0.1544  0.5562  0.5922
 9080TIP3    H148655   0.930   4.982   2.949 -1.6292  1.7779  0.2534
 9080TIP3    H248656   0.882   4.888   2.840 -1.2143  1.5577  0.2613
 9081TIP3   OH248657   3.716   4.273   4.525  0.0495 -0.0388 -0.0016
 9081TIP3    H148658   3.656   4.296   4.596 -1.1535  1.8961 -1.6032
 9081TIP3    H248659   3.742   4.357   4.487 -0.3905 -1.0616 -2.6898
 9082TIP3   OH248660   1.703   2.108  13.920 -0.2328 -0.2168 -0.0772
 9082TIP3    H148661   1.706   2.157  13.837  0.3461 -0.6999 -0.3455
 9082TIP3    H248662   1.749   2.164  13.982  0.5109 -0.4528 -0.4065
 9083TIP3   OH248663   1.687   0.650   3.302  0.0494 -0.6616  0.1293
 9083TIP3    H148664   1.736   0.693   3.372 -0.1759 -0.3620  0.1051
 9083TIP3    H248665   1.613   0.608   3.347 -0.3227 -0.1257  0.0239
 9084TIP3   OH248666   6.046   4.191   5.028  0.1146  0.0482  0.1397
 9084TIP3    H148667   6.034   4.150   5.114 -0.1006  0.8302  0.4843
 9084TIP3    H248668   5.967   4.244   5.016  1.5170  2.3751  0.8274
 9085TIP3   OH248669   6.613   4.734  12.655 -0.4766  0.3081 -0.2571
 9085TIP3    H148670   6.684   4.765  12.598  0.9462 -0.9062  0.8009
 9085TIP3    H248671   6.544   4.707  12.594  0.1275  1.1446 -1.3303
 9086TIP3   OH248672   2.308   5.752  12.490  0.0605  0.1675 -0.5514
 9086TIP3    H148673   2.260   5.670  12.501  1.1947 -0.3822  0.4391
 9086TIP3    H248674   2.396   5.725  12.463  0.7045  0.9940  0.6380
 9087TIP3   OH248675   5.850   4.317  12.039 -0.0865  0.4399  0.1153
 9087TIP3    H148676   5.768   4.358  12.010 -0.3210  0.5270  0.8885
 9087TIP3    H248677   5.890   4.284  11.959 -0.3365  1.3825 -0.4020
 9088TIP3   OH248678   4.073   4.522   4.742 -0.3904  0.9157  0.3662
 9088TIP3    H148679   3.980   4.542   4.735 -0.9058 -1.9757 -2.5350
 9088TIP3    H248680   4.081   4.433   4.707  3.9854  2.4945 -3.2132
 9089TIP3   OH248681   1.080   0.854   2.643  0.1653  0.2930 -0.1859
 9089TIP3    H148682   1.146   0.920   2.617  0.7425 -0.3437 -0.3617
 9089TIP3    H248683   1.131   0.775   2.658 -0.4945 -0.0333  0.3422
 9090TIP3   OH248684   5.968   4.303   1.188 -0.3814 -0.3825 -0.2068
 9090TIP3    H148685   5.950   4.384   1.140 -0.8288 -0.0232  0.5705
 9090TIP3    H248686   5.913   4.308   1.265  0.8228 -0.6617  0.6897
 9091TIP3   OH248687   6.600   3.237  13.135  0.2743  0.7586  0.2806
 9091TIP3    H148688   6.576   3.318  13.090 -2.3761 -0.2746 -0.2337
 9091TIP3    H248689   6.539   3.172  13.101  2.5001 -1.5256  0.5307
 9092TIP3   OH248690   5.452   4.660   4.414 -0.1021  0.2498 -0.4573
 9092TIP3    H148691   5.423   4.579   4.370  0.3560 -0.3537  0.3324
 9092TIP3    H248692   5.377   4.719   4.406 -0.8061 -0.5889 -0.2243
 9093TIP3   OH248693   4.146   1.136  14.986  0.7964  0.6833 -0.5030
 9093TIP3    H148694   4.052   1.150  14.997  0.9503  1.6578 -0.3964
 9093TIP3    H248695   4.156   1.106  14.896  0.2387 -0.7603 -0.0955
 9094TIP3   OH248696   6.061   3.580  13.667  0.2346  0.0017  0.6926
 9094TIP3    H148697   6.018   3.498  13.641 -0.9362  1.3636 -1.8357
 9094TIP3    H248698   6.147   3.575  13.626  0.1029  0.1054  0.4004
 9095TIP3   OH248699   3.001   2.527  12.871 -0.0875 -0.1347 -0.1829
 9095TIP3    H148700   2.979   2.531  12.964  1.9642 -0.1461  0.3383
 9095TIP3    H248701   3.014   2.618  12.846 -0.7690 -0.1226 -0.5025
 9096TIP3   OH248702   3.247   2.740  11.669 -0.2205  0.2045  0.1079
 9096TIP3    H148703   3.176   2.688  11.630 -1.3692  0.9304  1.1959
 9096TIP3    H248704   3.204   2.791  11.737  1.6577 -0.6076  1.9428
 9097TIP3   OH248705   5.089   3.193  15.684  0.5802  0.6480  0.0630
 9097TIP3    H148706   5.116   3.152  15.766 -1.8987  0.0454  0.6196
 9097TIP3    H248707   5.160   3.254  15.664  3.1861 -2.1174  0.4784
 9098TIP3   OH248708   3.085   1.593  14.121 -0.0431  0.1441 -0.2372
 9098TIP3    H148709   3.114   1.605  14.211 -0.0840 -2.0489  0.1033
 9098TIP3    H248710   3.037   1.510  14.122 -1.8812  1.1278 -1.8515
 9099TIP3   OH248711   5.781   1.481   5.470  0.5868 -0.1412 -0.3122
 9099TIP3    H148712   5.702   1.462   5.520  1.3752 -0.6696  0.7603
 9099TIP3    H248713   5.792   1.406   5.412  1.6770 -1.2786  1.3254
 9100TIP3   OH248714   3.526   5.546   6.469  0.1319 -0.5386  0.1766
 9100TIP3    H148715   3.579   5.611   6.516 -1.9778 -0.2768  2.2996
 9100TIP3    H248716   3.584   5.470   6.461  0.5894 -0.6000  3.2838
 9101TIP3   OH248717   4.493   4.347  14.236  0.6442  0.2921 -0.0962
 9101TIP3    H148718   4.527   4.340  14.147  0.4047  3.1342 -0.4471
 9101TIP3    H248719   4.414   4.293  14.234 -0.2036  1.5160 -2.0765
 9102TIP3   OH248720   0.441   3.171  13.111  0.3459 -0.2893  0.2881
 9102TIP3    H148721   0.458   3.248  13.165  0.9262  0.3375 -0.7706
 9102TIP3    H248722   0.347   3.176  13.092  0.5063  0.5700 -0.3616
 9103TIP3   OH248723   4.521   5.154   2.718  0.3061 -0.3602  0.4937
 9103TIP3    H148724   4.534   5.074   2.667 -0.0250 -0.4136  0.4899
 9103TIP3    H248725   4.587   5.149   2.787 -0.2659 -1.0548  0.9961
 9104TIP3   OH248726   1.884   1.766  10.431  0.6809 -0.1211  0.3687
 9104TIP3    H148727   1.912   1.850  10.467 -1.4053  0.7455  0.0474
 9104TIP3    H248728   1.788   1.771  10.431  0.5660 -1.9421 -0.9829
 9105TIP3   OH248729   5.138   4.259  11.183  0.2978  0.4719  0.1961
 9105TIP3    H148730   5.219   4.282  11.228  0.9383 -0.7958 -0.3046
 9105TIP3    H248731   5.096   4.195  11.241 -1.3277  2.6017  1.4279
 9106TIP3   OH248732   0.683   3.388  13.897 -0.3136 -0.0773 -0.0389
 9106TIP3    H148733   0.618   3.390  13.967 -1.0643 -1.1349 -0.6730
 9106TIP3    H248734   0.715   3.298  13.896 -0.3576 -0.0921 -1.0876
 9107TIP3   OH248735   4.047   5.581   4.806  0.5199  0.5478 -0.9041
 9107TIP3    H148736   4.137   5.593   4.778  0.1968  1.2668 -1.6465
 9107TIP3    H248737   3.995   5.591   4.725 -0.4614  3.0993  0.0024
 9108TIP3   OH248738   3.489   0.497  15.360  0.4576 -0.3847 -0.1366
 9108TIP3    H148739   3.561   0.449  15.401  1.2507  0.2931 -0.7283
 9108TIP3    H248740   3.438   0.430  15.315  0.3507 -0.9525  0.8193
 9109TIP3   OH248741   5.128   1.263  12.384 -0.2726 -0.0355 -0.4504
 9109TIP3    H148742   5.150   1.184  12.334  0.5978  0.5705 -1.0403
 9109TIP3    H248743   5.166   1.335  12.334 -0.3622  0.6899  0.5001
 9110TIP3   OH248744   1.717   2.682   1.789  0.0438 -0.1072 -0.4673
 9110TIP3    H148745   1.742   2.598   1.750  1.4469 -0.0951  0.4010
 9110TIP3    H248746   1.760   2.683   1.875 -1.1457  0.8663  0.1416
 9111TIP3   OH248747   4.949   6.047   2.422 -0.0640 -0.0064 -0.0578
 9111TIP3    H148748   4.989   6.089   2.499 -0.2428 -1.4350  0.8397
 9111TIP3    H248749   4.856   6.070   2.429  0.0212  0.3914 -0.2015
 9112TIP3   OH248750   6.500   1.178  13.490  0.1664  0.3974 -0.6544
 9112TIP3    H148751   6.489   1.269  13.517 -0.7467  0.4968 -1.3293
 9112TIP3    H248752   6.538   1.134  13.566 -1.3578  0.8867  0.3968
 9113TIP3   OH248753   5.833   6.406   4.929  0.2717  0.7165 -0.3087
 9113TIP3    H148754   5.852   6.388   4.837  0.5768  0.5653 -0.2176
 9113TIP3    H248755   5.905   6.463   4.958  1.0691 -0.5595  0.2664
 9114TIP3   OH248756   0.180   4.988   6.147 -0.2969  0.0941 -0.2683
 9114TIP3    H148757   0.260   5.019   6.105  0.2459 -0.9968 -0.0541
 9114TIP3    H248758   0.112   4.999   6.080  0.4304 -0.9624 -1.1931
 9115TIP3   OH248759   4.141   5.665  11.034 -0.1226 -0.1322  0.0417
 9115TIP3    H148760   4.191   5.673  10.952 -1.0438  0.1149 -0.5048
 9115TIP3    H248761   4.068   5.607  11.012 -1.0857  0.9445  0.3410
 9116TIP3   OH248762   3.930   1.079   6.546 -0.5084 -0.1054 -0.6748
 9116TIP3    H148763   3.855   1.027   6.517 -0.5241  1.1097 -2.9925
 9116TIP3    H248764   4.006   1.027   6.523 -0.5893 -1.6088  2.2191
 9117TIP3   OH248765   2.362   4.715  13.840 -0.1162  0.1355  0.3434
 9117TIP3    H148766   2.436   4.657  13.859 -2.1424 -2.4963  0.4126
 9117TIP3    H248767   2.294   4.688  13.901 -0.9299  3.0064  0.7740
 9118TIP3   OH248768   3.359   3.015   1.084 -0.3074 -0.2344 -0.5161
 9118TIP3    H148769   3.298   2.944   1.063 -0.6801 -0.1439  0.2359
 9118TIP3    H248770   3.307   3.094   1.077 -0.1507 -0.1163 -0.3517
 9119TIP3   OH248771   5.994   5.935   6.032  0.2441 -0.3005 -0.2114
 9119TIP3    H148772   5.917   5.957   6.084 -1.0736 -1.9501 -1.3893
 9119TIP3    H248773   6.015   5.845   6.056 -0.9463 -1.4307 -3.0761
 9120TIP3   OH248774   6.608   2.477  15.083 -0.0412  0.4325 -0.1649
 9120TIP3    H148775   6.515   2.458  15.092  0.3683 -1.7090 -0.2738
 9120TIP3    H248776   6.624   2.547  15.147 -1.9347  1.6657 -0.9747
 9121TIP3   OH248777   0.896   3.698  14.895  0.0069 -0.4495  0.4458
 9121TIP3    H148778   0.928   3.780  14.931 -1.1768 -0.4064  1.4351
 9121TIP3    H248779   0.972   3.640  14.896  0.2451 -0.1476  2.1520
 9122TIP3   OH248780   5.674   5.261   5.405 -0.4151  0.5212  0.3530
 9122TIP3    H148781   5.648   5.169   5.402  0.3849  0.3115 -0.4995
 9122TIP3    H248782   5.752   5.262   5.461 -1.3257  0.9114  1.6154
 9123TIP3   OH248783   2.745   3.647  15.363  0.4547 -0.1955 -0.0649
 9123TIP3    H148784   2.754   3.677  15.272  0.0640 -0.1248 -0.0822
 9123TIP3    H248785   2.814   3.582  15.373  0.9140  0.2623 -0.2152
 9124TIP3   OH248786   4.881   0.005   4.640  0.1391  0.4124  0.1887
 9124TIP3    H148787   4.946   0.004   4.570 -0.9516  0.0575 -0.8539
 9124TIP3    H248788   4.895   0.089   4.685  0.4832  0.9081 -0.8200
 9125TIP3   OH248789   6.322   2.918  17.131 -0.2328  0.4922 -0.1062
 9125TIP3    H148790   6.256   2.982  17.103 -1.9592 -1.4288 -0.6126
 9125TIP3    H248791   6.356   2.952  17.213 -0.7694  2.2873 -0.6063
 9126TIP3   OH248792   3.855   0.672   2.799  0.0990 -0.1826 -0.1209
 9126TIP3    H148793   3.794   0.601   2.780  0.4383  0.1333 -2.6291
 9126TIP3    H248794   3.807   0.752   2.774 -0.7523  0.6536  3.8255
 9127TIP3   OH248795   4.987   1.527  14.876  0.2260 -0.3016  0.1333
 9127TIP3    H148796   4.956   1.477  14.801 -0.6680  1.0485 -0.4254
 9127TIP3    H248797   5.039   1.598  14.839  2.7276 -1.6194  0.9936
 9128TIP3   OH248798   1.520   3.207  12.323  0.0908 -0.1411  0.1579
 9128TIP3    H148799   1.462   3.206  12.399  2.6358 -0.4101  2.1914
 9128TIP3    H248800   1.486   3.140  12.265 -0.8171 -1.2674  1.9468
 9129TIP3   OH248801   1.370   5.273  14.049  0.0214 -0.5072 -0.3372
 9129TIP3    H148802   1.373   5.202  14.113 -0.4061 -1.2583 -1.1269
 9129TIP3    H248803   1.382   5.229  13.965  0.6481  0.4684 -0.7709
 9130TIP3   OH248804   6.136   5.523  13.458  0.1265  0.2608  0.9155
 9130TIP3    H148805   6.073   5.577  13.410 -0.3851  2.4975  4.0143
 9130TIP3    H248806   6.082   5.456  13.501  0.5429 -1.4670 -1.1433
 9131TIP3   OH248807   0.496   5.690  17.214 -0.1316 -0.4717 -0.1604
 9131TIP3    H148808   0.460   5.666  17.299 -0.9858  1.9305  0.1700
 9131TIP3    H248809   0.429   5.665  17.150 -0.7616  0.4558  0.1309
 9132TIP3   OH248810   5.313   3.945  16.333  0.1175 -0.1026  0.0400
 9132TIP3    H148811   5.236   3.931  16.387 -1.5288  0.6023 -2.0743
 9132TIP3    H248812   5.333   3.859  16.296 -1.3147  0.2230 -1.5501
 9133TIP3   OH248813   6.761   3.313  12.010  0.2428 -0.1219 -0.2767
 9133TIP3    H148814   6.773   3.225  11.973  0.9870  1.0587 -2.9476
 9133TIP3    H248815   6.721   3.363  11.939  1.4353  2.1646  0.6440
 9134TIP3   OH248816   0.797   4.876  11.898 -0.3594  0.6843  0.2162
 9134TIP3    H148817   0.875   4.868  11.843  0.7135  0.5296  1.7248
 9134TIP3    H248818   0.817   4.948  11.958 -1.9917  1.6369 -0.3608
 9135TIP3   OH248819   1.484   0.171   3.857  0.1466 -0.1449  0.2676
 9135TIP3    H148820   1.497   0.131   3.771  2.0837  0.0640  0.4299
 9135TIP3    H248821   1.534   0.116   3.917 -0.7323  0.0381  1.1864
 9136TIP3   OH248822   3.218   3.513  10.620  0.1408 -0.3552 -0.1775
 9136TIP3    H148823   3.201   3.542  10.710  0.1624  0.4355 -0.4162
 9136TIP3    H248824   3.246   3.593  10.575  0.0631 -0.7370 -0.9046
 9137TIP3   OH248825   1.277   1.874   4.321 -0.1329  1.0491  0.4072
 9137TIP3    H148826   1.254   1.914   4.238  0.8024 -0.4354 -0.5990
 9137TIP3    H248827   1.367   1.843   4.309 -0.5104 -0.5185  1.4361
 9138TIP3   OH248828   0.352   2.635  13.935  0.3479  0.5386  0.5280
 9138TIP3    H148829   0.268   2.592  13.947 -0.4536  2.1335  0.7778
 9138TIP3    H248830   0.336   2.700  13.866  1.4508  0.6174  0.3350
 9139TIP3   OH248831   4.236   1.057  11.766  0.4818 -0.2804  0.2298
 9139TIP3    H148832   4.230   1.132  11.825  3.4990  0.2748 -0.0624
 9139TIP3    H248833   4.330   1.037  11.763 -0.0868 -2.9447 -1.0938
 9140TIP3   OH248834   5.259   4.847   5.995 -0.6701 -0.3298 -0.3925
 9140TIP3    H148835   5.256   4.816   6.086  0.2956 -1.0338 -0.5923
 9140TIP3    H248836   5.170   4.875   5.976 -0.9633 -0.5400  0.6514
 9141TIP3   OH248837   4.066   0.834   0.779 -0.2137  0.1610  0.2012
 9141TIP3    H148838   4.147   0.839   0.728 -0.3827  0.3255 -0.0546
 9141TIP3    H248839   3.997   0.824   0.713 -0.5199  1.2433  0.3418
 9142TIP3   OH248840   1.432   3.982  15.015 -0.0104  0.3642  0.2583
 9142TIP3    H148841   1.509   4.033  14.989 -1.2216  2.5480  0.8174
 9142TIP3    H248842   1.379   3.976  14.936  1.0106 -1.6975 -0.2939
 9143TIP3   OH248843   5.078   3.840  13.429 -0.9709  0.6928 -0.4997
 9143TIP3    H148844   5.069   3.764  13.371  1.0879 -0.1583  0.2367
 9143TIP3    H248845   4.990   3.878  13.433 -2.3752 -2.4353  0.1537
 9144TIP3   OH248846   6.216   4.468  11.413 -0.2139 -0.3777 -0.3279
 9144TIP3    H148847   6.126   4.494  11.432 -0.2706 -1.5622  1.0959
 9144TIP3    H248848   6.214   4.373  11.414  0.3986 -0.4941 -3.5921
 9145TIP3   OH248849   1.908   0.458   2.311 -0.1418  0.7870  0.0326
 9145TIP3    H148850   1.987   0.469   2.259  0.1818 -1.3554  0.0035
 9145TIP3    H248851   1.934   0.482   2.400  1.6155 -3.3419  0.7412
 9146TIP3   OH248852   0.561   0.963   3.579  0.1465 -0.6619 -0.2277
 9146TIP3    H148853   0.575   1.049   3.620  0.4519 -0.1417 -1.3986
 9146TIP3    H248854   0.600   0.971   3.492 -2.5482 -0.9653 -1.5233
 9147TIP3   OH248855   0.524   3.361   4.137  0.6174 -0.3262 -0.1856
 9147TIP3    H148856   0.463   3.429   4.110  2.2110  1.7291  1.2559
 9147TIP3    H248857   0.476   3.310   4.203 -0.2342 -0.0020 -0.5502
 9148TIP3   OH248858   6.529   1.419  11.207 -0.3284  0.7450 -0.6975
 9148TIP3    H148859   6.498   1.333  11.180  0.6910  0.7978 -2.1006
 9148TIP3    H248860   6.452   1.476  11.201 -0.2495  0.6542 -3.1167
 9149TIP3   OH248861   2.330   3.597  14.522 -0.0968 -0.3110  0.4515
 9149TIP3    H148862   2.329   3.662  14.592  1.6728  0.6256 -0.3775
 9149TIP3    H248863   2.306   3.645  14.443  3.4740 -0.0756 -0.5880
 9150TIP3   OH248864   2.229   0.291  16.670  0.4146  0.5728 -0.5124
 9150TIP3    H148865   2.234   0.261  16.761 -1.7896  1.2750 -0.1389
 9150TIP3    H248866   2.219   0.386  16.678  2.0792  0.8483 -1.5505
 9151TIP3   OH248867   2.582   4.008   0.002 -0.0050 -0.3975 -0.4796
 9151TIP3    H148868   2.608   4.006  -0.091 -3.8083  0.0867 -1.6268
 9151TIP3    H248869   2.535   3.926   0.015 -0.3728  0.0126  0.7713
 9152TIP3   OH248870   5.417   0.008   3.614  0.4088  0.3002  0.5331
 9152TIP3    H148871   5.395   0.015   3.707  0.8227  0.9793  0.5822
 9152TIP3    H248872   5.374   0.083   3.573  0.4693  0.1639  0.2154
 9153TIP3   OH248873   3.327   0.918  16.257 -0.6143 -0.2922  0.8776
 9153TIP3    H148874   3.329   0.825  16.233 -1.4506 -0.6818  2.2880
 9153TIP3    H248875   3.235   0.936  16.278 -0.8493  1.3993 -1.4262
 9154TIP3   OH248876   6.334   2.119  17.042  0.4195 -0.1572 -0.6737
 9154TIP3    H148877   6.390   2.061  16.990  1.7322  1.9572 -1.6404
 9154TIP3    H248878   6.392   2.187  17.074 -0.6715 -0.5337  2.3275
 9155TIP3   OH248879   1.979   1.070   4.976  0.0132 -0.1715 -0.2943
 9155TIP3    H148880   2.030   1.079   4.896 -0.1875 -0.7733 -0.4942
 9155TIP3    H248881   1.888   1.080   4.948  0.0666  1.8061  0.1996
 9156TIP3   OH248882   3.307   1.559   2.487  0.1627  0.0546 -0.1833
 9156TIP3    H148883   3.310   1.643   2.532  1.0694  0.5521 -1.1825
 9156TIP3    H248884   3.281   1.580   2.397  0.4079 -0.7279 -0.4407
 9157TIP3   OH248885   3.231   2.639  12.587 -0.0500  0.2586 -0.9328
 9157TIP3    H148886   3.283   2.717  12.607 -0.5081  0.1182  0.9205
 9157TIP3    H248887   3.140   2.668  12.595 -0.2454 -0.9110  1.8531
 9158TIP3   OH248888   0.202   1.877   5.574 -0.2192 -0.2532  0.3686
 9158TIP3    H148889   0.154   1.797   5.595 -1.3812  0.3787  0.1979
 9158TIP3    H248890   0.248   1.858   5.493 -1.7588 -0.2438 -0.5245
 9159TIP3   OH248891   1.279   0.073   1.341  0.5021 -0.6167  0.0005
 9159TIP3    H148892   1.369   0.043   1.351  0.2430 -1.1491  0.7780
 9159TIP3    H248893   1.287   0.165   1.314  1.2833  0.0205  2.2697
 9160TIP3   OH248894   5.532   3.537  11.257  0.2319  0.6943 -0.1913
 9160TIP3    H148895   5.551   3.611  11.199  0.4926  1.2316  0.5653
 9160TIP3    H248896   5.517   3.578  11.342  1.4710 -0.2123  0.4755
 9161TIP3   OH248897   3.061   3.517   4.338 -1.0076  0.2348 -0.3167
 9161TIP3    H148898   2.974   3.492   4.306 -1.8907 -0.1161  2.2276
 9161TIP3    H248899   3.079   3.453   4.407  1.0018  0.7162 -0.3889
 9162TIP3   OH248900   1.797   1.122   5.272  0.2716  0.2257 -0.5814
 9162TIP3    H148901   1.838   1.207   5.291 -0.8355  0.7103 -0.2679
 9162TIP3    H248902   1.836   1.094   5.190  0.6127  1.0705 -0.7156
 9163TIP3   OH248903   2.653   5.804   1.278 -0.8082 -0.1577 -0.2354
 9163TIP3    H148904   2.582   5.798   1.342 -0.4782  0.6369  0.2019
 9163TIP3    H248905   2.666   5.714   1.249 -0.7540 -0.5643  1.0349
 9164TIP3   OH248906   1.691   4.536  14.039  0.1171  0.3460 -0.1700
 9164TIP3    H148907   1.739   4.503  13.963  0.2246 -0.5262  0.2656
 9164TIP3    H248908   1.757   4.543  14.108 -0.5920 -2.1508  0.8270
 9165TIP3   OH248909   5.503   4.140  17.096 -0.1994 -0.2058 -0.0726
 9165TIP3    H148910   5.556   4.079  17.148 -0.4328  0.0483  0.4761
 9165TIP3    H248911   5.538   4.134  17.008  2.0778  1.4421  0.6740
 9166TIP3   OH248912   2.589   2.190  12.501  0.1614 -0.3638 -0.4044
 9166TIP3    H148913   2.659   2.191  12.566 -0.0181 -0.7031 -0.1998
 9166TIP3    H248914   2.510   2.213  12.552 -0.1267 -1.5004 -0.3189
 9167TIP3   OH248915   4.838   4.505   1.159 -0.0613  0.3670  0.4857
 9167TIP3    H148916   4.862   4.413   1.173  0.8492  0.4246 -0.6436
 9167TIP3    H248917   4.767   4.521   1.221 -0.3301 -1.1483  0.5823
 9168TIP3   OH248918   2.620   5.766   2.504  0.3632 -0.4649 -0.0395
 9168TIP3    H148919   2.544   5.755   2.560 -1.4730  1.6322 -2.0223
 9168TIP3    H248920   2.604   5.706   2.430  0.2053  0.5645 -0.8561
 9169TIP3   OH248921   0.278   0.647   1.576 -0.6445 -0.4198 -0.9486
 9169TIP3    H148922   0.245   0.623   1.489 -1.2589 -0.7985 -0.6141
 9169TIP3    H248923   0.264   0.569   1.630  1.3104 -0.7808 -0.9189
 9170TIP3   OH248924   2.696   0.429  12.375  0.7028 -0.3140  0.0207
 9170TIP3    H148925   2.743   0.503  12.335  0.3129  1.5474  2.8858
 9170TIP3    H248926   2.633   0.402  12.308  2.3129  0.5400 -1.8872
 9171TIP3   OH248927   1.896   3.256  14.875  0.3299  0.5615  0.5039
 9171TIP3    H148928   1.973   3.257  14.818  0.6451  0.1837  0.9187
 9171TIP3    H248929   1.931   3.264  14.963  0.1058 -2.0441  0.8779
 9172TIP3   OH248930   6.529   6.384  15.496 -0.2004  0.1147  0.4423
 9172TIP3    H148931   6.551   6.442  15.423  0.6711 -0.1805  0.4644
 9172TIP3    H248932   6.513   6.299  15.456 -1.0341  0.2600  0.4587
 9173TIP3   OH248933   0.083   0.195   2.992 -0.4678  0.3335 -0.1343
 9173TIP3    H148934   0.122   0.282   2.999  1.4071 -0.6387  1.8859
 9173TIP3    H248935   0.039   0.182   3.076  1.3682 -1.6276  0.5615
 9174TIP3   OH248936   1.784   6.302   2.549  0.1111 -0.7885  0.1909
 9174TIP3    H148937   1.880   6.302   2.541  0.1527 -0.2407  0.6582
 9174TIP3    H248938   1.768   6.333   2.638 -0.4776 -1.7703  0.4306
 9175TIP3   OH248939   2.603   5.153   3.715  0.1562  0.0144 -0.1039
 9175TIP3    H148940   2.575   5.156   3.623  2.4174 -0.9292 -0.8477
 9175TIP3    H248941   2.631   5.242   3.735  0.8178 -0.0622 -0.6974
 9176TIP3   OH248942   5.171   5.977  10.574  0.3267 -0.3868 -0.6089
 9176TIP3    H148943   5.117   6.052  10.548  0.2542 -0.3263 -0.2835
 9176TIP3    H248944   5.129   5.902  10.531 -0.4188 -0.4337  0.1857
 9177TIP3   OH248945   3.251   0.452   3.557  0.7280 -0.0063 -0.1739
 9177TIP3    H148946   3.293   0.412   3.480  0.2835 -0.9690  0.0755
 9177TIP3    H248947   3.255   0.384   3.624  0.7103  0.6745  0.5288
 9178TIP3   OH248948   4.653   1.592   6.419 -0.2435  0.4294 -0.1025
 9178TIP3    H148949   4.670   1.563   6.509 -1.2875 -0.4848 -0.1987
 9178TIP3    H248950   4.726   1.651   6.399  0.4543 -0.0312  1.0387
 9179TIP3   OH248951   1.176   4.904   4.132 -0.2562  0.1643 -0.7467
 9179TIP3    H148952   1.257   4.943   4.163 -0.5537  1.5005 -1.5580
 9179TIP3    H248953   1.153   4.838   4.197  0.2422  1.4116  0.7220
 9180TIP3   OH248954   2.160   4.568   6.280 -0.0190  0.1966 -0.6824
 9180TIP3    H148955   2.115   4.505   6.336 -2.0775  1.4422 -0.8616
 9180TIP3    H248956   2.238   4.522   6.250  0.3868 -0.9879  2.0452
 9181TIP3   OH248957   3.135   4.235  15.604  0.5108 -0.8901  0.1661
 9181TIP3    H148958   3.112   4.260  15.693  0.6976 -0.7090  0.1639
 9181TIP3    H248959   3.199   4.301  15.576 -0.1656 -0.4632 -0.4001
 9182TIP3   OH248960   4.906   4.707   3.016  0.3461 -0.2394 -0.2893
 9182TIP3    H148961   4.952   4.780   3.059 -0.5767  0.1013  0.1248
 9182TIP3    H248962   4.931   4.630   3.067  0.2988 -0.0224  0.0661
 9183TIP3   OH248963   3.885   1.296  15.730 -0.5397 -0.4004 -0.0154
 9183TIP3    H148964   3.918   1.211  15.759 -1.3022 -0.7397 -0.1599
 9183TIP3    H248965   3.961   1.338  15.688  0.3205 -0.2971  1.5926
 9184TIP3   OH248966   5.614   0.443  14.704 -0.0544 -0.2384 -0.1348
 9184TIP3    H148967   5.570   0.469  14.785  0.4354 -0.0018  0.0510
 9184TIP3    H248968   5.693   0.497  14.701  0.4726 -1.0152 -0.2299
 9185TIP3   OH248969   5.754   5.438   2.616 -0.6224  0.0515 -0.0626
 9185TIP3    H148970   5.706   5.355   2.613 -1.8717  0.7330  0.7950
 9185TIP3    H248971   5.774   5.451   2.708 -0.6532  0.8451 -0.1644
 9186TIP3   OH248972   2.989   4.952   3.389  0.5323  0.0502  0.0825
 9186TIP3    H148973   2.982   5.025   3.327  0.5155  0.3147  0.3964
 9186TIP3    H248974   2.898   4.936   3.417  0.5482 -0.0267  0.0903
 9187TIP3   OH248975   0.701   1.447   3.897  0.0941  0.2808 -0.0296
 9187TIP3    H148976   0.769   1.457   3.830  1.0285 -0.8860  0.7336
 9187TIP3    H248977   0.729   1.371   3.948 -1.2682  0.4077  0.9119
 9188TIP3   OH248978   4.461   3.866  16.390 -0.1721 -0.0042  0.7821
 9188TIP3    H148979   4.496   3.780  16.368 -0.2575  0.3631 -0.8310
 9188TIP3    H248980   4.377   3.848  16.433  0.0304 -0.7338  0.8725
 9189TIP3   OH248981   1.356   6.390   4.592  1.3562  0.0469 -0.0442
 9189TIP3    H148982   1.420   6.354   4.653  1.3930 -1.1535 -0.7745
 9189TIP3    H248983   1.365   6.336   4.513  0.8712  1.1759 -0.8843
 9190TIP3   OH248984   1.435   6.773   2.187 -0.0960  0.1418 -0.0799
 9190TIP3    H148985   1.391   6.835   2.128  2.2400  1.2048 -0.7946
 9190TIP3    H248986   1.528   6.798   2.182  0.5960 -2.0141  1.3591
 9191TIP3   OH248987   5.477   1.524  14.589 -0.2766 -0.1892  0.3173
 9191TIP3    H148988   5.498   1.494  14.677  1.3201  0.9963  0.3752
 9191TIP3    H248989   5.546   1.487  14.534  0.2234  1.2021 -0.0147
 9192TIP3   OH248990   6.296   5.430   3.172 -0.1979  0.2184 -0.2477
 9192TIP3    H148991   6.221   5.449   3.228 -1.6908 -1.2991 -1.6458
 9192TIP3    H248992   6.261   5.437   3.083  1.9462  1.9324 -1.0006
 9193TIP3   OH248993   2.424   1.845  13.299 -0.4677 -0.0606 -0.1113
 9193TIP3    H148994   2.450   1.937  13.295  0.4552 -0.1627  2.9232
 9193TIP3    H248995   2.493   1.799  13.252  0.0352  0.5964 -0.0321
 9194TIP3   OH248996   1.620   6.001   2.822 -0.0844 -0.0810  0.8450
 9194TIP3    H148997   1.544   6.033   2.773 -0.0339  0.9696  1.4163
 9194TIP3    H248998   1.690   6.063   2.801  1.0337 -1.8328 -0.7655
 9195TIP3   OH248999   2.814   0.943   0.817  0.1628  0.5044  0.2411
 9195TIP3    H149000   2.730   0.973   0.782  1.5070  1.7382 -2.0567
 9195TIP3    H249001   2.809   0.848   0.814 -1.5892  0.5448  1.2369
 9196TIP3   OH249002   5.579   0.502   0.718 -0.0794 -0.2869 -0.6924
 9196TIP3    H149003   5.588   0.553   0.798  0.1609 -0.4331 -0.6268
 9196TIP3    H249004   5.637   0.544   0.655 -1.7146  1.0054 -1.3804
 9197TIP3   OH249005   1.807   2.768  11.600 -0.0810  0.1123  0.5016
 9197TIP3    H149006   1.831   2.833  11.666  0.4731 -0.4357  0.8424
 9197TIP3    H249007   1.869   2.696  11.613  0.2781  0.1542 -0.8627
 9198TIP3   OH249008   4.732   1.882  16.858  0.2305 -0.2478 -0.5521
 9198TIP3    H149009   4.691   1.830  16.789 -3.0768  0.2322  0.9088
 9198TIP3    H249010   4.680   1.862  16.936  1.8976  1.6206  1.0940
 9199TIP3   OH249011   2.709   5.815  15.351 -0.4362 -0.5765  0.2942
 9199TIP3    H149012   2.745   5.749  15.410  0.7662 -1.0339 -0.9088
 9199TIP3    H249013   2.615   5.800  15.352 -0.5797  0.2111  3.0075
 9200TIP3   OH249014   0.764   6.106   2.185 -0.3073 -0.2982  0.1773
 9200TIP3    H149015   0.716   6.028   2.214 -0.5455  0.5319  2.0542
 9200TIP3    H249016   0.856   6.080   2.191 -0.4015 -0.6133  0.2846
 9201TIP3   OH249017   4.437   2.549   1.957  0.0972 -0.4002  0.4284
 9201TIP3    H149018   4.492   2.609   2.007 -1.0211  0.1879  0.9686
 9201TIP3    H249019   4.450   2.464   1.999  1.2629 -0.4508 -0.0009
 9202TIP3   OH249020   2.492   0.629  12.673  0.3143 -0.4281 -0.0928
 9202TIP3    H149021   2.517   0.676  12.594  0.5538 -2.2363 -1.1262
 9202TIP3    H249022   2.528   0.680  12.745  0.9147  0.7238 -1.2037
 9203TIP3   OH249023   1.246   4.231   0.301  0.2614  0.0478 -0.1105
 9203TIP3    H149024   1.210   4.266   0.220 -1.2457  0.8976  0.9016
 9203TIP3    H249025   1.279   4.144   0.278  0.6200  0.6311 -1.8118
 9204TIP3   OH249026   3.859   0.616  12.164 -0.2253 -0.6092 -0.0472
 9204TIP3    H149027   3.928   0.666  12.208 -1.6274  1.5697 -0.2213
 9204TIP3    H249028   3.871   0.526  12.194  1.6363  0.0332  1.2254
 9205TIP3   OH249029   3.752   1.682  12.844 -0.3817 -0.2132 -0.0596
 9205TIP3    H149030   3.739   1.741  12.770  0.6025 -0.1829 -0.2075
 9205TIP3    H249031   3.730   1.735  12.921  1.4773  0.6689 -0.1161
 9206TIP3   OH249032   5.191   6.059   1.736  0.0548 -0.6529 -0.0063
 9206TIP3    H149033   5.121   6.010   1.693  0.8950 -0.0923 -2.0520
 9206TIP3    H249034   5.251   5.992   1.768  1.1341 -1.0346 -2.6715
 9207TIP3   OH249035   3.445   6.425   2.068 -0.3684 -0.5904  0.3700
 9207TIP3    H149036   3.489   6.485   2.128  0.0376 -0.1061 -0.4011
 9207TIP3    H249037   3.512   6.400   2.005 -0.7761 -1.1437  0.1509
 9208TIP3   OH249038   5.867   3.926   0.668  0.3484  0.1322  0.2003
 9208TIP3    H149039   5.905   3.884   0.590  0.3238  0.2185  0.1426
 9208TIP3    H249040   5.869   3.857   0.734  1.8901  0.5432  0.6081
 9209TIP3   OH249041   0.766   1.259  14.460 -0.6068  0.3281  0.1112
 9209TIP3    H149042   0.730   1.234  14.545  0.7060 -1.8707  0.0596
 9209TIP3    H249043   0.824   1.333  14.479  0.2984 -0.6530  1.2893
 9210TIP3   OH249044   4.524   2.319   2.137  0.2593 -0.4721  0.0014
 9210TIP3    H149045   4.561   2.344   2.222 -0.1839  0.8159 -0.1756
 9210TIP3    H249046   4.447   2.267   2.158  0.9471 -1.3567  0.3782
 9211TIP3   OH249047   3.153   0.147   3.579  0.0767 -0.3600  0.2607
 9211TIP3    H149048   3.173   0.144   3.486 -1.2397  0.9300 -0.0918
 9211TIP3    H249049   3.238   0.152   3.622  0.6468  4.1676 -1.1254
 9212TIP3   OH249050   2.805   6.047   4.000 -0.0806 -0.0986 -0.0431
 9212TIP3    H149051   2.751   6.125   3.989  1.2643  0.6528 -1.3947
 9212TIP3    H249052   2.801   6.003   3.915 -0.7018 -1.4316  0.6576
 9213TIP3   OH249053   1.145   4.955   3.768  0.5244 -0.0966 -0.3258
 9213TIP3    H149054   1.066   4.990   3.726  0.0341 -0.5109  0.2354
 9213TIP3    H249055   1.205   4.938   3.696  0.4009  0.9658 -0.6930
 9214TIP3   OH249056   0.425   5.348   3.941 -0.2678 -0.0782  0.4287
 9214TIP3    H149057   0.417   5.435   3.980  0.4678  1.6305 -3.0246
 9214TIP3    H249058   0.519   5.331   3.937 -0.3251 -0.2034 -0.5903
 9215TIP3   OH249059   4.342   2.345   3.352 -0.1496  0.1279 -0.1437
 9215TIP3    H149060   4.356   2.281   3.423 -0.4522  1.2389  0.9407
 9215TIP3    H249061   4.336   2.292   3.273  1.9056 -1.0206  0.4335
 9216TIP3   OH249062   5.697   4.161  13.129 -0.4358 -0.3391  1.1363
 9216TIP3    H149063   5.667   4.109  13.054  2.2955 -1.4350  0.7440
 9216TIP3    H249064   5.687   4.104  13.204 -3.1483  0.7526  1.6752
 9217TIP3   OH249065   3.164   1.365   4.933  0.1357  0.6576 -0.1519
 9217TIP3    H149066   3.090   1.360   4.993  1.2012  1.0718  1.2377
 9217TIP3    H249067   3.125   1.359   4.846 -1.5716  1.4107  0.5364
 9218TIP3   OH249068   2.802   1.473  14.373  0.6430 -0.2317 -0.7971
 9218TIP3    H149069   2.766   1.482  14.285  1.2191 -0.5047 -1.0692
 9218TIP3    H249070   2.733   1.429  14.423  0.3568 -0.1812 -1.1440
 9219TIP3   OH249071   5.873   6.053  16.223  0.0196 -0.4869  0.6915
 9219TIP3    H149072   5.968   6.064  16.218  0.2315  0.3574  4.5085
 9219TIP3    H249073   5.861   5.982  16.286 -1.8622  0.6540  1.6771
 9220TIP3   OH249074   4.418   4.654  11.931 -0.4511  0.3800  0.0146
 9220TIP3    H149075   4.431   4.747  11.952  1.2063  0.3491 -0.7606
 9220TIP3    H249076   4.387   4.655  11.840  0.5577  0.1404 -0.3381
 9221TIP3   OH249077   1.071   0.060   5.311 -0.6759 -0.3804  0.2385
 9221TIP3    H149078   1.007   0.013   5.364 -1.0953  1.9720  1.9250
 9221TIP3    H249079   1.150   0.062   5.364 -0.5613  0.4941  0.0434
 9222TIP3   OH249080   2.692   2.568  15.988  0.0827  0.5062  0.3071
 9222TIP3    H149081   2.621   2.630  15.970 -0.7349 -0.5507 -0.0862
 9222TIP3    H249082   2.749   2.573  15.912 -0.6719 -0.1885 -0.3023
 9223TIP3   OH249083   3.757   6.039   0.338 -0.2011 -0.3841 -0.0277
 9223TIP3    H149084   3.742   6.122   0.382  0.8847  0.1222 -0.5999
 9223TIP3    H249085   3.761   6.061   0.245  3.6551 -0.5068  0.0254
 9224TIP3   OH249086   4.638   0.046   4.807 -0.0887  0.2742  0.3015
 9224TIP3    H149087   4.710  -0.000   4.765  0.1840 -0.9630  2.0585
 9224TIP3    H249088   4.559   0.010   4.766  0.1969 -0.2736  0.2299
 9225TIP3   OH249089   1.251   3.987  12.595 -0.0335  0.2891 -0.6469
 9225TIP3    H149090   1.269   3.908  12.544  2.3050 -0.2067  0.8524
 9225TIP3    H249091   1.320   4.048  12.569  0.5533  0.4043  1.1298
 9226TIP3   OH249092   1.264   3.753   3.566 -0.4861 -0.0862 -0.1718
 9226TIP3    H149093   1.291   3.767   3.476  0.0082 -0.3291 -0.0669
 9226TIP3    H249094   1.341   3.777   3.618  0.1769 -2.4687  0.0432
 9227TIP3   OH249095   0.609   5.125   3.455 -0.3169  0.6252  0.5795
 9227TIP3    H149096   0.616   5.220   3.456 -0.1657  0.6121  0.8834
 9227TIP3    H249097   0.617   5.100   3.547  0.7752  0.2405  0.3914
 9228TIP3   OH249098   5.024   6.050   0.473 -0.6551 -0.0449  0.1969
 9228TIP3    H149099   4.957   5.988   0.445 -1.5618  1.0485 -0.1051
 9228TIP3    H249100   4.987   6.091   0.552  0.0572 -0.0994  0.5618
 9229TIP3   OH249101   5.455   4.011   2.589  0.3210 -0.2620  0.3601
 9229TIP3    H149102   5.520   3.974   2.649  0.5832  0.1821  0.3523
 9229TIP3    H249103   5.385   4.041   2.646  1.4232  1.9012  0.6164
 9230TIP3   OH249104   1.440   5.236  11.313 -0.0216 -0.4026  0.1413
 9230TIP3    H149105   1.345   5.242  11.305 -0.0780 -1.1749  0.1970
 9230TIP3    H249106   1.464   5.156  11.267  0.7318  0.3743 -0.8495
 9231TIP3   OH249107   0.867   1.009   5.818  0.0351  0.2337  0.2586
 9231TIP3    H149108   0.827   0.951   5.753 -0.5345  2.5422 -1.5096
 9231TIP3    H249109   0.940   1.050   5.772  0.6030  0.7417  1.5821
 9232TIP3   OH249110   5.815   5.813  12.707 -0.1536 -0.3551 -0.5270
 9232TIP3    H149111   5.884   5.753  12.737  3.2032  3.1397 -0.8725
 9232TIP3    H249112   5.843   5.839  12.619 -0.7478  2.7252  0.1462
 9233TIP3   OH249113   4.711   2.629   5.076 -0.2851 -0.0020 -0.2189
 9233TIP3    H149114   4.781   2.574   5.043  0.5155  2.1113 -2.0993
 9233TIP3    H249115   4.755   2.696   5.128 -1.0890  0.0648  0.3871
 9234TIP3   OH249116   6.686   6.466  12.970 -0.2597  0.4663 -0.8293
 9234TIP3    H149117   6.664   6.557  12.988 -2.1059 -0.2581  0.7972
 9234TIP3    H249118   6.755   6.470  12.903 -0.8059  3.0082 -1.2743
 9235TIP3   OH249119   5.915   6.154   6.391 -0.1802 -0.4025  0.1262
 9235TIP3    H149120   5.933   6.247   6.398  0.4410 -0.6288  1.6820
 9235TIP3    H249121   5.999   6.112   6.406 -0.8684 -1.2893  1.5736
 9236TIP3   OH249122   6.192   4.638  16.429  0.1976  0.0657  0.2951
 9236TIP3    H149123   6.218   4.558  16.384 -0.4514  0.1344 -0.2080
 9236TIP3    H249124   6.195   4.615  16.522 -0.8125 -0.8149  0.1327
 9237TIP3   OH249125   6.493   3.908   5.206 -0.1256 -0.3791 -0.1702
 9237TIP3    H149126   6.535   3.847   5.266 -0.0546 -0.3464 -0.1861
 9237TIP3    H249127   6.447   3.852   5.143  0.6718 -0.4417 -0.7137
 9238TIP3   OH249128   2.706   1.717   3.822  0.4488  0.1380  0.1846
 9238TIP3    H149129   2.744   1.629   3.812  1.4367  0.8536 -2.6710
 9238TIP3    H249130   2.612   1.704   3.807  0.6220 -0.3826 -0.4576
 9239TIP3   OH249131   2.628   6.100   5.932  0.4240 -0.2683 -0.1559
 9239TIP3    H149132   2.720   6.073   5.930 -0.0426 -1.7894 -3.2452
 9239TIP3    H249133   2.622   6.172   5.869 -0.7831 -1.1359 -1.0455
 9240TIP3   OH249134   3.257   2.443  12.373 -0.0792  0.1842  0.0168
 9240TIP3    H149135   3.234   2.494  12.295  0.0817  0.6551  0.2799
 9240TIP3    H249136   3.240   2.502  12.446  1.4706  0.3705  0.2474
 9241TIP3   OH249137   1.869   2.260  14.327  0.3225  0.8143  0.0407
 9241TIP3    H149138   1.900   2.332  14.273 -1.8327  0.1587 -2.1620
 9241TIP3    H249139   1.773   2.265  14.322  0.1161 -1.7630  0.3838
 9242TIP3   OH249140   3.056   5.288  15.028 -0.7675 -0.0283 -0.3150
 9242TIP3    H149141   3.104   5.363  14.992 -0.8072  0.2719  0.2569
 9242TIP3    H249142   2.967   5.299  14.997 -0.6301 -0.1817 -0.7608
 9243TIP3   OH249143   0.282   4.993  15.598 -0.4457  0.1212  0.0797
 9243TIP3    H149144   0.356   5.004  15.657 -0.7070  1.1491  0.2158
 9243TIP3    H249145   0.319   4.951  15.520  0.5046  1.6214 -0.2989
 9244TIP3   OH249146   3.783   1.117  13.234  0.2139 -0.6142  0.7195
 9244TIP3    H149147   3.802   1.032  13.274 -0.2437 -0.8916  0.3462
 9244TIP3    H249148   3.779   1.178  13.307 -2.0989 -1.3678  1.2479
 9245TIP3   OH249149   0.062   2.586   5.023  0.8988 -0.6444 -0.1326
 9245TIP3    H149150   0.152   2.575   5.055  1.3142 -0.9968 -1.3709
 9245TIP3    H249151   0.039   2.500   4.987  0.1352 -0.4970  0.0028
 9246TIP3   OH249152   0.705   0.683   3.077  0.2468  0.2008  0.0236
 9246TIP3    H149153   0.635   0.662   3.015  0.7056  0.5535 -0.6196
 9246TIP3    H249154   0.746   0.761   3.041  0.4973  0.4302  0.7951
 9247TIP3   OH249155   1.034   3.037  11.488 -0.3579  0.2473  0.0757
 9247TIP3    H149156   1.073   3.061  11.572 -1.3722 -0.4719  0.7635
 9247TIP3    H249157   0.992   3.117  11.457 -0.7296  0.2877  0.6783
 9248TIP3   OH249158   6.597   6.279   6.592 -0.1446 -0.0253  0.1546
 9248TIP3    H149159   6.552   6.318   6.667 -0.8209  0.1872 -0.3576
 9248TIP3    H249160   6.584   6.341   6.521  0.7733 -0.0730 -0.0616
 9249TIP3   OH249161   3.057   6.427  14.853  0.3384  0.1448  0.4536
 9249TIP3    H149162   3.105   6.393  14.778  0.2408 -0.8287  0.8234
 9249TIP3    H249163   3.125   6.460  14.912  0.3871  1.3699 -0.2733
 9250TIP3   OH249164   4.258   3.796  10.502  0.3720  0.6629 -0.3663
 9250TIP3    H149165   4.317   3.745  10.445  0.6738 -0.7934  1.2059
 9250TIP3    H249166   4.190   3.733  10.527 -0.6477  1.7407 -0.4027
 9251TIP3   OH249167   4.007   2.077   2.269 -0.2646 -0.2420  0.0137
 9251TIP3    H149168   4.059   2.067   2.349 -2.1147  0.1572  1.2912
 9251TIP3    H249169   3.991   2.171   2.262 -3.4102 -0.6068  1.3783
 9252TIP3   OH249170   5.569   3.335  13.026  0.3090 -0.3821 -0.7034
 9252TIP3    H149171   5.488   3.367  12.987 -0.4951 -0.3183  0.9765
 9252TIP3    H249172   5.549   3.245  13.052 -0.2496  0.5782  2.4712
 9253TIP3   OH249173   4.999   6.405   1.480 -0.2391  0.0020 -0.1079
 9253TIP3    H149174   5.067   6.339   1.492 -0.2489  0.2996  1.7006
 9253TIP3    H249175   5.026   6.454   1.402  1.6559  0.1848  0.6558
 9254TIP3   OH249176   5.205   5.406   0.800 -0.6691 -0.1471  0.2329
 9254TIP3    H149177   5.202   5.446   0.713 -2.3976  1.7508  1.1274
 9254TIP3    H249178   5.280   5.446   0.843 -0.5844 -0.1221  0.0626
 9255TIP3   OH249179   0.035   3.491   3.313 -0.5575  0.0593 -0.2619
 9255TIP3    H149180  -0.059   3.476   3.325 -0.0846 -1.1275  2.2299
 9255TIP3    H249181   0.076   3.409   3.340  1.2960  1.1354  0.2662
 9256TIP3   OH249182   0.740   0.199   1.102 -0.2276  0.1176 -0.3041
 9256TIP3    H149183   0.818   0.174   1.152  0.5657 -0.1745 -1.6808
 9256TIP3    H249184   0.668   0.156   1.148  0.3040  1.0531  1.4591
 9257TIP3   OH249185   4.380   5.719  13.567  0.2325  0.0899  0.4942
 9257TIP3    H149186   4.285   5.723  13.565  0.1521 -1.1253  1.5123
 9257TIP3    H249187   4.404   5.683  13.481 -0.1489  1.5500 -0.2324
 9258TIP3   OH249188   0.887   6.554   2.819 -0.1244 -0.0364  0.1210
 9258TIP3    H149189   0.965   6.559   2.874 -0.4666  1.3372  0.4915
 9258TIP3    H249190   0.843   6.638   2.831 -0.3336  0.1888 -2.0965
 9259TIP3   OH249191   3.955   2.107  14.041  0.2536 -0.3071 -0.5187
 9259TIP3    H149192   3.953   2.019  14.004  0.3985 -0.0026 -1.2568
 9259TIP3    H249193   3.863   2.128  14.058  0.0011  0.3362 -2.5916
 9260TIP3   OH249194   1.138   3.565   5.201  0.0490 -0.2012 -0.0693
 9260TIP3    H149195   1.125   3.612   5.119  1.0210  1.1675  0.5426
 9260TIP3    H249196   1.217   3.514   5.187  1.9105  2.2818  0.9664
 9261TIP3   OH249197   2.572   0.106   0.631  0.9405 -0.2296 -0.4807
 9261TIP3    H149198   2.621   0.145   0.704  0.5333 -1.0005  0.2167
 9261TIP3    H249199   2.505   0.172   0.609  0.5117 -0.3606  0.4198
 9262TIP3   OH249200   3.268   6.023   4.368  0.4388 -0.5972 -0.3981
 9262TIP3    H149201   3.173   6.028   4.380  0.6673  0.5165  1.1175
 9262TIP3    H249202   3.284   6.063   4.283 -0.2258  1.6047  0.4792
 9263TIP3   OH249203   5.893   1.878  12.218 -0.1152 -0.3413  0.5227
 9263TIP3    H149204   5.917   1.785  12.219 -0.6629 -0.4790  2.5894
 9263TIP3    H249205   5.798   1.879  12.231 -0.2967  0.4744 -0.7639
 9264TIP3   OH249206   1.996   1.221  14.143  0.0179  0.5397 -0.7504
 9264TIP3    H149207   1.975   1.298  14.090 -0.0925  0.2257 -1.1700
 9264TIP3    H249208   2.085   1.197  14.116  0.2202  0.7780 -0.3028
 9265TIP3   OH249209   0.398   5.756  11.006  0.6634  0.3034  0.1045
 9265TIP3    H149210   0.443   5.841  11.012 -0.7307  0.9588  1.8673
 9265TIP3    H249211   0.310   5.779  10.978  0.8384 -0.7731 -1.3302
 9266TIP3   OH249212   0.498   4.704   0.077  0.4252 -0.1523 -0.8613
 9266TIP3    H149213   0.559   4.776   0.062  1.9937 -0.9117  1.6525
 9266TIP3    H249214   0.540   4.627   0.039  1.3671 -0.8068  1.4777
 9267TIP3   OH249215   1.385   2.339  13.061  0.0940 -0.4769 -0.1899
 9267TIP3    H149216   1.413   2.345  13.152 -0.4287 -0.6994 -0.0111
 9267TIP3    H249217   1.446   2.277  13.021  1.4954  1.0492 -0.4635
 9268TIP3   OH249218   3.742   4.632   2.678 -0.0797 -0.2460  0.1407
 9268TIP3    H149219   3.720   4.561   2.738  0.4301 -1.1473 -0.7180
 9268TIP3    H249220   3.719   4.712   2.725 -0.1582 -0.9616  1.3282
 9269TIP3   OH249221   4.993   1.626   2.548  0.0248 -0.5864 -0.0150
 9269TIP3    H149222   4.949   1.549   2.512 -0.1050 -0.1096 -0.9060
 9269TIP3    H249223   5.071   1.592   2.592 -0.9461 -1.3910  1.1248
 9270TIP3   OH249224   5.387   1.453   4.956 -0.6366 -0.1358 -0.5747
 9270TIP3    H149225   5.392   1.516   5.027 -2.4017 -1.7781  1.0715
 9270TIP3    H249226   5.477   1.427   4.940  0.2328  3.3700 -1.8827
 9271TIP3   OH249227   1.583   5.275   2.374 -0.1832  0.3233  0.0756
 9271TIP3    H149228   1.618   5.364   2.378 -2.7450  1.4283 -1.0498
 9271TIP3    H249229   1.528   5.267   2.451 -0.4539 -0.0805 -0.1592
 9272TIP3   OH249230   1.793   1.471  13.633  0.6310 -0.2876  0.6760
 9272TIP3    H149231   1.866   1.459  13.573  0.8095 -1.8703  1.1786
 9272TIP3    H249232   1.759   1.383  13.648 -0.9072  0.3425  1.0454
 9273TIP3   OH249233   0.658   2.080  12.751  0.7327  0.2233 -0.8941
 9273TIP3    H149234   0.650   2.119  12.838 -2.0416  1.0574 -1.5051
 9273TIP3    H249235   0.750   2.093  12.728  1.3337  0.6442  1.5886
 9274TIP3   OH249236   4.767   4.995  13.276  0.5786  0.2091  0.3707
 9274TIP3    H149237   4.688   5.048  13.270  1.5024  1.7068  1.1708
 9274TIP3    H249238   4.807   5.001  13.190  1.2002  1.6585  0.7475
 9275TIP3   OH249239   5.053   0.309  14.362 -0.0135  0.5741 -0.0685
 9275TIP3    H149240   4.965   0.325  14.329 -1.0503  1.3657  2.8917
 9275TIP3    H249241   5.053   0.218  14.389  0.0687  0.5739 -0.0706
 9276TIP3   OH249242   5.836   1.457   4.211  0.2239 -0.0068  0.4909
 9276TIP3    H149243   5.847   1.453   4.306  0.1254 -2.7454  0.4289
 9276TIP3    H249244   5.925   1.450   4.176  0.4011  2.5312  0.3880
 9277TIP3   OH249245   5.132   6.153   0.239  0.9789 -0.1265  0.5573
 9277TIP3    H149246   5.189   6.076   0.233  0.6091 -0.5175  1.8953
 9277TIP3    H249247   5.094   6.148   0.327  0.9056  1.5500  0.6458
 9278TIP3   OH249248   6.543   0.674   4.414 -0.3675  0.0650 -0.8331
 9278TIP3    H149249   6.613   0.649   4.353  1.4027 -1.1874  1.6248
 9278TIP3    H249250   6.476   0.607   4.402  1.8951 -2.8269  1.6572
 9279TIP3   OH249251   3.720   4.830   3.383  0.1045  0.2092 -0.0891
 9279TIP3    H149252   3.658   4.835   3.455  1.8455 -1.0803  1.5505
 9279TIP3    H249253   3.779   4.905   3.397  0.8504 -0.4311  0.2283
 9280TIP3   OH249254   3.133   4.521  16.025 -0.4603  0.3554 -0.1496
 9280TIP3    H149255   3.184   4.503  16.104  0.6975  1.0662 -0.7165
 9280TIP3    H249256   3.056   4.569  16.056  1.0310  2.5093  0.3343
 9281TIP3   OH249257   5.073   6.664   2.638 -0.2003 -0.3144 -0.1219
 9281TIP3    H149258   5.022   6.691   2.715  0.6136 -1.1015  0.7112
 9281TIP3    H249259   5.161   6.696   2.657  0.3413 -1.8276 -0.0242
 9282TIP3   OH249260   5.196   5.155   2.047 -0.0477 -0.2323 -0.2946
 9282TIP3    H149261   5.213   5.146   2.141  3.3060 -0.0950 -0.8314
 9282TIP3    H249262   5.220   5.246   2.027 -2.3799  0.2673 -1.0191
 9283TIP3   OH249263   5.533   5.637  12.965 -0.0092 -0.4549  0.3206
 9283TIP3    H149264   5.441   5.611  12.964 -0.2281  0.3277  0.3296
 9283TIP3    H249265   5.567   5.606  12.881 -0.3328 -0.5563  0.2270
 9284TIP3   OH249266   2.313   2.633   2.554  0.0097  0.8586  0.1304
 9284TIP3    H149267   2.321   2.537   2.555 -1.0452  0.7716  1.0264
 9284TIP3    H249268   2.219   2.649   2.544  0.1041  1.7965  0.7004
 9285TIP3   OH249269   5.417   1.328   6.083  0.2482  0.3750  0.3747
 9285TIP3    H149270   5.402   1.239   6.049 -1.8811  0.7700  0.2174
 9285TIP3    H249271   5.410   1.318   6.178 -2.0409  0.7024  0.2689
 9286TIP3   OH249272   1.040   2.250   5.188 -0.5564  0.5154  0.0398
 9286TIP3    H149273   1.020   2.330   5.236  1.2267  1.9221 -1.4897
 9286TIP3    H249274   0.982   2.253   5.112 -0.6904  0.2168  0.1316
 9287TIP3   OH249275   3.582   3.805   4.123  0.2479 -0.5135 -0.3217
 9287TIP3    H149276   3.576   3.768   4.035 -2.5521  0.0139 -0.3871
 9287TIP3    H249277   3.492   3.826   4.146  0.8844 -1.1638  2.9178
 9288TIP3   OH249278   0.791   2.131  13.146  0.0802 -0.0629  0.1393
 9288TIP3    H149279   0.822   2.209  13.192  0.7289 -0.2554  0.0324
 9288TIP3    H249280   0.838   2.132  13.062  0.5220 -0.8640  0.3686
 9289TIP3   OH249281   1.492   3.487   5.838  0.6918 -1.0282 -0.3185
 9289TIP3    H149282   1.485   3.422   5.907  0.2200 -0.2387  0.3868
 9289TIP3    H249283   1.460   3.568   5.877  1.2807 -0.3603 -1.1732
 9290TIP3   OH249284   3.491   0.062  13.731  0.2142  0.3127  0.3074
 9290TIP3    H149285   3.507   0.092  13.820  0.8575 -0.8276  0.5889
 9290TIP3    H249286   3.499   0.141  13.677 -0.8318  1.1148  1.3286
 9291TIP3   OH249287   1.948   6.781   0.702  0.5912  0.2177 -0.6313
 9291TIP3    H149288   1.907   6.820   0.625  2.6622  1.7288 -1.0144
 9291TIP3    H249289   2.000   6.708   0.668  0.5056  0.0917 -0.4968
 9292TIP3   OH249290   1.639   0.507   1.733  0.0713 -0.3730  0.5417
 9292TIP3    H149291   1.701   0.510   1.806  1.1435 -2.8774 -0.2138
 9292TIP3    H249292   1.691   0.526   1.656 -0.0492 -2.4212 -0.0892
 9293TIP3   OH249293   1.696   5.512  14.408  0.3395  0.5671  0.3803
 9293TIP3    H149294   1.640   5.589  14.417  1.9692  1.6655  1.4531
 9293TIP3    H249295   1.642   5.448  14.361 -0.4537  2.9681 -2.1506
 9294TIP3   OH249296   1.649   4.850   1.813  0.5954 -0.3876 -0.2364
 9294TIP3    H149297   1.714   4.780   1.814 -1.2944 -2.1699  0.2111
 9294TIP3    H249298   1.671   4.904   1.889  1.7598 -0.7445 -0.2996
 9295TIP3   OH249299   4.733   5.856  11.370 -0.4007 -0.0463  0.3246
 9295TIP3    H149300   4.642   5.882  11.384 -0.6555 -0.2519 -0.9063
 9295TIP3    H249301   4.741   5.846  11.275  1.5732  2.3434  0.2045
 9296TIP3   OH249302   1.928   0.403   1.437  0.4583 -0.7525  0.0052
 9296TIP3    H149303   1.961   0.488   1.468 -1.6752 -0.0172  0.3097
 9296TIP3    H249304   1.881   0.366   1.511 -0.1402 -1.3960 -0.6837
 9297TIP3   OH249305   0.493   0.130   3.046  0.6554 -0.1772 -0.2429
 9297TIP3    H149306   0.402   0.153   3.026  0.1184 -1.0606  1.1180
 9297TIP3    H249307   0.504   0.042   3.010  1.1128  0.1048 -0.8006
 9298TIP3   OH249308   0.236   0.576   5.339  0.1253 -0.0408  0.8840
 9298TIP3    H149309   0.311   0.597   5.284 -0.0884 -2.2382 -0.2986
 9298TIP3    H249310   0.196   0.661   5.358  1.5390  0.9464 -0.4331
 9299TIP3   OH249311   5.082   0.599  15.853  0.6942 -0.1338  0.5379
 9299TIP3    H149312   5.166   0.644  15.849  0.2494  0.5546 -1.3749
 9299TIP3    H249313   5.096   0.516  15.809  0.2736  0.1576 -0.1560
 9300TIP3   OH249314   0.724   5.117  16.442  0.4016  0.4633  0.0960
 9300TIP3    H149315   0.643   5.069  16.424  0.7447 -0.6022  1.2402
 9300TIP3    H249316   0.771   5.118  16.359  1.2775 -2.9665  0.4632
 9301TIP3   OH249317   5.659   6.398   2.867  0.2343 -0.1472  0.1284
 9301TIP3    H149318   5.647   6.461   2.938  1.1420 -2.2300  2.2195
 9301TIP3    H249319   5.574   6.393   2.824 -0.8781 -0.1366  2.2246
 9302TIP3   OH249320   4.462   2.314  13.115  0.2740  0.2168  0.1793
 9302TIP3    H149321   4.401   2.240  13.104 -2.0158  2.1808 -0.8166
 9302TIP3    H249322   4.507   2.320  13.031  1.7229 -1.0940  0.8383
 9303TIP3   OH249323   4.466   6.654   6.062 -0.2713  0.6406 -0.0773
 9303TIP3    H149324   4.528   6.703   6.117 -0.7411  0.5541  0.5477
 9303TIP3    H249325   4.387   6.708   6.063 -1.2216 -0.7024  1.6451
 9304TIP3   OH249326   3.475   1.450   4.535 -0.0721 -0.4839 -0.0344
 9304TIP3    H149327   3.513   1.519   4.481 -0.3308 -0.3398 -0.0339
 9304TIP3    H249328   3.531   1.373   4.520 -0.8574 -0.7983 -1.4551
 9305TIP3   OH249329   1.961   1.795  14.701 -0.2423 -0.3897  0.0474
 9305TIP3    H149330   1.988   1.828  14.787  3.2434  0.3561 -1.2378
 9305TIP3    H249331   2.036   1.745  14.669 -2.1194 -2.0960 -1.8613
 9306TIP3   OH249332   2.974   1.999  11.441 -0.1617  0.0962  0.2396
 9306TIP3    H149333   2.918   1.965  11.512  0.4825 -1.2352  0.1284
 9306TIP3    H249334   2.969   2.094  11.450 -2.2169  0.0062  0.4207
 9307TIP3   OH249335   0.044   1.852   2.427  0.3241 -0.4230 -0.2735
 9307TIP3    H149336   0.088   1.829   2.509 -0.7508 -3.7968 -0.5443
 9307TIP3    H249337  -0.013   1.925   2.450 -0.1467 -1.4829  2.0657
 9308TIP3   OH249338   1.458   0.988   0.177 -0.4516  0.0636  0.7363
 9308TIP3    H149339   1.525   0.923   0.200  0.2557  0.4667 -0.1625
 9308TIP3    H249340   1.376   0.939   0.179 -0.2077 -0.3004  2.4149
 9309TIP3   OH249341   2.612   3.329   1.965 -0.6651  0.2892 -0.0612
 9309TIP3    H149342   2.659   3.269   2.023 -1.1544  0.0788  0.1148
 9309TIP3    H249343   2.527   3.342   2.007 -0.5157  1.2013 -0.0352
 9310TIP3   OH249344   4.533   6.272  14.579 -0.2855  0.2906  0.6422
 9310TIP3    H149345   4.455   6.301  14.626 -0.1737 -0.7813  1.5174
 9310TIP3    H249346   4.499   6.226  14.502 -0.5266 -0.2276  1.0554
 9311TIP3   OH249347   5.419   5.956  12.365 -0.4396  0.2920  0.4434
 9311TIP3    H149348   5.469   5.895  12.419  2.3369  1.2607 -0.9422
 9311TIP3    H249349   5.449   6.043  12.392 -1.4313  0.8940 -0.3483
 9312TIP3   OH249350   3.301   6.083   2.117 -0.1198 -0.5333  0.3129
 9312TIP3    H149351   3.378   6.025   2.119  0.4380  0.1567 -0.6056
 9312TIP3    H249352   3.327   6.159   2.169  0.0768 -0.0002 -0.5508
 9313TIP3   OH249353   4.847   4.507  11.729 -0.1134  0.5284  0.0494
 9313TIP3    H149354   4.789   4.472  11.797  1.2637 -1.2839  0.3059
 9313TIP3    H249355   4.865   4.597  11.757 -0.3046  0.1003  1.5964
 9314TIP3   OH249356   4.661   5.295   4.029 -0.1660  0.4253  0.0939
 9314TIP3    H149357   4.586   5.331   4.076 -1.0066 -0.7156 -0.3697
 9314TIP3    H249358   4.734   5.303   4.091 -1.0990 -0.3402  1.3210
 9315TIP3   OH249359   5.337   5.471  14.092  0.0872  0.3559  0.1497
 9315TIP3    H149360   5.396   5.545  14.109  0.1744 -0.2103  2.5711
 9315TIP3    H249361   5.251   5.502  14.122 -0.1223 -0.0951  0.0062
 9316TIP3   OH249362   3.707   2.670  12.173  0.0341  0.4974  0.4435
 9316TIP3    H149363   3.640   2.639  12.112 -0.5158  0.0551  1.2756
 9316TIP3    H249364   3.787   2.670  12.121 -0.2287 -0.9061  0.0204
 9317TIP3   OH249365   4.122   5.350   4.970  0.9450 -0.2321 -0.4390
 9317TIP3    H149366   4.211   5.359   4.938  0.7226  2.9023 -0.2745
 9317TIP3    H249367   4.079   5.433   4.948 -1.2668 -0.7950  1.5110
 9318TIP3   OH249368   4.790   3.572  11.863 -0.4592 -0.3067 -0.7041
 9318TIP3    H149369   4.836   3.542  11.941  0.9119  0.6240 -1.1476
 9318TIP3    H249370   4.750   3.492  11.827 -0.0955 -0.9321  0.2767
 9319TIP3   OH249371   2.983   0.475   3.825  0.5155  0.3123 -0.4557
 9319TIP3    H149372   3.010   0.567   3.830 -0.6092  0.7917 -2.7826
 9319TIP3    H249373   3.061   0.426   3.850  0.7179  1.8969  2.2698
 9320TIP3   OH249374   0.212   5.360  13.054  0.2154 -0.4108  0.1997
 9320TIP3    H149375   0.295   5.391  13.018 -0.4617  0.3647 -0.7254
 9320TIP3    H249376   0.160   5.439  13.066 -1.6910 -1.1708 -2.5367
 9321TIP3   OH249377   1.619   5.273  14.790 -1.2555 -0.0806  0.3611
 9321TIP3    H149378   1.554   5.275  14.860 -1.4486  0.8939  0.1600
 9321TIP3    H249379   1.572   5.301  14.711 -0.5547  0.8572  0.2590
 9322TIP3   OH249380   4.811   2.835   4.151  0.2749 -0.1894  0.4525
 9322TIP3    H149381   4.901   2.862   4.135  0.0717  0.4164  0.3210
 9322TIP3    H249382   4.818   2.756   4.204  0.8435  0.8388  1.9231
 9323TIP3   OH249383   1.713   0.121   5.485 -0.0284 -0.9726 -0.1268
 9323TIP3    H149384   1.761   0.133   5.403 -0.0115  2.5015  0.3286
 9323TIP3    H249385   1.778   0.134   5.553 -0.5710 -1.3173  0.4626
 9324TIP3   OH249386   1.427   4.764   6.136 -0.0423  0.6952  0.5808
 9324TIP3    H149387   1.494   4.776   6.204  0.5634 -1.6032  0.4392
 9324TIP3    H249388   1.346   4.749   6.185  0.8002 -3.2541  0.9169
 9325TIP3   OH249389   6.020   6.394   4.324 -0.1449 -0.0572 -0.1892
 9325TIP3    H149390   5.978   6.475   4.352  1.6653  1.2179 -1.0547
 9325TIP3    H249391   5.948   6.333   4.312 -1.5376  1.3936  0.5821
 9326TIP3   OH249392   5.960   4.386  16.172  0.0252  0.5168  0.4860
 9326TIP3    H149393   5.967   4.480  16.187  0.6007  0.7407 -1.0352
 9326TIP3    H249394   5.888   4.377  16.109  0.1213 -0.0444  0.4487
 9327TIP3   OH249395   1.614   4.645  14.687  0.3832 -0.1005 -0.0756
 9327TIP3    H149396   1.520   4.640  14.672  0.0334  2.1439  1.0976
 9327TIP3    H249397   1.649   4.685  14.607  0.2306 -0.1060 -0.1447
 9328TIP3   OH249398   1.433   3.254   0.349  0.3401  0.5101 -0.3901
 9328TIP3    H149399   1.414   3.346   0.365 -2.2202  0.0834 -0.8817
 9328TIP3    H249400   1.414   3.210   0.432  2.4343  0.5015  0.1323
 9329TIP3   OH249401   1.588   6.049  14.203 -0.1297 -0.2777 -0.1635
 9329TIP3    H149402   1.603   6.034  14.297 -0.7786  1.8828  0.3042
 9329TIP3    H249403   1.493   6.057  14.195  0.0031  0.7223 -0.8102
 9330TIP3   OH249404   1.032   1.480   4.903  0.0096  0.4031 -0.4808
 9330TIP3    H149405   0.940   1.481   4.875  0.2302 -0.9153 -1.2785
 9330TIP3    H249406   1.082   1.473   4.822  0.7418 -0.7852  0.0526
 9331TIP3   OH249407   5.234   6.227   4.426  0.3109 -0.2277 -0.1502
 9331TIP3    H149408   5.205   6.136   4.424 -1.7022  0.3560  0.6447
 9331TIP3    H249409   5.254   6.248   4.335  0.6308 -1.4118 -0.3641
 9332TIP3   OH249410   2.904   0.660  11.443 -0.0604 -0.1037  0.0890
 9332TIP3    H149411   2.974   0.646  11.507 -0.5784 -0.7568  0.5189
 9332TIP3    H249412   2.897   0.577  11.397 -0.0708  0.1912 -0.4362
 9333TIP3   OH249413   3.074   5.183  12.214 -0.6197  0.4983 -0.7640
 9333TIP3    H149414   3.157   5.198  12.258 -0.3059 -4.1408  0.5238
 9333TIP3    H249415   3.008   5.197  12.282 -0.6417  0.8453 -0.8583
 9334TIP3   OH249416   5.312   3.751   1.470 -0.4535 -0.0982 -0.6923
 9334TIP3    H149417   5.256   3.773   1.544  0.7877  0.0104  0.2463
 9334TIP3    H249418   5.374   3.687   1.506 -0.3057 -0.6009 -1.8363
 9335TIP3   OH249419   1.959   5.019   4.270 -0.6533  0.0340  0.4502
 9335TIP3    H149420   1.949   4.976   4.355  0.1548  1.7167  1.4228
 9335TIP3    H249421   2.044   4.990   4.238  0.0028  1.0520  1.2202
 9336TIP3   OH249422   0.489   6.625  15.784  0.0138  0.6757 -0.2589
 9336TIP3    H149423   0.533   6.703  15.751  0.1756 -0.1886 -2.1405
 9336TIP3    H249424   0.554   6.555  15.774 -0.4755  0.1032  0.4843
 9337TIP3   OH249425   2.863   2.884   5.767  0.1963  0.7166  0.3414
 9337TIP3    H149426   2.949   2.863   5.733  0.1533  0.8566  0.1464
 9337TIP3    H249427   2.876   2.962   5.820 -0.0957  1.6943 -1.0034
 9338TIP3   OH249428   2.911   4.811   1.159  0.4750 -0.2054 -0.2216
 9338TIP3    H149429   2.818   4.795   1.176  0.7925 -1.9643 -0.0511
 9338TIP3    H249430   2.917   4.820   1.064 -0.2980  2.9427 -0.0265
 9339TIP3   OH249431   4.224   5.155  15.239 -0.1727 -0.2707  0.1217
 9339TIP3    H149432   4.203   5.073  15.283  0.1875  0.6154  1.9692
 9339TIP3    H249433   4.158   5.217  15.269  0.3832  0.4769 -0.1692
 9340TIP3   OH249434   4.907   6.459   4.917 -0.5188  0.1921 -0.3676
 9340TIP3    H149435   4.913   6.366   4.936  1.2730  0.4119  0.1629
 9340TIP3    H249436   4.918   6.465   4.822 -0.4628 -0.1228 -0.3806
 9341TIP3   OH249437   5.914   5.376  11.838  0.0294 -0.1720 -0.3996
 9341TIP3    H149438   5.945   5.411  11.922 -0.3675 -0.1816 -0.2457
 9341TIP3    H249439   5.993   5.349  11.792  0.1056 -2.6473  1.0784
 9342TIP3   OH249440   2.618   2.233  10.539 -0.1604 -0.2838 -0.2897
 9342TIP3    H149441   2.568   2.187  10.606 -0.1260 -0.8516 -0.6586
 9342TIP3    H249442   2.553   2.266  10.478 -0.4133  2.2923  1.2622
 9343TIP3   OH249443   0.129   6.073  16.563  0.0589 -0.4594  0.5620
 9343TIP3    H149444   0.045   6.049  16.522 -0.6510 -0.6196  2.0768
 9343TIP3    H249445   0.152   5.997  16.616  1.2982 -0.5054 -0.0357
 9344TIP3   OH249446   1.296   2.579  12.576 -0.1040 -0.4142 -0.1484
 9344TIP3    H149447   1.319   2.542  12.662  0.4845 -0.6059 -0.3811
 9344TIP3    H249448   1.204   2.601  12.583 -0.9211 -3.4679 -0.5262
 9345TIP3   OH249449   6.449   3.937  16.697  0.0482  0.7268  0.3055
 9345TIP3    H149450   6.515   3.972  16.756  2.0335 -0.1584 -1.3266
 9345TIP3    H249451   6.483   3.852  16.670 -0.2955  1.5216 -2.8566
 9346TIP3   OH249452   0.763   1.141   6.461 -0.3170  0.5476  0.1528
 9346TIP3    H149453   0.767   1.057   6.506  0.9786  1.2804  1.4601
 9346TIP3    H249454   0.707   1.195   6.516 -1.4658  0.4539 -0.8845
 9347TIP3   OH249455   4.712   4.418  12.562  0.3990 -0.0521 -0.1085
 9347TIP3    H149456   4.703   4.421  12.657  2.4152 -0.3536  0.1266
 9347TIP3    H249457   4.636   4.369  12.531 -1.2357  1.6094  1.1768
 9348TIP3   OH249458   0.902   4.591   3.150  0.2220 -0.0042  0.3394
 9348TIP3    H149459   0.837   4.660   3.150 -0.0414 -0.1211 -4.2307
 9348TIP3    H249460   0.856   4.514   3.184 -0.5773  1.0460  1.7023
 9349TIP3   OH249461   3.637   2.140  11.693 -0.5672  0.3319 -0.3340
 9349TIP3    H149462   3.590   2.203  11.639 -1.4332  0.4997  0.5779
 9349TIP3    H249463   3.586   2.059  11.686 -1.8339  0.8908  1.7528
 9350TIP3   OH249464   3.532   3.145  11.694 -0.0078 -0.2072 -0.1864
 9350TIP3    H149465   3.626   3.160  11.697 -0.1600  0.5281  2.6663
 9350TIP3    H249466   3.513   3.128  11.602  3.0924 -1.6832 -0.6289
 9351TIP3   OH249467   1.614   6.782   5.189 -0.1567 -0.2404 -0.3247
 9351TIP3    H149468   1.691   6.838   5.194 -1.5686  1.8737 -1.1534
 9351TIP3    H249469   1.611   6.753   5.098 -0.4290 -0.1623 -0.3433
 9352TIP3   OH249470   1.230   1.051   4.674 -0.0464  0.4218  0.1976
 9352TIP3    H149471   1.138   1.078   4.669 -0.0640  0.3217 -0.0237
 9352TIP3    H249472   1.239   0.986   4.605  0.3363  0.8572 -0.1572
 9353TIP3   OH249473   3.547   6.069   0.949  0.5714 -0.3423  0.4820
 9353TIP3    H149474   3.461   6.100   0.918  0.5775 -0.1555  0.6500
 9353TIP3    H249475   3.527   5.991   1.001  0.6695 -1.3814 -1.0042
 9354TIP3   OH249476   0.629   4.759  11.319  1.1781  0.0720  0.4412
 9354TIP3    H149477   0.559   4.722  11.373 -0.6979  2.4682 -0.2520
 9354TIP3    H249478   0.679   4.814  11.380 -0.1428  1.7284  0.0626
 9355TIP3   OH249479   3.866   1.085  14.317 -0.4861  0.4873 -0.0683
 9355TIP3    H149480   3.931   1.125  14.259 -0.7724 -2.5904 -2.6772
 9355TIP3    H249481   3.783   1.122  14.288 -0.6366 -1.0966 -1.7396
 9356TIP3   OH249482   1.616   3.595   3.737 -0.4356  0.1930 -0.1255
 9356TIP3    H149483   1.560   3.557   3.804  0.4928 -0.6386  0.1881
 9356TIP3    H249484   1.593   3.688   3.737 -0.4699  0.1959  1.3280
 9357TIP3   OH249485   6.478   6.522  12.007 -0.2708  0.3920 -0.3064
 9357TIP3    H149486   6.485   6.438  11.960 -0.2043  0.0299  0.3434
 9357TIP3    H249487   6.552   6.573  11.976  1.1909 -0.7434  1.1834
 9358TIP3   OH249488   6.450   4.755  16.154 -0.2393 -0.4430  0.7680
 9358TIP3    H149489   6.545   4.756  16.144 -0.2870  0.3173  0.3866
 9358TIP3    H249490   6.435   4.755  16.248  0.1427 -1.0978  0.8338
 9359TIP3   OH249491   5.786   0.507  14.179 -0.2757  0.2966  0.0960
 9359TIP3    H149492   5.759   0.561  14.105 -0.8052  1.3753  1.0563
 9359TIP3    H249493   5.710   0.505  14.237  0.0894 -0.6427  0.5598
 9360TIP3   OH249494   0.995   2.336   5.768 -0.5845 -0.0653  0.0347
 9360TIP3    H149495   0.912   2.350   5.724  0.6309  0.1475 -2.2855
 9360TIP3    H249496   1.049   2.289   5.703  1.1057 -0.1766  1.4681
 9361TIP3   OH249497   6.379   3.248   4.266  0.3169 -0.1041  0.2946
 9361TIP3    H149498   6.385   3.156   4.239  0.9488 -0.2899  1.0453
 9361TIP3    H249499   6.292   3.257   4.303  0.6613 -0.6955  1.2748
 9362TIP3   OH249500   4.088   6.558  12.274  0.2282 -0.2954 -0.1837
 9362TIP3    H149501   4.169   6.514  12.301  0.8134  0.7110 -0.2627
 9362TIP3    H249502   4.022   6.490  12.276  0.9646 -1.0027  0.4579
 9363TIP3   OH249503   2.183   5.775   6.664  0.0371 -0.0749  0.0544
 9363TIP3    H149504   2.196   5.844   6.728 -0.4100 -0.2448  0.3323
 9363TIP3    H249505   2.130   5.709   6.709  2.0848 -1.5131  0.4162
 9364TIP3   OH249506   0.455   1.437   5.252 -0.4196 -0.3818 -0.1518
 9364TIP3    H149507   0.389   1.484   5.202  1.7643  4.0397  0.9199
 9364TIP3    H249508   0.440   1.461   5.343  1.0079 -1.4630  0.4046
 9365TIP3   OH249509   6.310   4.889  17.167  0.3731 -0.6001 -0.2250
 9365TIP3    H149510   6.289   4.980  17.147  0.6568 -0.5245 -0.1836
 9365TIP3    H249511   6.324   4.888  17.262  0.8213 -0.5954 -0.2913
 9366TIP3   OH249512   2.128   2.423   1.942  0.0942  0.2635  0.1773
 9366TIP3    H149513   2.129   2.379   2.027  0.0848 -0.7277 -0.3301
 9366TIP3    H249514   2.094   2.357   1.882  1.5472  0.4437 -0.8653
 9367TIP3   OH249515   3.197   6.294   5.314  0.5540  0.2399 -0.6169
 9367TIP3    H149516   3.212   6.228   5.381  0.1310  1.7219  0.9661
 9367TIP3    H249517   3.255   6.367   5.339  0.4392  0.7754 -1.8864
 9368TIP3   OH249518   3.626   3.564  11.106  0.6133 -0.3744 -0.1017
 9368TIP3    H149519   3.674   3.517  11.175 -0.2186 -1.6576 -0.3808
 9368TIP3    H249520   3.588   3.495  11.052 -2.4359  0.5963  0.7356
 9369TIP3   OH249521   3.987   2.462  13.147  0.1935  0.3241  0.0072
 9369TIP3    H149522   4.074   2.480  13.184  0.5215 -0.3200 -0.4530
 9369TIP3    H249523   3.975   2.531  13.081  0.3094  0.4778  0.1462
 9370TIP3   OH249524   3.516   1.350  13.481  0.3334  0.2675 -0.1871
 9370TIP3    H149525   3.472   1.382  13.402 -0.2290  1.4985  0.5993
 9370TIP3    H249526   3.476   1.400  13.552 -0.2737 -1.9257  1.0550
 9371TIP3   OH249527   5.149   3.473  12.028  0.6006  0.3874 -0.3362
 9371TIP3    H149528   5.200   3.396  12.003  0.0635  0.2661 -1.0803
 9371TIP3    H249529   5.144   3.468  12.123  1.7382  0.2479 -0.2807
 9372TIP3   OH249530   3.373   4.672  13.246  0.1013  0.1142  0.1243
 9372TIP3    H149531   3.310   4.706  13.183  0.2706  0.2467  0.0274
 9372TIP3    H249532   3.320   4.624  13.309 -0.2776  1.5225  0.9148
 9373TIP3   OH249533   1.687   4.204  15.476 -0.0878 -0.4495  0.1240
 9373TIP3    H149534   1.642   4.264  15.416 -0.6171  0.2934  1.2577
 9373TIP3    H249535   1.616   4.154  15.517  0.3249 -1.5315 -0.4599
 9374TIP3   OH249536   6.576   1.149   0.851 -0.2709 -0.3719  0.0947
 9374TIP3    H149537   6.658   1.161   0.803  0.0494 -1.4462  0.3589
 9374TIP3    H249538   6.550   1.059   0.831 -0.6998 -0.4688  1.0617
 9375TIP3   OH249539   1.880   0.105  13.639  0.0470  0.6496  0.3123
 9375TIP3    H149540   1.927   0.077  13.560  0.0354 -0.5519  0.7140
 9375TIP3    H249541   1.793   0.065  13.630  0.0825  0.4151  0.9881
 9376TIP3   OH249542   6.771   2.049   1.996  0.4090 -0.1940 -0.0641
 9376TIP3    H149543   6.791   1.968   2.042  2.2733 -0.0407 -0.6015
 9376TIP3    H249544   6.794   2.118   2.059 -0.2656 -0.0426  0.0273
 9377TIP3   OH249545   0.571   5.672   4.772 -0.7093  0.3211 -0.4194
 9377TIP3    H149546   0.518   5.730   4.827 -1.6020  0.1286 -1.0828
 9377TIP3    H249547   0.603   5.728   4.702  1.3510  0.8388  0.8548
 9378TIP3   OH249548   2.812   3.315  13.131 -0.4401 -0.6000 -0.3945
 9378TIP3    H149549   2.775   3.343  13.047  0.8800 -1.4502 -1.2784
 9378TIP3    H249550   2.889   3.370  13.143 -0.3508 -0.8145  0.0400
 9379TIP3   OH249551   4.829   6.007  15.249  0.0356 -0.0031 -0.7926
 9379TIP3    H149552   4.877   5.993  15.331  1.1859  0.1836 -1.4164
 9379TIP3    H249553   4.737   6.014  15.275  0.5472  1.5605  0.6588
 9380TIP3   OH249554   1.765   3.772  14.638  0.2367 -0.5114 -0.1257
 9380TIP3    H149555   1.835   3.811  14.690  1.1594 -2.7852  0.3727
 9380TIP3    H249556   1.808   3.736  14.561 -0.3990 -1.6577  0.0320
 9381TIP3   OH249557   6.388   3.706   0.674 -0.4065  0.2755 -0.4411
 9381TIP3    H149558   6.387   3.613   0.699  1.7169 -0.5751 -3.2449
 9381TIP3    H249559   6.407   3.705   0.580  0.9707  3.6202 -0.2586
 9382TIP3   OH249560   6.707   5.022  14.418 -0.1364  0.1559  0.2009
 9382TIP3    H149561   6.731   4.932  14.437 -0.2851 -0.1270 -0.8861
 9382TIP3    H249562   6.672   5.057  14.500  4.3180  0.7160  1.9964
 9383TIP3   OH249563   3.286   4.944   3.651 -0.4266 -0.4066 -0.3901
 9383TIP3    H149564   3.252   4.994   3.726  0.6950 -0.2388  0.0156
 9383TIP3    H249565   3.356   4.998   3.616  1.4361 -2.1105  0.6282
 9384TIP3   OH249566   4.762   2.207   0.025 -0.2803  0.5066  0.1087
 9384TIP3    H149567   4.670   2.179   0.020  0.0164 -0.9407  1.9126
 9384TIP3    H249568   4.790   2.215  -0.066 -1.3996 -1.8229 -0.5041
 9385TIP3   OH249569   1.047   4.111  16.534 -0.0987  0.1029  0.1047
 9385TIP3    H149570   1.124   4.156  16.570 -0.3463 -0.7777  1.8035
 9385TIP3    H249571   0.985   4.182  16.515  0.2713  0.6478  0.8667
 9386TIP3   OH249572   5.171   3.720  17.158  0.7054 -0.0060  0.2367
 9386TIP3    H149573   5.076   3.728  17.162  0.7659  0.9341 -0.2390
 9386TIP3    H249574   5.186   3.626  17.144 -0.2770  0.3009 -3.2673
 9387TIP3   OH249575   4.875   0.497   6.373 -0.0260 -0.3032  0.6709
 9387TIP3    H149576   4.938   0.569   6.380 -0.4012  0.1423 -0.2876
 9387TIP3    H249577   4.792   0.535   6.402  0.2564 -1.0603  2.5032
 9388TIP3   OH249578   6.236   4.312   1.368  0.6862 -0.1727  0.2194
 9388TIP3    H149579   6.155   4.334   1.414  1.2893  0.6833  0.8923
 9388TIP3    H249580   6.211   4.308   1.276 -0.4721 -1.5918  0.5826
 9389TIP3   OH249581   2.580   0.664   0.320 -0.1416 -0.1574  0.2609
 9389TIP3    H149582   2.666   0.668   0.278  0.4712  0.5506  1.5522
 9389TIP3    H249583   2.520   0.702   0.256  0.3117 -1.6730 -1.1028
 9390TIP3   OH249584   5.363   6.682  11.813 -0.2585  0.7616  0.4430
 9390TIP3    H149585   5.399   6.758  11.767  0.6063  0.6355  0.8968
 9390TIP3    H249586   5.439   6.640  11.854 -0.6106 -0.7420 -0.3738
 9391TIP3   OH249587   0.944   1.961  10.905  0.3885 -0.4670  0.5902
 9391TIP3    H149588   0.886   1.930  10.975 -0.5276 -0.8104 -0.3108
 9391TIP3    H249589   0.910   2.047  10.883  1.3855  0.1250  1.3537
 9392TIP3   OH249590   4.681   4.022  12.583  0.3105  0.0455  0.4707
 9392TIP3    H149591   4.755   4.082  12.592  0.0343  0.2891  1.1320
 9392TIP3    H249592   4.615   4.074  12.537  0.1829  0.1460  0.7701
 9393TIP3   OH249593   1.655   5.834   2.284 -0.0817 -0.0141  0.6613
 9393TIP3    H149594   1.656   5.890   2.362 -0.3561  0.7229  0.1511
 9393TIP3    H249595   1.747   5.824   2.261 -0.0582  0.8413  0.3433
 9394TIP3   OH249596   4.681   5.349  12.787  0.2882 -0.1619  0.1617
 9394TIP3    H149597   4.718   5.354  12.875 -1.5076 -2.4871  1.1090
 9394TIP3    H249598   4.603   5.405  12.790 -0.4661 -1.2001  0.4621
 9395TIP3   OH249599   0.177   2.817  11.667  0.1909  0.2914  0.0836
 9395TIP3    H149600   0.206   2.837  11.579  0.8975  0.5239  0.3643
 9395TIP3    H249601   0.216   2.885  11.722 -1.8741  1.3120  0.3247
 9396TIP3   OH249602   1.018   4.918  15.055  0.4193  0.1747  0.2054
 9396TIP3    H149603   1.003   4.975  15.131 -0.8219 -0.4203  0.4002
 9396TIP3    H249604   1.055   4.838  15.092  0.2809  0.0738  0.1200
 9397TIP3   OH249605   0.583   4.390  11.258  0.0376 -0.1404  0.3118
 9397TIP3    H149606   0.648   4.330  11.222  0.3932  0.6094 -0.3274
 9397TIP3    H249607   0.632   4.469  11.281 -0.5871  0.3199  0.1069
 9398TIP3   OH249608   0.607   6.228   0.356  1.0634 -0.0030  0.1204
 9398TIP3    H149609   0.678   6.201   0.297  0.7655  0.4510 -0.4482
 9398TIP3    H249610   0.601   6.157   0.420  1.3205 -0.5499 -0.4552
 9399TIP3   OH249611   0.867   6.356   1.240 -0.2673  0.2879  0.0091
 9399TIP3    H149612   0.781   6.347   1.200 -0.8951  1.3638  1.0907
 9399TIP3    H249613   0.878   6.277   1.292 -2.2322  1.8261  2.8867
 9400TIP3   OH249614   1.158   3.685   2.851 -0.2096 -0.0169  0.6770
 9400TIP3    H149615   1.150   3.592   2.872 -1.2231 -0.2903 -0.8713
 9400TIP3    H249616   1.221   3.719   2.915  1.5544 -2.1235  0.0886
 9401TIP3   OH249617   2.174   0.732  13.440  0.3302 -0.8237  0.1917
 9401TIP3    H149618   2.163   0.638  13.455  1.9790 -1.1316 -0.3650
 9401TIP3    H249619   2.217   0.764  13.519 -0.2332 -0.5343  0.3825
 9402TIP3   OH249620   1.260   4.319  11.769 -0.4661  0.4441  0.0270
 9402TIP3    H149621   1.311   4.399  11.782  0.7279 -0.1643 -0.8220
 9402TIP3    H249622   1.325   4.250  11.760 -1.4253 -0.3475 -1.1186
 9403TIP3   OH249623   1.100   6.402   3.279 -0.2857 -0.0557  0.1834
 9403TIP3    H149624   1.103   6.394   3.184 -1.0605 -0.2295  0.1750
 9403TIP3    H249625   1.191   6.389   3.307 -0.4170 -2.2278 -0.3478
 9404TIP3   OH249626   3.929   0.855  15.505  0.5497  0.3761 -0.6521
 9404TIP3    H149627   3.928   0.763  15.477  0.9051  0.1576  0.0448
 9404TIP3    H249628   3.837   0.881  15.503  0.6732  0.6910 -3.0676
 9405TIP3   OH249629   2.006   5.819   1.890  0.4018  0.2136 -0.0893
 9405TIP3    H149630   2.078   5.770   1.931  1.0836  0.1277 -1.3597
 9405TIP3    H249631   2.045   5.858   1.813 -0.7213  0.8808 -0.3256
 9406TIP3   OH249632   3.164   5.730   0.046 -0.2921  0.4729  0.2527
 9406TIP3    H149633   3.160   5.680  -0.036 -2.9863  2.9660 -1.2339
 9406TIP3    H249634   3.116   5.811   0.027  0.5881  1.9098  3.7691
 9407TIP3   OH249635   6.014   3.323  16.125  0.3486 -0.2287 -0.5847
 9407TIP3    H149636   6.108   3.342  16.121  0.2259  0.4613 -0.2701
 9407TIP3    H249637   5.999   3.295  16.215  0.2525 -0.3219 -0.6294
 9408TIP3   OH249638   5.055   0.773  12.353 -0.2332  0.5216  0.3955
 9408TIP3    H149639   5.057   0.681  12.325 -0.2294  1.3568 -2.5628
 9408TIP3    H249640   5.053   0.769  12.448  1.0519 -2.5245  0.3544
 9409TIP3   OH249641   5.022   1.883  16.437 -0.2424 -0.0143  0.0824
 9409TIP3    H149642   5.047   1.906  16.348  2.3618  0.7570  0.9707
 9409TIP3    H249643   4.985   1.963  16.474  0.3666  0.1884  0.2633
 9410TIP3   OH249644   4.364   1.867   6.940 -0.3925 -0.3770 -0.4164
 9410TIP3    H149645   4.410   1.783   6.938 -1.2139 -0.8695  0.6522
 9410TIP3    H249646   4.399   1.912   7.017 -0.6960 -0.1789 -0.3934
 9411TIP3   OH249647   2.852   3.268   1.169 -0.2685 -0.4143  0.3813
 9411TIP3    H149648   2.841   3.352   1.123  0.5114  0.8955  2.5489
 9411TIP3    H249649   2.767   3.253   1.212 -0.4710 -0.8576 -0.1590
 9412TIP3   OH249650   0.609   1.996  10.773 -0.2167  0.3009 -0.2039
 9412TIP3    H149651   0.580   1.969  10.860  1.4143 -1.8489 -0.2950
 9412TIP3    H249652   0.620   2.091  10.779  0.5032  0.0845  2.1299
 9413TIP3   OH249653   5.059   1.726   5.257 -0.0606 -0.1187 -1.0307
 9413TIP3    H149654   5.101   1.664   5.197  2.5526  0.4850  0.1172
 9413TIP3    H249655   5.105   1.809   5.242  1.6938 -0.2943  2.8308
 9414TIP3   OH249656   2.595   5.109  13.532 -0.0720 -0.1256  0.1081
 9414TIP3    H149657   2.613   5.177  13.468 -0.0110 -0.1411  0.1085
 9414TIP3    H249658   2.594   5.154  13.616  0.1260 -0.1513  0.1239
 9415TIP3   OH249659   5.330   5.422  10.874  0.5270  0.3463 -0.2315
 9415TIP3    H149660   5.379   5.498  10.841  1.8598 -1.0274 -1.5145
 9415TIP3    H249661   5.265   5.405  10.806  0.6503 -0.0463 -0.2505
 9416TIP3   OH249662   4.034   4.335  15.278 -0.2116 -0.2974  0.4309
 9416TIP3    H149663   4.095   4.406  15.258  0.8063 -1.5726 -1.1263
 9416TIP3    H249664   4.076   4.288  15.351  0.7962 -1.2721 -0.7471
 9417TIP3   OH249665   5.509   0.555  16.204  0.3017  0.2582 -0.0407
 9417TIP3    H149666   5.557   0.507  16.137 -0.3365  0.9308 -0.9987
 9417TIP3    H249667   5.444   0.605  16.155  0.5237  1.5856  0.9950
 9418TIP3   OH249668   0.050   3.583  16.701  0.4787  0.2295  0.4073
 9418TIP3    H149669   0.089   3.574  16.615 -3.6637 -0.2294 -1.5598
 9418TIP3    H249670  -0.009   3.658  16.693 -2.1969 -1.6321  1.8883
 9419TIP3   OH249671   6.312   4.703   3.979  0.1633 -0.3214  0.0115
 9419TIP3    H149672   6.271   4.732   4.060  0.6341 -0.7357  0.4015
 9419TIP3    H249673   6.243   4.708   3.913  0.1665  1.4472  0.1259
 9420TIP3   OH249674   2.110   5.066   2.806  0.3022  0.4525 -0.3044
 9420TIP3    H149675   2.021   5.040   2.828  0.1657  1.6750  0.6300
 9420TIP3    H249676   2.163   5.036   2.879  0.9558 -1.8933 -1.7002
 9421TIP3   OH249677   0.198   3.113  15.303 -0.6714 -0.2700 -0.2287
 9421TIP3    H149678   0.145   3.166  15.362 -0.6874 -1.9322  1.2940
 9421TIP3    H249679   0.140   3.093  15.230 -0.3967  2.4906 -1.2468
 9422TIP3   OH249680   3.252   5.205  11.516  0.0338  0.1578  0.4856
 9422TIP3    H149681   3.257   5.299  11.531  0.9119  0.5311 -1.8852
 9422TIP3    H249682   3.230   5.168  11.601 -0.7545  2.5391  1.3531
 9423TIP3   OH249683   6.392   0.676  15.494 -0.2016  0.5288 -0.2187
 9423TIP3    H149684   6.444   0.737  15.546  1.4887  0.0228 -1.2704
 9423TIP3    H249685   6.426   0.590  15.517 -1.0331  0.1537 -0.4069
 9424TIP3   OH249686   3.014   6.096   4.155 -0.7172  0.0852  0.0017
 9424TIP3    H149687   3.075   6.028   4.124 -1.3684  0.4313 -2.1565
 9424TIP3    H249688   2.932   6.077   4.109 -1.1130  1.9113 -0.0798
 9425TIP3   OH249689   4.115   0.318   2.352  0.2699  0.1429 -0.4719
 9425TIP3    H149690   4.190   0.297   2.408  1.2103 -2.3579 -2.5842
 9425TIP3    H249691   4.153   0.358   2.274 -0.8149  1.1200 -0.5133
 9426TIP3   OH249692   0.519   0.250   3.437  0.1665  0.0029 -0.4057
 9426TIP3    H149693   0.464   0.238   3.359  0.6777 -0.0837 -0.7550
 9426TIP3    H249694   0.598   0.293   3.405  1.6150 -2.5912 -0.4369
 9427TIP3   OH249695   6.638   6.429   4.494 -0.5233  0.5322  0.2318
 9427TIP3    H149696   6.723   6.472   4.501 -0.1865  0.1575 -1.4131
 9427TIP3    H249697   6.574   6.500   4.498 -0.0358  1.0416 -0.9461
 9428TIP3   OH249698   5.863   2.752  15.363  0.6271  0.2340  0.0842
 9428TIP3    H149699   5.807   2.783  15.434 -0.2191  2.5590 -1.5406
 9428TIP3    H249700   5.948   2.736  15.405 -0.1239  0.6123  1.8097
 9429TIP3   OH249701   4.072   0.749  14.737  0.3146 -0.0978  0.3064
 9429TIP3    H149702   4.073   0.782  14.827 -4.0560 -1.1568  0.8512
 9429TIP3    H249703   4.036   0.820  14.685 -0.8401 -0.8542  0.0527
 9430TIP3   OH249704   1.389   2.431   3.707 -0.5043  0.8339  0.2849
 9430TIP3    H149705   1.398   2.357   3.646 -0.3843  0.3247  0.9073
 9430TIP3    H249706   1.474   2.475   3.705 -1.1500  2.0388 -1.4524
 9431TIP3   OH249707   2.936   5.655  11.213 -0.1264  0.1044  0.2011
 9431TIP3    H149708   2.958   5.713  11.141  1.9065 -0.4092  0.3860
 9431TIP3    H249709   2.942   5.567  11.175  1.5710 -0.2012  1.1169
 9432TIP3   OH249710   4.888   3.701  17.206 -0.3456  0.6997  0.3640
 9432TIP3    H149711   4.835   3.643  17.261  1.3858 -0.2922  1.0406
 9432TIP3    H249712   4.847   3.698  17.120 -1.7802  0.5002  1.0498
 9433TIP3   OH249713   2.228   5.556  14.490  0.4202 -0.0509 -0.1234
 9433TIP3    H149714   2.158   5.493  14.507  0.5512 -0.8898 -2.4582
 9433TIP3    H249715   2.306   5.517  14.529 -0.3295  0.8094  2.3483
 9434TIP3   OH249716   6.040   1.284   4.952 -0.0407  0.0137 -0.4501
 9434TIP3    H149717   6.090   1.348   5.002 -1.6341  1.4670 -0.6788
 9434TIP3    H249718   6.105   1.239   4.899  1.1517  1.1901 -0.0153
 9435TIP3   OH249719   0.445   1.718  15.208 -0.3043 -0.2677 -0.0171
 9435TIP3    H149720   0.368   1.764  15.174 -0.9918  0.2964  2.2347
 9435TIP3    H249721   0.512   1.785  15.216 -0.4727 -0.1859  0.7246
 9436TIP3   OH249722   3.415   1.248  12.697  0.0501 -0.4245  0.1843
 9436TIP3    H149723   3.345   1.279  12.756  1.4889  0.1158  1.6418
 9436TIP3    H249724   3.369   1.193  12.633 -1.9116  0.9827  0.3116
 9437TIP3   OH249725   4.724   6.419   1.462 -1.5749  0.8098  0.2729
 9437TIP3    H149726   4.707   6.343   1.406 -1.0647  1.0268 -0.1794
 9437TIP3    H249727   4.819   6.420   1.473 -1.4851  1.9845 -0.5810
 9438TIP3   OH249728   1.342   4.505  12.857 -0.5735 -0.2509 -0.2458
 9438TIP3    H149729   1.309   4.442  12.921  0.7287 -0.9579 -0.2697
 9438TIP3    H249730   1.321   4.466  12.772 -0.0446 -0.4929 -0.2617
 9439TIP3   OH249731   0.794   4.908   4.493 -0.3174  0.3255 -0.4832
 9439TIP3    H149732   0.878   4.926   4.451 -0.9572  1.4552 -1.3196
 9439TIP3    H249733   0.800   4.954   4.577  1.5720 -3.2322  1.4500
 9440TIP3   OH249734   0.639   0.409  14.664 -0.1414  0.2463 -0.0399
 9440TIP3    H149735   0.567   0.432  14.605  0.9382 -0.5873 -1.7305
 9440TIP3    H249736   0.717   0.414  14.609  0.9961  0.3878  1.5798
 9441TIP3   OH249737   1.058   5.011  15.756 -0.4301 -0.1195  0.6091
 9441TIP3    H149738   1.119   5.082  15.735  1.9573 -1.4674  2.6700
 9441TIP3    H249739   1.062   4.953  15.680 -1.2141  1.1719 -0.4181
 9442TIP3   OH249740   2.124   1.340  16.678  0.1817  0.0611  0.7737
 9442TIP3    H149741   2.115   1.421  16.729  0.6616  0.9825 -0.5858
 9442TIP3    H249742   2.216   1.337  16.654  0.1056 -0.7546  0.5765
 9443TIP3   OH249743   4.323   4.602  15.536 -0.0772  0.1593  0.3546
 9443TIP3    H149744   4.354   4.682  15.494  0.3791  0.3937  1.1255
 9443TIP3    H249745   4.401   4.548  15.545  0.0282  0.5275  1.8048
 9444TIP3   OH249746   2.039   3.520  13.302  0.0788 -0.0387 -0.2911
 9444TIP3    H149747   2.014   3.515  13.394  1.4075  0.7580  0.1189
 9444TIP3    H249748   2.076   3.433  13.283 -0.0001 -0.1334 -0.0157
 9445TIP3   OH249749   6.305   3.476   2.227  0.3471 -0.1229 -0.3041
 9445TIP3    H149750   6.238   3.430   2.177 -0.1916 -0.5425  0.7833
 9445TIP3    H249751   6.374   3.495   2.164 -0.4375 -0.4201 -1.2503
 9446TIP3   OH249752   4.169   3.443  13.479 -0.2818 -0.0560 -0.0553
 9446TIP3    H149753   4.236   3.510  13.497 -0.5383  0.0064  0.7115
 9446TIP3    H249754   4.196   3.403  13.397  1.4335 -0.9288  0.9016
 9447TIP3   OH249755   3.477   3.950  12.693 -0.3106  0.7011  0.1185
 9447TIP3    H149756   3.456   4.042  12.676 -0.6248 -0.0004 -3.5829
 9447TIP3    H249757   3.567   3.940  12.661  0.1293 -0.0467  1.5373
 9448TIP3   OH249758   0.154   2.761   4.681 -0.0225 -0.9298  0.3617
 9448TIP3    H149759   0.064   2.782   4.706  0.0889 -0.8641  0.7117
 9448TIP3    H249760   0.182   2.835   4.627 -0.1327 -0.8864  0.3643
 9449TIP3   OH249761   3.219   6.054  16.182 -0.1169  0.2105  0.2456
 9449TIP3    H149762   3.213   6.007  16.099 -1.6490  1.5739 -0.4491
 9449TIP3    H249763   3.278   6.001  16.236  0.9085 -0.6797 -1.7095
 9450TIP3   OH249764   1.802   1.218  16.591 -0.0212  0.3569  0.4842
 9450TIP3    H149765   1.762   1.182  16.670  1.0244 -0.4165  0.6556
 9450TIP3    H249766   1.828   1.307  16.616 -0.9528  0.6162  0.5819
 9451TIP3   OH249767   6.481   3.408   1.249 -0.0659 -0.7027 -0.6965
 9451TIP3    H149768   6.567   3.408   1.207 -0.0601 -0.2566 -0.6804
 9451TIP3    H249769   6.435   3.483   1.212  0.6852  0.9316  1.5937
 9452TIP3   OH249770   2.771   3.458   0.554  0.4492 -0.1285 -0.6162
 9452TIP3    H149771   2.862   3.480   0.570 -0.1293  2.4943 -0.7175
 9452TIP3    H249772   2.754   3.489   0.465 -0.5638 -0.5083 -0.5604
 9453TIP3   OH249773   5.425   0.056  11.586  0.0844 -0.6622 -0.2910
 9453TIP3    H149774   5.360   0.116  11.549 -0.8392 -1.1357  0.5309
 9453TIP3    H249775   5.510   0.097  11.568 -0.5491  1.0381  0.5150
 9454TIP3   OH249776   3.825   2.378   6.400 -0.1494  0.3593 -0.3442
 9454TIP3    H149777   3.839   2.348   6.310  0.1107  0.5279 -0.3604
 9454TIP3    H249778   3.800   2.470   6.391 -0.5252  0.2669 -0.2682
 9455TIP3   OH249779   1.442   1.906  12.233 -0.1234 -0.3959  0.4084
 9455TIP3    H149780   1.520   1.868  12.273  0.8727  0.6544 -0.4974
 9455TIP3    H249781   1.421   1.981  12.289  0.3374  0.1341 -0.1195
 9456TIP3   OH249782   5.448   5.200   0.907 -0.2686 -0.0631  0.4905
 9456TIP3    H149783   5.536   5.162   0.912  0.0115  0.4961 -0.1366
 9456TIP3    H249784   5.393   5.129   0.872  0.3293  0.2264 -1.0750
 9457TIP3   OH249785   4.486   6.595  15.176 -0.3768  0.2207 -0.3167
 9457TIP3    H149786   4.560   6.650  15.201  2.3100 -2.2745 -2.3596
 9457TIP3    H249787   4.513   6.554  15.094 -2.6533 -3.3295  0.5649
 9458TIP3   OH249788   3.308   1.123  14.628 -0.0761  0.4594  0.1900
 9458TIP3    H149789   3.362   1.181  14.574  1.1264 -0.5835  0.2346
 9458TIP3    H249790   3.247   1.082  14.567 -0.3765  1.1502  0.0290
 9459TIP3   OH249791   0.843   0.753  13.529 -0.0382 -0.2192 -0.5484
 9459TIP3    H149792   0.781   0.686  13.558 -0.4299 -0.5009 -2.0277
 9459TIP3    H249793   0.925   0.731  13.575 -0.2625 -1.4837 -0.7338
 9460TIP3   OH249794   2.622   0.736  16.173  0.0510 -0.1846 -0.3732
 9460TIP3    H149795   2.570   0.764  16.097  0.4145 -0.8102 -0.8602
 9460TIP3    H249796   2.656   0.818  16.210 -0.0935  0.1268 -0.9155
 9461TIP3   OH249797   4.838   2.898   2.132  0.0449 -0.3779 -0.3511
 9461TIP3    H149798   4.879   2.966   2.185  0.5312  1.3460 -2.8428
 9461TIP3    H249799   4.824   2.825   2.193 -0.1741  1.7971  2.3066
 9462TIP3   OH249800   0.656   3.648   3.925 -0.5071  0.0933  0.2077
 9462TIP3    H149801   0.587   3.645   3.992 -1.7846 -2.2399 -1.1624
 9462TIP3    H249802   0.614   3.690   3.850 -0.1752 -0.5499 -0.3362
 9463TIP3   OH249803   3.910   0.096   5.457 -0.7248 -0.4813  0.0818
 9463TIP3    H149804   3.984   0.036   5.453  1.1022  1.7545 -0.4143
 9463TIP3    H249805   3.897   0.125   5.366 -1.9691 -0.5686  0.2162
 9464TIP3   OH249806   4.395   4.117   0.193 -0.3392 -0.2456 -0.1689
 9464TIP3    H149807   4.399   4.024   0.217 -0.6434 -0.4900 -1.0564
 9464TIP3    H249808   4.306   4.130   0.163 -1.2373  1.0761  2.8723
 9465TIP3   OH249809   4.243   5.521  13.314  0.3819 -0.2940  0.1618
 9465TIP3    H149810   4.198   5.444  13.348  1.5438 -1.0104  0.1121
 9465TIP3    H249811   4.190   5.549  13.239  0.1112 -1.2240  0.0050
 9466TIP3   OH249812   1.724   3.196   4.139 -0.5090  0.0469 -0.7089
 9466TIP3    H149813   1.771   3.267   4.182 -0.0583  0.9103 -2.5647
 9466TIP3    H249814   1.784   3.121   4.144 -2.0327 -1.0219  3.5677
 9467TIP3   OH249815   5.363   3.643  15.913 -0.2557  0.0255  0.2162
 9467TIP3    H149816   5.283   3.661  15.864  0.1874 -0.4484 -0.7016
 9467TIP3    H249817   5.418   3.720  15.899 -0.3948  0.1790  0.5182
 9468TIP3   OH249818   0.391   1.881   5.948 -0.0076 -0.1969 -0.2884
 9468TIP3    H149819   0.415   1.852   6.036 -0.8903 -0.1189 -0.0198
 9468TIP3    H249820   0.328   1.815   5.918 -0.9448  0.6584 -0.2285
 9469TIP3   OH249821   0.580   3.825  13.420 -0.4124 -0.4857  0.3395
 9469TIP3    H149822   0.550   3.789  13.503  0.1718  1.5740  1.4739
 9469TIP3    H249823   0.599   3.917  13.439  0.7555 -0.2469 -1.8143
 9470TIP3   OH249824   2.834   5.680  12.471  0.2624 -0.2214 -0.7063
 9470TIP3    H149825   2.814   5.610  12.533 -1.2082 -0.1863 -1.1178
 9470TIP3    H249826   2.850   5.757  12.526 -0.8794 -0.2259 -0.3477
 9471TIP3   OH249827   6.402   1.086  14.312  1.0690 -0.2972  0.7096
 9471TIP3    H149828   6.334   1.144  14.278  0.7259 -0.0990  1.6975
 9471TIP3    H249829   6.354   1.024  14.368  1.5970 -0.7054  0.7103
 9472TIP3   OH249830   0.664   5.613  14.052  0.2900 -0.0928 -0.1711
 9472TIP3    H149831   0.619   5.532  14.072  0.6157  0.0158  1.0484
 9472TIP3    H249832   0.749   5.605  14.095  1.0360  0.1460 -1.5511
 9473TIP3   OH249833   4.125   3.313   6.212 -0.2145 -0.4191  0.7402
 9473TIP3    H149834   4.144   3.391   6.263 -0.9366 -0.0973  0.5184
 9473TIP3    H249835   4.171   3.242   6.258  2.5863  0.5182 -0.4810
 9474TIP3   OH249836   5.060   0.176   3.711  0.5640 -0.0258 -0.5851
 9474TIP3    H149837   5.137   0.134   3.749  0.7662  1.1313  0.3063
 9474TIP3    H249838   5.025   0.231   3.782 -0.0896  0.7748 -1.5158
 9475TIP3   OH249839   6.060   5.340   4.110 -0.0378 -0.6661  0.6461
 9475TIP3    H149840   6.074   5.429   4.080 -2.2305  0.1021  1.8451
 9475TIP3    H249841   6.147   5.311   4.138  0.8362  0.7901 -0.4907
 9476TIP3   OH249842   1.502   0.519  16.200  0.1989  0.6670  0.6824
 9476TIP3    H149843   1.591   0.534  16.231 -0.2081  0.3523  2.0674
 9476TIP3    H249844   1.510   0.449  16.135  1.1426  1.7100 -0.3481
 9477TIP3   OH249845   1.386   5.878   2.381 -0.0743  0.5810 -0.1372
 9477TIP3    H149846   1.464   5.905   2.332  0.6164  0.4728  0.9005
 9477TIP3    H249847   1.360   5.795   2.342  1.5265 -0.3952  0.8517
 9478TIP3   OH249848   6.151   1.416   4.696  0.3875 -0.2879  0.3124
 9478TIP3    H149849   6.147   1.322   4.713  0.3147 -0.3316  0.0507
 9478TIP3    H249850   6.244   1.433   4.678  0.4987 -0.2087  0.9344
 9479TIP3   OH249851   5.637   4.523   3.348  0.2684  0.1980 -0.5046
 9479TIP3    H149852   5.649   4.475   3.267  0.2628 -1.3430  0.3941
 9479TIP3    H249853   5.543   4.526   3.362  0.3537 -1.6189  0.6459
 9480TIP3   OH249854   2.535   6.277   1.030  0.5950  0.2676  0.1648
 9480TIP3    H149855   2.514   6.364   1.064  0.4825 -0.1679  1.2320
 9480TIP3    H249856   2.503   6.278   0.940  1.5132  1.6705 -0.1616
 9481TIP3   OH249857   3.903   4.992  17.232  1.0232 -0.1510  0.6267
 9481TIP3    H149858   3.991   4.954  17.236  1.2421  0.5200  2.9800
 9481TIP3    H249859   3.849   4.932  17.284  0.5163  0.4957  0.8506
 9482TIP3   OH249860   6.397   2.416  11.889  0.2551 -0.4335  0.1263
 9482TIP3    H149861   6.367   2.406  11.980  2.1709  0.6622  0.9180
 9482TIP3    H249862   6.328   2.375  11.836 -0.2501 -2.2946  2.1403
 9483TIP3   OH249863   4.797   4.796   6.385  0.0880  0.2787  0.0549
 9483TIP3    H149864   4.804   4.735   6.312 -0.0965 -0.1835  0.4216
 9483TIP3    H249865   4.844   4.754   6.456 -0.9377  0.0802  0.6223
 9484TIP3   OH249866   6.426   5.883  15.358  0.1864  0.2288  0.5932
 9484TIP3    H149867   6.478   5.854  15.283 -1.5268 -1.1616 -0.0788
 9484TIP3    H249868   6.491   5.907  15.424  1.6876 -1.0794 -0.3733
 9485TIP3   OH249869   6.018   2.509  11.187  0.2843  0.3132 -0.5018
 9485TIP3    H149870   6.100   2.555  11.204  0.4967 -0.9965  2.1821
 9485TIP3    H249871   6.013   2.504  11.091  2.1220  2.5309 -0.7465
 9486TIP3   OH249872   4.175   3.421   5.521  0.6816  0.2601 -0.0666
 9486TIP3    H149873   4.134   3.353   5.575 -0.1524 -0.2853 -1.3574
 9486TIP3    H249874   4.103   3.456   5.469  1.6162  0.2561 -1.3614
 9487TIP3   OH249875   5.268   5.031   3.827 -0.1941  0.3370  0.2800
 9487TIP3    H149876   5.313   5.060   3.906 -0.7326 -1.5660  1.3409
 9487TIP3    H249877   5.216   4.955   3.856 -0.5302 -0.2942 -1.8652
 9488TIP3   OH249878   2.258   4.923  10.696 -0.2566  0.6242  0.1049
 9488TIP3    H149879   2.188   4.979  10.730 -0.1768  2.1333 -2.0936
 9488TIP3    H249880   2.312   4.981  10.643 -0.2288 -1.5220 -2.3528
 9489TIP3   OH249881   3.136   1.521  16.032 -0.1289  0.1277  0.2418
 9489TIP3    H149882   3.228   1.526  16.005 -0.1862 -1.5240 -0.2700
 9489TIP3    H249883   3.112   1.429  16.021 -2.3342  0.8390 -1.2452
 9490TIP3   OH249884   0.388   4.746  12.707 -0.1429  0.3963 -0.2175
 9490TIP3    H149885   0.342   4.828  12.688 -0.6306  0.2700  0.3938
 9490TIP3    H249886   0.401   4.748  12.802  0.8728  0.2976 -0.3539
 9491TIP3   OH249887   5.248   1.374  14.969  0.4990 -0.2487 -0.1357
 9491TIP3    H149888   5.170   1.421  14.940  0.7416 -0.5907 -1.3966
 9491TIP3    H249889   5.244   1.377  15.064 -0.6671  0.3707 -0.1922
 9492TIP3   OH249890   2.041   3.120   5.794 -0.5626  0.0568  0.3234
 9492TIP3    H149891   1.978   3.107   5.723 -0.9422  1.5569  0.3815
 9492TIP3    H249892   2.035   3.213   5.815  2.5289  0.5281 -0.5090
 9493TIP3   OH249893   2.748   5.773  16.306 -0.2168  0.3055  0.3523
 9493TIP3    H149894   2.700   5.790  16.387  0.5383 -0.9872  1.0979
 9493TIP3    H249895   2.837   5.803  16.324 -0.0040 -0.1435  0.0759
 9494TIP3   OH249896   6.105   2.285  15.211 -0.0700 -0.1799 -0.1613
 9494TIP3    H149897   6.117   2.200  15.168  0.0730  0.7925 -2.0923
 9494TIP3    H249898   6.010   2.300  15.207 -0.1143 -0.3076  0.3319
 9495TIP3   OH249899   2.776   5.304  15.052  0.5162  0.5817  0.0489
 9495TIP3    H149900   2.697   5.328  15.003  0.8968 -0.3295 -1.0255
 9495TIP3    H249901   2.793   5.380  15.108 -0.6571  1.1134 -0.2946
 9496TIP3   OH249902   3.967   1.695  15.171  0.2412  0.1314  0.1439
 9496TIP3    H149903   3.997   1.761  15.109  2.2415 -0.4742  0.4378
 9496TIP3    H249904   3.905   1.742  15.227 -0.6816  0.9757 -1.5444
 9497TIP3   OH249905   4.462   5.493   0.415 -0.2111  0.9969  0.3093
 9497TIP3    H149906   4.457   5.588   0.407 -2.6195  0.8867  0.3553
 9497TIP3    H249907   4.537   5.478   0.473  1.3016  2.7738 -1.1178
 9498TIP3   OH249908   5.281   2.794   3.614  0.2698  0.0546  0.4798
 9498TIP3    H149909   5.345   2.727   3.636  0.6329 -0.3547 -1.7415
 9498TIP3    H249910   5.254   2.774   3.524 -1.8117  1.1373  0.8097
 9499TIP3   OH249911   4.837   2.328   2.954 -0.0680  0.4451  0.0538
 9499TIP3    H149912   4.761   2.374   2.989 -1.0159 -2.2722  1.6882
 9499TIP3    H249913   4.802   2.271   2.885  0.5241 -0.5033  0.5186
 9500TIP3   OH249914   1.149   3.724  12.299  0.4462 -0.6697  0.8190
 9500TIP3    H149915   1.176   3.652  12.244  1.6420  0.0088  0.5076
 9500TIP3    H249916   1.180   3.803  12.254 -0.5018  0.0181  1.3405
 9501TIP3   OH249917   4.063   5.676  13.517 -0.1670 -0.1278  0.0670
 9501TIP3    H149918   3.968   5.667  13.516 -0.1243 -0.5507 -0.7939
 9501TIP3    H249919   4.094   5.610  13.455  0.7046 -0.2255  0.6059
 9502TIP3   OH249920   6.703   1.034   2.579  0.4228  0.4094 -0.0320
 9502TIP3    H149921   6.729   1.095   2.648  0.4131 -0.1574  0.4766
 9502TIP3    H249922   6.651   1.086   2.519  0.0035  0.7920  0.6573
 9503TIP3   OH249923   0.135   0.471   4.054  0.1538 -0.0778 -0.3498
 9503TIP3    H149924   0.122   0.510   3.968 -1.2197  1.0777  0.3499
 9503TIP3    H249925   0.119   0.377   4.041 -0.8351  0.2039 -1.1866
 9504TIP3   OH249926   3.088   1.110  16.182  0.2334  0.0064 -0.0858
 9504TIP3    H149927   3.183   1.107  16.177  0.2550  1.7222 -1.1454
 9504TIP3    H249928   3.058   1.038  16.127  0.9092 -2.3398  2.4716
 9505TIP3   OH249929   2.532   6.466   5.377 -0.1909  0.6428  0.0139
 9505TIP3    H149930   2.471   6.529   5.339 -1.0966 -0.7586 -0.9025
 9505TIP3    H249931   2.479   6.388   5.395  1.0029 -0.0496  0.6469
 9506TIP3   OH249932   2.989   1.804  15.348 -0.0193  0.0885 -0.0621
 9506TIP3    H149933   3.034   1.881  15.383  1.4265 -0.7596 -0.0069
 9506TIP3    H249934   2.910   1.796  15.401  1.0792  0.0676  1.6189
 9507TIP3   OH249935   1.047   2.945  12.056  0.0298 -0.0317 -0.2015
 9507TIP3    H149936   1.070   3.025  12.103  0.8705 -0.3108 -0.1255
 9507TIP3    H249937   0.960   2.922  12.089 -0.1213  0.7268 -0.0669
 9508TIP3   OH249938   1.985   4.344  15.246  0.3552 -0.9051  0.3515
 9508TIP3    H149939   1.998   4.260  15.202  1.2903  0.3800 -1.8716
 9508TIP3    H249940   2.058   4.349  15.309  0.2156 -1.8130  0.5887
 9509TIP3   OH249941   5.445   5.517   1.946 -0.1094 -0.1275  0.3539
 9509TIP3    H149942   5.520   5.524   1.886  1.0662 -0.4075  1.7713
 9509TIP3    H249943   5.459   5.586   2.010 -1.3806  0.1844  0.3052
 9510TIP3   OH249944   5.454   3.561  13.473 -0.5848 -0.8564  0.0399
 9510TIP3    H149945   5.405   3.630  13.518 -0.9059 -0.0152 -1.5542
 9510TIP3    H249946   5.535   3.603  13.445 -1.7669 -0.4396 -2.9463
 9511TIP3   OH249947   5.766   3.930  15.604  0.5560  0.2835  0.2050
 9511TIP3    H149948   5.814   3.998  15.652 -1.9807  1.7501  0.7653
 9511TIP3    H249949   5.676   3.940  15.633 -0.8611  0.4048 -3.9774
 9512TIP3   OH249950   5.314   4.016  14.210 -0.3690  0.4593  0.3321
 9512TIP3    H149951   5.339   4.017  14.118 -3.1818 -0.6190 -0.5153
 9512TIP3    H249952   5.334   4.104  14.242  0.3024  0.9533 -1.3812
 9513TIP3   OH249953   2.137   4.105  11.426  0.1142 -0.0639 -0.2670
 9513TIP3    H149954   2.196   4.038  11.391 -1.3276 -1.1002 -0.7819
 9513TIP3    H249955   2.092   4.063  11.499  0.7682  1.0540  0.7821
 9514TIP3   OH249956   1.855   1.286  14.447  0.3180 -0.1639  0.0483
 9514TIP3    H149957   1.833   1.376  14.469  0.0955 -0.1383 -0.2717
 9514TIP3    H249958   1.804   1.267  14.368  0.1710 -0.6495  0.2539
 9515TIP3   OH249959   2.661   6.537   0.936 -0.3657 -0.9175 -0.5212
 9515TIP3    H149960   2.707   6.455   0.918 -0.1106 -0.7957 -0.4282
 9515TIP3    H249961   2.715   6.605   0.895 -1.7118 -1.0082 -2.4814
 9516TIP3   OH249962   4.068   0.306   6.649  0.2516  0.1684  0.6381
 9516TIP3    H149963   4.035   0.387   6.687  0.6808 -0.3433  2.1080
 9516TIP3    H249964   4.151   0.330   6.608 -0.2072  0.7107  0.0055
 9517TIP3   OH249965   1.499   4.325  16.704 -0.1159 -0.0445 -0.5266
 9517TIP3    H149966   1.532   4.364  16.624 -0.1855 -0.1114 -0.5898
 9517TIP3    H249967   1.433   4.387  16.736 -1.2522 -0.7889 -1.3779
 9518TIP3   OH249968   3.623   3.773   5.718  0.0424  0.2800 -0.4808
 9518TIP3    H149969   3.714   3.799   5.734  0.0140  0.5354 -0.7260
 9518TIP3    H249970   3.571   3.844   5.756 -0.0820 -0.5135  0.8494
 9519TIP3   OH249971   3.188   2.819   3.621  0.3444  0.8667 -0.1458
 9519TIP3    H149972   3.138   2.897   3.600 -0.8944  0.1546  0.1477
 9519TIP3    H249973   3.240   2.843   3.698  1.8778  2.1908 -1.5452
 9520TIP3   OH249974   1.866   6.765  14.795  0.3059 -0.2931 -0.1006
 9520TIP3    H149975   1.843   6.857  14.780 -0.8121 -0.8018 -1.6817
 9520TIP3    H249976   1.813   6.739  14.871 -0.4799 -0.0308 -0.5546
 9521TIP3   OH249977   5.198   5.343  11.925  0.2914 -0.2412  0.3458
 9521TIP3    H149978   5.143   5.268  11.946  1.1041 -0.4469  1.8183
 9521TIP3    H249979   5.169   5.412  11.984  0.4794  0.1687 -0.0368
 9522TIP3   OH249980   4.703   2.139  11.428  0.5551  0.8883 -0.1861
 9522TIP3    H149981   4.740   2.191  11.500  1.1753  0.2599 -0.0498
 9522TIP3    H249982   4.643   2.199  11.383  0.7983  1.5332  0.3504
 9523TIP3   OH249983   2.968   5.043   2.813 -0.1299  0.3442  0.4709
 9523TIP3    H149984   2.909   5.006   2.748 -0.8158  4.7453 -1.5834
 9523TIP3    H249985   2.910   5.084   2.878  0.6088 -1.6848  2.4931
 9524TIP3   OH249986   6.439   1.057  15.695 -0.4041  0.3639 -0.6132
 9524TIP3    H149987   6.364   1.067  15.637  0.2174  0.4763 -1.4036
 9524TIP3    H249988   6.514   1.046  15.636  0.2995  0.9747  0.1482
 9525TIP3   OH249989   5.138   5.487   5.571 -0.5318 -0.3883 -0.1325
 9525TIP3    H149990   5.056   5.536   5.570 -0.9502 -1.0807 -0.8689
 9525TIP3    H249991   5.119   5.409   5.624 -0.7916 -1.2573 -1.4689
 9526TIP3   OH249992   1.806   2.653   0.599 -0.8017 -0.7658 -0.1519
 9526TIP3    H149993   1.843   2.665   0.512  1.2050  0.5117  0.8467
 9526TIP3    H249994   1.736   2.719   0.604  1.2245  1.4203  0.3515
 9527TIP3   OH249995   2.315   1.310  11.874  0.8411 -0.1041  0.3490
 9527TIP3    H149996   2.396   1.297  11.825  1.2071  0.0477  0.9120
 9527TIP3    H249997   2.245   1.298  11.809  1.3702  1.9456 -0.6224
 9528TIP3   OH249998   0.695   2.953   4.126 -0.2332  0.1594 -0.6203
 9528TIP3    H149999   0.728   2.913   4.206  0.6167 -0.0288 -1.0497
 9528TIP3    H250000   0.608   2.986   4.149 -0.2066 -0.3473  0.2294
 9529TIP3   OH250001   1.531   0.102   0.275 -0.3336 -0.4068  0.1076
 9529TIP3    H150002   1.569   0.158   0.207 -0.6318 -0.7940 -0.3813
 9529TIP3    H250003   1.440   0.091   0.248 -1.3484  2.0874  2.2745
 9530TIP3   OH250004   0.132   5.440  15.125 -0.1530  0.0066 -0.8093
 9530TIP3    H150005   0.179   5.427  15.043 -0.7434 -0.0132 -1.1514
 9530TIP3    H250006   0.188   5.400  15.191  0.7955  0.9039 -1.0622
 9531TIP3   OH250007   0.725   6.674  12.090  0.3880 -0.8482 -0.0063
 9531TIP3    H150008   0.796   6.727  12.055 -1.9207  2.1369 -0.3696
 9531TIP3    H250009   0.735   6.589  12.046  2.3392  0.2505 -1.8018
 9532TIP3   OH250010   6.632   5.237  13.455  0.4999  0.4120  0.5558
 9532TIP3    H150011   6.564   5.294  13.490  2.1601  1.2423  2.5818
 9532TIP3    H250012   6.670   5.287  13.383 -0.6177  0.2012 -0.1872
 9533TIP3   OH250013   0.036   1.393  12.927 -0.4638 -0.2996 -0.1249
 9533TIP3    H150014   0.077   1.480  12.928  0.2730 -0.6387  1.1521
 9533TIP3    H250015   0.100   1.337  12.883  0.2940 -0.7464  1.5098
 9534TIP3   OH250016   2.794   3.573   0.281  0.1103 -0.1127 -0.0249
 9534TIP3    H150017   2.871   3.624   0.304 -0.6639  0.7792  0.5872
 9534TIP3    H250018   2.824   3.516   0.209  0.8538  1.4806 -0.9917
 9535TIP3   OH250019   4.586   6.399   0.972  0.4903  0.1699 -0.0336
 9535TIP3    H150020   4.496   6.429   0.986  0.2018 -1.7184  2.3354
 9535TIP3    H250021   4.577   6.323   0.914  0.6105  0.3630 -0.3046
 9536TIP3   OH250022   0.674   3.475   2.268  0.0195 -0.7919  0.3468
 9536TIP3    H150023   0.755   3.518   2.295  0.1108 -1.4501  1.1110
 9536TIP3    H250024   0.701   3.415   2.198 -0.0387  0.0374 -0.4010
 9537TIP3   OH250025   6.359   0.073  14.386  0.3388  0.1679 -0.3346
 9537TIP3    H150026   6.315   0.021  14.452  0.7106 -0.6974 -0.7628
 9537TIP3    H250027   6.338   0.031  14.303  1.0789  0.3816 -0.6381
 9538TIP3   OH250028   1.503   1.557  17.035 -0.2687  0.2050  0.0771
 9538TIP3    H150029   1.589   1.531  17.003  0.2178  0.3518  1.2383
 9538TIP3    H250030   1.441   1.505  16.983  0.5755 -0.9397  0.1988
 9539TIP3   OH250031   6.443   2.108   1.588 -0.3569  0.2747  0.7047
 9539TIP3    H150032   6.375   2.157   1.634 -1.3285 -1.2078  0.8937
 9539TIP3    H250033   6.432   2.132   1.496 -0.4984  0.7796  0.8519
 9540TIP3   OH250034   2.462   1.156  16.358 -0.3984  0.0265  0.2545
 9540TIP3    H150035   2.369   1.180  16.363 -0.4933 -0.5372  1.3484
 9540TIP3    H250036   2.507   1.221  16.411 -0.1221  0.5175 -0.5802
 9541TIP3   OH250037   2.815   3.258  15.911  0.2767  0.3247 -0.5228
 9541TIP3    H150038   2.845   3.307  15.988 -0.0309  1.3542 -1.0390
 9541TIP3    H250039   2.729   3.224  15.937  0.6107 -0.1670 -0.0632
 9542TIP3   OH250040   5.841   4.833   5.397 -0.3904  0.0028  0.4796
 9542TIP3    H150041   5.932   4.803   5.401 -0.2033  0.0123 -2.2504
 9542TIP3    H250042   5.794   4.775   5.457  1.5627  0.7023  2.7540
 9543TIP3   OH250043   2.659   3.497   2.346  0.3044 -0.4450 -0.1724
 9543TIP3    H150044   2.708   3.446   2.410  0.3053  1.0828  1.0657
 9543TIP3    H250045   2.615   3.432   2.292 -0.0258 -1.7483  1.6423
 9544TIP3   OH250046   3.247   6.526   0.444  0.2722  0.8505  0.2602
 9544TIP3    H150047   3.263   6.610   0.488 -1.0970  1.4500 -0.3553
 9544TIP3    H250048   3.183   6.482   0.500  1.6041 -0.1458  1.0152
 9545TIP3   OH250049   6.371   6.480  14.835  0.5767  0.3337 -0.5855
 9545TIP3    H150050   6.338   6.553  14.888 -1.0640 -0.5204 -0.3760
 9545TIP3    H250051   6.300   6.415  14.838  1.8215 -1.0783 -1.1366
 9546TIP3   OH250052   5.217   2.945   4.359 -0.7803 -0.1991  0.3978
 9546TIP3    H150053   5.195   2.886   4.432 -0.3111  0.3624  1.0008
 9546TIP3    H250054   5.287   3.000   4.394 -0.3979 -0.0708 -0.5595
 9547TIP3   OH250055   1.385   4.756  14.598 -0.3654 -0.5632 -0.8492
 9547TIP3    H150056   1.311   4.768  14.539  0.4261  2.7535 -1.2372
 9547TIP3    H250057   1.448   4.822  14.571  2.0835 -2.2502  0.5517
 9548TIP3   OH250058   1.172   6.273   1.899  0.5574  0.3015 -0.1887
 9548TIP3    H150059   1.152   6.297   1.808 -0.4931  0.6490  0.1310
 9548TIP3    H250060   1.099   6.217   1.926  0.3751  0.9810  0.7466
 9549TIP3   OH250061   1.498   2.889   5.949 -0.1744 -0.4040  0.1563
 9549TIP3    H150062   1.560   2.818   5.958 -0.4259 -0.5601  0.6281
 9549TIP3    H250063   1.468   2.883   5.858  0.5368 -0.2929 -0.0892
 9550TIP3   OH250064   3.337   3.809   4.249 -0.5405  0.2840 -0.3298
 9550TIP3    H150065   3.283   3.744   4.202 -0.3549  0.5814 -0.9690
 9550TIP3    H250066   3.390   3.757   4.309  0.6735 -0.3187 -1.8675
 9551TIP3   OH250067   4.333   1.628   0.620  0.1775  0.0076 -0.4603
 9551TIP3    H150068   4.307   1.719   0.610  0.0730  0.0402  0.0849
 9551TIP3    H250069   4.280   1.580   0.557 -1.4750  0.0283  0.8919
 9552TIP3   OH250070   1.735   0.476  13.053 -0.5218  0.3674  0.0085
 9552TIP3    H150071   1.804   0.527  13.011 -1.6287  2.3343  0.5184
 9552TIP3    H250072   1.762   0.471  13.145 -0.5810  0.2905  0.0210
 9553TIP3   OH250073   1.885   0.261  15.270  0.0672  0.0641  0.0581
 9553TIP3    H150074   1.933   0.342  15.282 -0.1087  0.4084 -1.4932
 9553TIP3    H250075   1.924   0.221  15.192 -1.0656 -0.4297 -0.2735
 9554TIP3   OH250076   3.004   5.867  16.826  0.0749 -0.3652  0.2259
 9554TIP3    H150077   2.926   5.824  16.790  0.6566 -1.5706  0.3490
 9554TIP3    H250078   3.006   5.953  16.784 -0.4907 -0.8980 -0.9242
 9555TIP3   OH250079   5.280   0.822  16.444  0.2889 -0.3657  0.3119
 9555TIP3    H150080   5.316   0.747  16.491  1.0853 -0.4188 -0.3557
 9555TIP3    H250081   5.270   0.790  16.354  2.0657  0.7650 -0.3250
 9556TIP3   OH250082   3.944   4.828  13.308  0.4416 -0.2222  0.3231
 9556TIP3    H150083   3.856   4.845  13.276  0.5857 -0.9893 -0.5286
 9556TIP3    H250084   3.955   4.887  13.382 -1.3840 -1.2836  1.4777
 9557TIP3   OH250085   3.885   1.393   1.613  0.0342 -0.2850  0.1703
 9557TIP3    H150086   3.804   1.351   1.584 -0.1603 -0.1983  0.5834
 9557TIP3    H250087   3.948   1.374   1.544 -0.7251  0.8784 -0.8670
 9558TIP3   OH250088   1.574   3.979   0.199 -0.5513  0.1089  0.6736
 9558TIP3    H150089   1.485   4.000   0.173 -0.9352 -2.2891 -0.0714
 9558TIP3    H250090   1.610   3.930   0.125  1.5859  1.5089  0.7402
 9559TIP3   OH250091   3.271   0.284   0.336  0.2622 -0.3717 -1.0531
 9559TIP3    H150092   3.282   0.295   0.242  3.8387  1.1133 -0.5511
 9559TIP3    H250093   3.221   0.361   0.363  1.1872  0.3708 -1.4334
 9560TIP3   OH250094   4.694   2.146   5.650  0.3609 -0.3322  0.1984
 9560TIP3    H150095   4.685   2.056   5.683  1.8545 -0.3181  0.6799
 9560TIP3    H250096   4.743   2.192   5.719 -2.8063  1.5971  1.2595
 9561TIP3   OH250097   6.265   3.338  16.517  0.0935 -0.0718  0.2524
 9561TIP3    H150098   6.223   3.285  16.584  2.3882 -0.0755  1.6937
 9561TIP3    H250099   6.192   3.385  16.476 -1.4588 -0.9273  1.9601
 9562TIP3   OH250100   2.908   6.409  12.207 -0.3088 -0.3810  0.1455
 9562TIP3    H150101   2.971   6.453  12.151 -0.6834 -0.3411 -0.2442
 9562TIP3    H250102   2.942   6.420  12.296 -0.7042  1.1972  0.1069
 9563TIP3   OH250103   3.183   2.581   3.758  0.2250  0.6383 -0.1676
 9563TIP3    H150104   3.185   2.659   3.703 -1.6268  0.4683 -0.5293
 9563TIP3    H250105   3.133   2.517   3.707 -1.8603  0.6009  1.8279
 9564TIP3   OH250106   5.776   5.233   0.133  0.4170  0.0367 -0.3800
 9564TIP3    H150107   5.802   5.154   0.086  2.0177 -1.0672  2.2269
 9564TIP3    H250108   5.704   5.269   0.082  0.6231 -2.2973 -2.4169
 9565TIP3   OH250109   1.864   6.428  15.775 -0.6021 -0.5348  0.5594
 9565TIP3    H150110   1.915   6.349  15.791  1.6965  0.5404 -1.0745
 9565TIP3    H250111   1.866   6.475  15.859 -0.6631 -1.4798  1.0946
 9566TIP3   OH250112   6.306   3.925  13.917  0.4897 -0.2535 -0.5980
 9566TIP3    H150113   6.343   3.927  13.829 -2.5887  0.3835 -1.9607
 9566TIP3    H250114   6.283   4.016  13.935 -0.3991 -0.6243  0.1761
 9567TIP3   OH250115   3.624   5.431  12.875 -0.6623 -0.0019  0.2504
 9567TIP3    H150116   3.563   5.461  12.943 -0.4072  0.9308  0.0738
 9567TIP3    H250117   3.601   5.483  12.798  0.8108  0.8442  0.3706
 9568TIP3   OH250118   3.730   2.718   4.745  0.0429  0.7671  0.0650
 9568TIP3    H150119   3.778   2.799   4.760  0.0567  0.4350  1.9890
 9568TIP3    H250120   3.798   2.652   4.732  0.0365  0.9855 -1.1232
 9569TIP3   OH250121   4.072   5.118   5.630 -0.1536 -0.7311 -0.1283
 9569TIP3    H150122   4.069   5.190   5.566 -0.3201 -1.8700 -1.4320
 9569TIP3    H250123   4.141   5.143   5.691  1.2698 -0.4798 -1.8086
 9570TIP3   OH250124   4.364   4.933   3.187 -0.1965 -0.4981 -0.5933
 9570TIP3    H150125   4.283   4.984   3.191 -0.7024 -1.2309 -1.2046
 9570TIP3    H250126   4.347   4.866   3.120  0.1628 -1.9460  0.7370
 9571TIP3   OH250127   4.453   4.326   5.971 -0.2091  0.5871  0.2721
 9571TIP3    H150128   4.524   4.315   5.908  1.1858  0.5422  1.8351
 9571TIP3    H250129   4.459   4.417   5.999 -0.7656  0.5845  0.4133
 9572TIP3   OH250130   2.713   1.053  16.000 -0.0839  0.1495  0.2457
 9572TIP3    H150131   2.798   1.014  15.982  0.4542  1.0207  0.8432
 9572TIP3    H250132   2.705   1.051  16.095  1.0133  3.6074  0.4722
 9573TIP3   OH250133   3.635   4.260   0.068  0.3953  0.2455  0.1612
 9573TIP3    H150134   3.636   4.165   0.083  1.5539  0.4327  1.3770
 9573TIP3    H250135   3.551   4.277   0.025  0.8708 -1.5477 -1.5787
 9574TIP3   OH250136   4.527   3.251   2.642 -0.3389 -0.3331 -0.7074
 9574TIP3    H150137   4.559   3.182   2.700 -0.3810 -0.0051 -0.2829
 9574TIP3    H250138   4.592   3.257   2.572  0.3811  0.1274 -0.0100
 9575TIP3   OH250139   1.216   1.285   2.628  0.6619  0.3617  0.0609
 9575TIP3    H150140   1.203   1.272   2.534 -1.3232  0.7064  0.2617
 9575TIP3    H250141   1.263   1.207   2.657  0.9688  0.0890 -1.1498
 9576TIP3   OH250142   4.553   1.249  14.720 -0.3194  0.3566 -0.3710
 9576TIP3    H150143   4.501   1.172  14.696 -1.5973  1.0817  0.0313
 9576TIP3    H250144   4.571   1.237  14.814  0.5108 -0.0361 -0.5692
 9577TIP3   OH250145   1.680   4.860  12.754 -0.3006 -0.3021  0.7860
 9577TIP3    H150146   1.774   4.872  12.737 -0.5417  1.6191  0.7198
 9577TIP3    H250147   1.650   4.945  12.787 -2.5667 -0.0390 -1.7513
 9578TIP3   OH250148   6.554   0.527  15.861  0.4460 -0.4629 -0.1011
 9578TIP3    H150149   6.517   0.603  15.904 -0.6503 -1.2595  0.3656
 9578TIP3    H250150   6.527   0.453  15.914  1.2363 -1.2177 -0.7279
 9579TIP3   OH250151   0.774   1.765  14.260  0.5467 -0.1929 -0.1472
 9579TIP3    H150152   0.821   1.846  14.238  0.2295  0.4507  1.4787
 9579TIP3    H250153   0.747   1.729  14.175 -1.1416  2.5156 -0.8100
 9580TIP3   OH250154   5.634   1.474  14.330  0.5253 -0.3919 -0.0921
 9580TIP3    H150155   5.578   1.550  14.317 -1.5162 -1.4740  2.0925
 9580TIP3    H250156   5.638   1.431  14.244  0.0876  1.0557 -0.8468
 9581TIP3   OH250157   5.754   3.602  11.547  0.5901  0.2312  0.3745
 9581TIP3    H150158   5.823   3.586  11.483 -0.6253  1.9492 -1.4137
 9581TIP3    H250159   5.755   3.696  11.562  0.6145 -0.0889  2.6548
 9582TIP3   OH250160   4.417   1.826  15.097  0.1763  0.0007 -0.1487
 9582TIP3    H150161   4.470   1.791  15.168  0.2742  0.6403  0.0934
 9582TIP3    H250162   4.402   1.918  15.120 -0.0400  0.1352 -0.8000
 9583TIP3   OH250163   1.202   6.595  14.398 -0.3104  0.1041 -0.2236
 9583TIP3    H150164   1.212   6.644  14.480 -1.9636 -0.2802  0.2230
 9583TIP3    H250165   1.291   6.587  14.364 -0.0465  4.2109 -0.7749
 9584TIP3   OH250166   3.563   3.949  13.075  0.2758  0.3045  0.4176
 9584TIP3    H150167   3.476   3.980  13.050 -0.0104 -0.2867  0.7014
 9584TIP3    H250168   3.549   3.896  13.153  0.6465 -1.3125 -0.5831
 9585TIP3   OH250169   4.464   4.384  13.305  0.2771 -0.0226 -0.1819
 9585TIP3    H150170   4.460   4.478  13.322 -0.3143  0.1477 -1.2128
 9585TIP3    H250171   4.374   4.354  13.314  0.5762 -0.6335  0.8756
 9586TIP3   OH250172   4.843   2.214   3.290  0.7895 -0.4914  0.3036
 9586TIP3    H150173   4.894   2.249   3.217  0.5736 -0.7924  0.0096
 9586TIP3    H250174   4.766   2.272   3.295  1.8328  0.8217  1.6338
 9587TIP3   OH250175   6.489   5.903  14.355 -0.2188  0.5886  0.4740
 9587TIP3    H150176   6.425   5.970  14.331  0.4867  1.8000  1.9246
 9587TIP3    H250177   6.500   5.851  14.275 -2.3102  0.9293 -0.0578
 9588TIP3   OH250178   6.202   0.411  16.891 -0.2018  0.3109  0.1380
 9588TIP3    H150179   6.240   0.324  16.899  1.5634  0.9947 -0.5267
 9588TIP3    H250180   6.137   0.403  16.821  1.1327 -0.0846 -1.0710
 9589TIP3   OH250181   6.135   1.592  13.925 -0.2842 -0.1874  0.0401
 9589TIP3    H150182   6.209   1.536  13.945  0.4243  0.7166 -0.0489
 9589TIP3    H250183   6.082   1.592  14.005 -0.3946 -1.1343 -0.0308
 9590TIP3   OH250184   0.460   3.467   0.688 -0.7758 -0.2212  0.0226
 9590TIP3    H150185   0.395   3.471   0.758  0.3400  0.1909  1.0565
 9590TIP3    H250186   0.424   3.523   0.619  0.1340  3.0212  2.0427
 9591TIP3   OH250187   0.174   3.703  14.424  0.8212  0.0206 -0.1894
 9591TIP3    H150188   0.227   3.630  14.456  0.7072  0.5311  1.1914
 9591TIP3    H250189   0.099   3.661  14.381  0.3627 -0.6904  1.2634
 9592TIP3   OH250190   0.532   5.660  15.439 -0.2583  0.6701  0.3637
 9592TIP3    H150191   0.504   5.577  15.478 -0.4148 -0.0109 -1.1854
 9592TIP3    H250192   0.611   5.638  15.389 -1.0519  1.1825 -1.1368
 9593TIP3   OH250193   2.410   1.914   0.621 -0.4927  0.3575 -0.1369
 9593TIP3    H150194   2.338   1.957   0.574  0.6088  0.0627 -2.1466
 9593TIP3    H250195   2.483   1.975   0.615  1.2423 -1.8846 -3.4560
 9594TIP3   OH250196   0.488   4.018   5.553 -0.1357 -0.1390 -0.5204
 9594TIP3    H150197   0.407   4.069   5.551  0.1368  0.3974  1.0033
 9594TIP3    H250198   0.516   4.013   5.462 -1.1042  0.9462 -0.8853
 9595TIP3   OH250199   2.409   6.400  17.106  0.0506  0.4742  0.0449
 9595TIP3    H150200   2.468   6.473  17.086 -1.1405  1.4545  0.0443
 9595TIP3    H250201   2.341   6.438  17.161  0.4302 -1.0601  1.6247
 9596TIP3   OH250202   6.092   4.669  14.789  0.8269  0.2240  0.5076
 9596TIP3    H150203   6.079   4.740  14.852  1.1992  0.1174  0.7068
 9596TIP3    H250204   6.135   4.600  14.840 -2.7057 -1.5405  1.2205
 9597TIP3   OH250205   4.219   2.347   5.926  0.5510  0.3895  0.1792
 9597TIP3    H150206   4.148   2.410   5.933  0.3638  0.1998  0.0008
 9597TIP3    H250207   4.286   2.378   5.987  0.5872  0.9284 -0.1334
 9598TIP3   OH250208   4.654   2.455  16.888  0.2113  0.2664  0.0884
 9598TIP3    H150209   4.656   2.509  16.808 -0.4661 -0.4100 -0.3849
 9598TIP3    H250210   4.569   2.473  16.927  0.3240  0.1724  0.3779
 9599TIP3   OH250211   0.097   0.884   0.856 -0.4501  0.9353  0.6123
 9599TIP3    H150212   0.087   0.979   0.846  0.7843  1.0254  0.2245
 9599TIP3    H250213   0.039   0.847   0.790  0.2986  1.4409 -0.3383
 9600TIP3   OH250214   0.664   6.616   3.364  0.3382  0.8558  0.4353
 9600TIP3    H150215   0.631   6.674   3.432  1.0318 -0.6550  2.0709
 9600TIP3    H250216   0.757   6.638   3.358  0.3519  0.7413  0.2129
 9601TIP3   OH250217   1.595   3.842  16.274 -0.4827 -0.4587  0.6612
 9601TIP3    H150218   1.546   3.809  16.199 -1.5260 -1.0624  1.5837
 9601TIP3    H250219   1.682   3.805  16.264 -0.1472  0.8011 -1.1215
 9602TIP3   OH250220   6.540   0.470  13.494 -0.3606  0.0803 -0.4382
 9602TIP3    H150221   6.489   0.466  13.413  1.0768 -1.4616 -1.3035
 9602TIP3    H250222   6.533   0.382  13.531 -0.3753  0.5647  0.7119
 9603TIP3   OH250223   3.512   2.836   4.218  0.0340 -0.1334  0.0273
 9603TIP3    H150224   3.569   2.759   4.225 -0.6209 -0.6977 -0.7567
 9603TIP3    H250225   3.424   2.800   4.205 -0.3189  0.7447 -0.0532
 9604TIP3   OH250226   1.749   0.352   3.986 -0.1819  0.1130 -0.6838
 9604TIP3    H150227   1.696   0.400   3.924 -1.4049  0.6258  0.7391
 9604TIP3    H250228   1.744   0.403   4.067  0.4728 -1.1259  0.1539
 9605TIP3   OH250229   5.786   6.560  12.862  0.4125  0.4604  0.2020
 9605TIP3    H150230   5.726   6.628  12.891  1.1198  1.3894 -0.4826
 9605TIP3    H250231   5.858   6.562  12.926 -0.0904 -0.3885  0.8024
 9606TIP3   OH250232   0.359   1.133  15.773 -0.4308 -0.4968  0.5838
 9606TIP3    H150233   0.427   1.119  15.708 -0.2766  0.2080  0.5932
 9606TIP3    H250234   0.343   1.046  15.811  0.6118 -0.6238  0.7353
 9607TIP3   OH250235   5.020   1.321   3.155 -0.3840  0.1380  0.1200
 9607TIP3    H150236   5.096   1.307   3.211 -1.0651 -1.9864  0.5657
 9607TIP3    H250237   5.054   1.312   3.066 -0.0116 -0.3281  0.3057
 9608TIP3   OH250238   3.330   1.960   4.190 -0.6575 -0.3207  0.2118
 9608TIP3    H150239   3.421   1.948   4.215  0.0138  1.2306 -1.3195
 9608TIP3    H250240   3.330   1.949   4.095 -2.5062 -2.7069  0.4527
 9609TIP3   OH250241   6.560   3.774   2.627 -0.3516 -0.6590 -0.3503
 9609TIP3    H150242   6.561   3.680   2.645 -1.0679 -0.8122 -1.1170
 9609TIP3    H250243   6.646   3.804   2.656 -0.3797 -1.4241  0.5644
 9610TIP3   OH250244   1.487   0.989  16.019  0.4886  0.2396 -0.5414
 9610TIP3    H150245   1.483   1.020  15.929  0.6106  1.5936 -0.0905
 9610TIP3    H250246   1.395   0.971  16.042  0.4715 -0.2411 -0.9718
 9611TIP3   OH250247   5.800   3.952  12.034 -0.0429  0.1579  0.0723
 9611TIP3    H150248   5.823   3.861  12.016  1.7563  0.8126 -1.0137
 9611TIP3    H250249   5.705   3.951  12.047  0.1560 -2.1043  1.5755
 9612TIP3   OH250250   1.355   3.201  11.627  0.2864 -1.1815 -0.5093
 9612TIP3    H150251   1.303   3.129  11.663  0.5393 -1.0043  0.2304
 9612TIP3    H250252   1.438   3.160  11.604  0.2264 -1.2408 -0.6201
 9613TIP3   OH250253   0.185   5.597  12.175 -0.4810 -0.0878  0.2992
 9613TIP3    H150254   0.234   5.659  12.120  0.7533 -0.3869  1.0567
 9613TIP3    H250255   0.223   5.512  12.154  0.5158 -0.1188  2.1552
 9614TIP3   OH250256   3.824   1.360   6.577 -0.4436  0.2838  0.2494
 9614TIP3    H150257   3.914   1.389   6.591 -0.6317  0.3894  1.2934
 9614TIP3    H250258   3.824   1.268   6.603 -0.3422 -0.0779 -1.0003
 9615TIP3   OH250259   2.544   3.344   4.967 -0.2982 -0.3695 -0.2098
 9615TIP3    H150260   2.619   3.385   5.009 -0.3698  0.8011 -1.2241
 9615TIP3    H250261   2.550   3.252   4.992  0.6592 -0.0088  0.8970
 9616TIP3   OH250262   0.550   1.324  16.371  0.4428  0.8125  0.1662
 9616TIP3    H150263   0.599   1.383  16.314  0.0772  0.0937 -0.9211
 9616TIP3    H250264   0.458   1.342  16.350  0.3378 -0.6994 -0.7990
 9617TIP3   OH250265   4.324   5.556   2.762 -0.5340  0.3505 -0.8834
 9617TIP3    H150266   4.360   5.596   2.683 -1.8964  2.9017 -0.2605
 9617TIP3    H250267   4.244   5.512   2.732 -2.4203  3.4405 -0.5718
 9618TIP3   OH250268   0.862   4.190   1.886 -0.0406 -0.2734 -0.2098
 9618TIP3    H150269   0.794   4.159   1.945  1.7354 -1.4657  1.2531
 9618TIP3    H250270   0.921   4.116   1.876  0.6443  0.4794 -2.1095
 9619TIP3   OH250271   6.567   2.232  11.120 -0.0345  0.2295  0.4604
 9619TIP3    H150272   6.512   2.227  11.042  0.0016  0.4175  0.4207
 9619TIP3    H250273   6.623   2.155  11.116  1.1878  1.1528 -0.6311
 9620TIP3   OH250274   3.292   6.122   5.547 -0.0979  0.0722 -0.0797
 9620TIP3    H150275   3.382   6.106   5.517  0.6207  0.2849  1.9166
 9620TIP3    H250276   3.302   6.170   5.629 -2.0467 -0.2420  0.3618
 9621TIP3   OH250277   0.041   5.807  15.321  0.4747  0.4573 -0.1211
 9621TIP3    H150278   0.072   5.898  15.323 -0.9781  0.9720 -0.2606
 9621TIP3    H250279   0.121   5.754  15.323  1.3385  1.7394 -0.1507
 9622TIP3   OH250280   1.534   1.257  10.691 -0.0701 -0.0934 -1.0917
 9622TIP3    H150281   1.522   1.316  10.616 -0.3415  1.8262  0.4264
 9622TIP3    H250282   1.445   1.245  10.726  0.1027 -0.7153 -0.8564
 9623TIP3   OH250283   6.766   0.071   0.037 -0.0460 -0.3919 -0.1932
 9623TIP3    H150284   6.777   0.041  -0.053 -1.3444  0.8371 -0.7671
 9623TIP3    H250285   6.678   0.041   0.062 -0.0419  0.0493  0.3618
 9624TIP3   OH250286   1.402   4.199  13.734 -0.7715  0.0538 -0.4849
 9624TIP3    H150287   1.475   4.253  13.703  0.5687 -0.8297  1.0319
 9624TIP3    H250288   1.390   4.134  13.664  1.3206 -1.0939  0.1850
 9625TIP3   OH250289   2.173   4.088  11.852 -0.0920 -0.3178  0.0146
 9625TIP3    H150290   2.126   4.093  11.935  1.7071  0.3232  1.0123
 9625TIP3    H250291   2.240   4.021  11.866 -0.3795 -0.9024 -1.2545
 9626TIP3   OH250292   5.496   0.635   0.995 -0.2526 -0.3353  0.4156
 9626TIP3    H150293   5.591   0.643   1.006 -0.4562  3.7654 -0.2422
 9626TIP3    H250294   5.463   0.626   1.084  0.5734  0.7270  0.8414
 9627TIP3   OH250295   5.888   4.192  16.345 -0.1703 -0.6727 -0.3814
 9627TIP3    H150296   5.964   4.180  16.403 -0.9107 -0.7015  0.6034
 9627TIP3    H250297   5.911   4.268  16.292 -0.4165  0.7983  1.5493
 9628TIP3   OH250298   2.708   4.868   4.062 -0.3291  0.5375  0.4243
 9628TIP3    H150299   2.676   4.907   4.143  2.1110  3.2438  0.1510
 9628TIP3    H250300   2.803   4.870   4.070 -0.0114  1.6668 -2.8559
 9629TIP3   OH250301   5.768   0.705   0.677  0.0043  0.3401  0.3673
 9629TIP3    H150302   5.811   0.690   0.762  0.4813  0.3158  0.1206
 9629TIP3    H250303   5.818   0.776   0.637  1.1905 -1.1811 -0.8764
 9630TIP3   OH250304   5.961   1.566  16.797 -0.8399 -0.0200 -0.1024
 9630TIP3    H150305   5.915   1.633  16.748 -4.0182 -2.1435 -0.1494
 9630TIP3    H250306   5.895   1.528  16.855  1.4184 -1.5470  1.5708
 9631TIP3   OH250307   5.550   2.527   5.857  0.0789  0.0602 -0.1178
 9631TIP3    H150308   5.570   2.435   5.839  0.8114 -0.1010  1.3927
 9631TIP3    H250309   5.629   2.561   5.900 -0.1214  1.4428 -0.8082
 9632TIP3   OH250310   6.257   5.766   2.695  0.0282 -0.3518  0.2732
 9632TIP3    H150311   6.189   5.699   2.689  0.0606 -0.3542 -0.0600
 9632TIP3    H250312   6.311   5.754   2.616  0.2218 -0.1405  0.3704
 9633TIP3   OH250313   0.726   6.645  15.965 -0.0158  0.3096  0.0334
 9633TIP3    H150314   0.736   6.563  15.916 -0.3925  0.9121 -1.0529
 9633TIP3    H250315   0.743   6.714  15.901 -1.8983  1.1458  0.4128
 9634TIP3   OH250316   6.331   5.757   2.187 -0.5629 -0.6753  0.3600
 9634TIP3    H150317   6.352   5.738   2.278  0.4792 -0.9459  0.0642
 9634TIP3    H250318   6.415   5.758   2.142 -0.9426  0.8164 -0.3542
 9635TIP3   OH250319   0.071   0.147  11.378 -0.3356  0.1800 -0.1699
 9635TIP3    H150320   0.121   0.066  11.389 -1.0209 -0.2971 -0.4825
 9635TIP3    H250321   0.137   0.213  11.355  0.2989 -0.1608  0.6432
 9636TIP3   OH250322   0.185   2.220   3.384 -0.5219 -0.6317  0.5379
 9636TIP3    H150323   0.279   2.212   3.401  0.3306  1.7419 -2.5326
 9636TIP3    H250324   0.175   2.188   3.294 -2.3408  0.8981  0.1803
 9637TIP3   OH250325   2.657   5.033   4.265  0.5958 -0.1844 -0.1650
 9637TIP3    H150326   2.568   5.007   4.287 -0.2381  2.7569  0.1444
 9637TIP3    H250327   2.684   5.091   4.337  2.3248 -0.1103 -0.8325
 9638TIP3   OH250328   5.470   4.160  12.572  0.0680  0.5239  0.2486
 9638TIP3    H150329   5.535   4.229  12.561  0.6253 -0.3696 -2.5467
 9638TIP3    H250330   5.522   4.079  12.580 -0.6536  0.0159 -0.1578
 9639TIP3   OH250331   3.964   2.433  11.416 -0.0248 -0.2953 -0.9281
 9639TIP3    H150332   4.013   2.469  11.341  0.5155 -1.3169 -1.0655
 9639TIP3    H250333   3.985   2.340  11.416  0.2963 -0.2423  0.7390
 9640TIP3   OH250334   4.793   4.628   5.159  0.1024 -0.0795  0.4694
 9640TIP3    H150335   4.774   4.719   5.137  1.0875 -0.1140 -0.5491
 9640TIP3    H250336   4.707   4.588   5.172 -0.4525  0.3554 -1.7139
 9641TIP3   OH250337   6.355   3.266  15.605  0.1776 -0.5824  0.1665
 9641TIP3    H150338   6.309   3.270  15.689  1.1695 -0.4501  0.7162
 9641TIP3    H250339   6.443   3.298  15.625 -0.2103  1.5432 -1.3796
 9642TIP3   OH250340   3.259   3.450   0.409 -0.1886 -0.2150  0.3666
 9642TIP3    H150341   3.316   3.458   0.333 -0.5086 -0.0771  0.1390
 9642TIP3    H250342   3.170   3.454   0.373 -0.3402  0.1302  0.7783
 9643TIP3   OH250343   3.459   5.901  10.999 -0.2807 -0.3452 -0.5696
 9643TIP3    H150344   3.485   5.966  11.065 -0.4592  1.4780 -2.2201
 9643TIP3    H250345   3.412   5.834  11.048  2.6202 -0.8462  1.6712
 9644TIP3   OH250346   6.064   5.898  11.317  0.0118 -0.4835 -0.3290
 9644TIP3    H150347   6.101   5.983  11.292 -0.1932  0.6987  3.0445
 9644TIP3    H250348   6.127   5.862  11.380 -1.3642 -1.4442  0.5297
 9645TIP3   OH250349   4.064   1.417  13.621  0.1526 -0.0308 -0.1636
 9645TIP3    H150350   4.137   1.356  13.629 -0.9287 -1.2955  0.1713
 9645TIP3    H250351   4.007   1.379  13.555  0.5736  1.7824 -1.6107
 9646TIP3   OH250352   0.927   6.639   3.366 -0.3691 -0.7879 -0.5935
 9646TIP3    H150353   1.003   6.581   3.360  0.9054  0.8103 -0.3985
 9646TIP3    H250354   0.960   6.715   3.414 -2.6069 -0.8860  1.1581
 9647TIP3   OH250355   6.530   1.006   1.569 -0.3506  0.2964  0.0505
 9647TIP3    H150356   6.492   1.000   1.657 -0.9218  2.0840 -0.0528
 9647TIP3    H250357   6.457   0.987   1.511 -0.7917  2.3680 -0.1099
 9648TIP3   OH250358   4.392   0.687  16.772 -0.1811 -0.0436 -0.3077
 9648TIP3    H150359   4.332   0.707  16.700 -1.3112 -0.0331  0.6246
 9648TIP3    H250360   4.425   0.772  16.800  0.2420 -0.0457 -0.7972
 9649TIP3   OH250361   3.855   0.511   1.997 -0.0352  0.0423 -0.6162
 9649TIP3    H150362   3.923   0.542   1.937  1.7826 -0.2992  1.2487
 9649TIP3    H250363   3.841   0.584   2.057 -1.5299  0.2124 -1.1538
 9650TIP3   OH250364   6.297   4.342  16.686 -0.6127 -0.2572 -0.0218
 9650TIP3    H150365   6.243   4.284  16.740  1.9429 -0.6062  2.2511
 9650TIP3    H250366   6.378   4.292  16.672  1.1903  2.2769  1.0456
 9651TIP3   OH250367   4.134   6.299   2.297 -0.2670 -0.1968 -0.2807
 9651TIP3    H150368   4.107   6.212   2.267  0.1567  0.1047 -1.5655
 9651TIP3    H250369   4.228   6.302   2.278 -0.3968  0.7544 -0.7706
 9652TIP3   OH250370   1.820   1.677  14.146  0.4316 -0.1164 -0.0993
 9652TIP3    H150371   1.886   1.695  14.213  0.7927 -0.8497 -0.2598
 9652TIP3    H250372   1.870   1.661  14.066  0.1052 -1.6787  0.0012
 9653TIP3   OH250373   2.880   0.749   4.134  0.1514 -0.5430 -0.1321
 9653TIP3    H150374   2.938   0.820   4.107 -1.0524  0.2331 -0.6838
 9653TIP3    H250375   2.828   0.786   4.205 -1.1669 -0.5526 -1.0785
 9654TIP3   OH250376   1.968   1.287  17.091 -0.1720 -0.0369 -0.5866
 9654TIP3    H150377   1.998   1.205  17.131 -1.2755 -0.7405 -1.1863
 9654TIP3    H250378   1.879   1.268  17.063 -0.4034  1.3565 -0.7906
 9655TIP3   OH250379   1.692   1.070  15.232 -0.0170  0.0287 -0.0647
 9655TIP3    H150380   1.746   1.075  15.153  0.0334  0.6470  0.0050
 9655TIP3    H250381   1.602   1.079  15.201 -0.0028  0.1802 -0.0617
 9656TIP3   OH250382   0.989   3.939   4.107  0.4144 -0.1907  0.0898
 9656TIP3    H150383   0.948   4.005   4.051  1.1411  0.6082  0.4974
 9656TIP3    H250384   1.005   3.984   4.189  0.9832 -0.8603  0.3488
 9657TIP3   OH250385   1.589   4.200  11.577  0.0252 -0.3202  0.1119
 9657TIP3    H150386   1.576   4.124  11.520 -1.3288 -0.3561  0.4471
 9657TIP3    H250387   1.516   4.258  11.555  0.4906  0.4322  0.5749
 9658TIP3   OH250388   5.027   2.025   4.591  0.0513 -0.2032 -0.0447
 9658TIP3    H150389   5.062   1.941   4.620 -0.5881 -0.5613 -0.3004
 9658TIP3    H250390   4.941   2.031   4.633 -0.7784 -0.6109 -1.6424
 9659TIP3   OH250391   0.644   6.523  15.470  0.4539 -0.4742  0.0030
 9659TIP3    H150392   0.723   6.468  15.465 -0.6115 -1.9030 -1.6984
 9659TIP3    H250393   0.591   6.495  15.395 -0.9608  1.5911  0.1999
 9660TIP3   OH250394   2.745   2.831   2.517 -0.0259 -0.5025 -0.0562
 9660TIP3    H150395   2.658   2.818   2.554 -0.9582  0.3071 -1.9282
 9660TIP3    H250396   2.805   2.795   2.583 -1.8290 -2.1956  0.7003
 9661TIP3   OH250397   5.596   2.660   1.563  0.2765  0.0734  0.8436
 9661TIP3    H150398   5.575   2.753   1.559  0.8025  0.0974 -3.2580
 9661TIP3    H250399   5.692   2.657   1.558  0.2613 -0.7194  0.9618
 9662TIP3   OH250400   6.709   0.177   1.593  0.0245 -0.0244 -0.0974
 9662TIP3    H150401   6.740   0.194   1.682 -0.6165 -1.7860  0.4753
 9662TIP3    H250402   6.718   0.083   1.582 -1.7060 -0.0803 -1.2243
 9663TIP3   OH250403   1.366   4.189   0.784  0.0751 -0.0818  0.1967
 9663TIP3    H150404   1.438   4.128   0.775 -0.1778 -0.4573  0.6864
 9663TIP3    H250405   1.287   4.135   0.780 -0.2716  0.5581 -2.5046
 9664TIP3   OH250406   6.604   4.031   0.429 -0.4000  0.5879 -0.1884
 9664TIP3    H150407   6.645   4.116   0.450 -0.4716  0.6764 -0.4089
 9664TIP3    H250408   6.540   4.018   0.499  1.1425 -0.3292  1.0913
 9665TIP3   OH250409   3.402   0.087   1.577  0.6811 -0.3651  0.0375
 9665TIP3    H150410   3.306   0.080   1.579  0.6021  0.5392 -0.1034
 9665TIP3    H250411   3.419   0.154   1.510  1.4771 -1.5626 -0.9763
 9666TIP3   OH250412   5.222   2.530  16.380 -0.1947  0.0710  0.1056
 9666TIP3    H150413   5.168   2.452  16.371  0.9857 -0.5493 -1.8011
 9666TIP3    H250414   5.190   2.590  16.312  0.0751  0.5487  0.3942
 9667TIP3   OH250415   3.763   0.002  12.061 -0.0640  0.4096 -0.2599
 9667TIP3    H150416   3.828  -0.002  12.131 -0.9105 -1.9473  0.4540
 9667TIP3    H250417   3.681  -0.026  12.103 -0.5473 -1.2102 -2.2095
 9668TIP3   OH250418   5.419   6.132  12.012  0.0470  0.0802 -0.5614
 9668TIP3    H150419   5.343   6.178  11.977  0.3049 -0.6883 -2.1674
 9668TIP3    H250420   5.409   6.042  11.981  0.2479 -0.6423  1.4239
 9669TIP3   OH250421   1.504   6.166   6.707 -0.2309  0.5033 -0.1745
 9669TIP3    H150422   1.573   6.187   6.645  1.4955 -1.6050  0.9564
 9669TIP3    H250423   1.484   6.074   6.690 -2.0854  0.8081  0.1884
 9670TIP3   OH250424   5.419   0.952  11.072 -0.4424  0.0685 -0.1367
 9670TIP3    H150425   5.468   0.899  11.134 -0.0672  0.8783  0.2689
 9670TIP3    H250426   5.485   0.984  11.010 -0.5571  0.6129  0.0180
 9671TIP3   OH250427   3.125   0.231   3.104 -0.3628  0.0539 -0.1864
 9671TIP3    H150428   3.110   0.312   3.152  1.2663 -1.0577  2.2812
 9671TIP3    H250429   3.086   0.163   3.159  0.8156 -1.1469 -0.8036
 9672TIP3   OH250430   2.649   6.438   1.427 -0.4719  0.0967  0.5300
 9672TIP3    H150431   2.577   6.499   1.420 -1.7133 -1.2696  1.0932
 9672TIP3    H250432   2.674   6.440   1.520 -2.0415 -1.9197  1.0281
 9673TIP3   OH250433   2.134   2.537  11.010 -0.1273 -0.0160  0.1818
 9673TIP3    H150434   2.198   2.468  11.030 -0.0947  0.0452  0.2935
 9673TIP3    H250435   2.138   2.548  10.915  0.1500  0.1054  0.2058
 9674TIP3   OH250436   0.600   2.868  13.613  0.3310 -0.1832  0.6453
 9674TIP3    H150437   0.541   2.919  13.670 -0.0446 -0.0867  0.1705
 9674TIP3    H250438   0.550   2.856  13.532  0.8727 -0.3139  0.3348
 9675TIP3   OH250439   4.972   2.825   1.200  0.0235  0.1660  0.1036
 9675TIP3    H150440   4.955   2.822   1.106  1.5538 -0.1942 -0.1805
 9675TIP3    H250441   5.017   2.742   1.218  1.6655  1.1697  0.7386
 9676TIP3   OH250442   2.761   3.137   4.452  0.3772  0.1413  0.0750
 9676TIP3    H150443   2.741   3.045   4.433  1.3279 -0.0908  0.1504
 9676TIP3    H250444   2.800   3.170   4.371 -1.6081  0.9937 -0.5628
 9677TIP3   OH250445   1.779   1.486  15.698 -0.8184 -0.2814 -0.9296
 9677TIP3    H150446   1.855   1.540  15.721 -0.2335 -1.9021  1.1227
 9677TIP3    H250447   1.709   1.549  15.680 -0.3168  1.1943  1.9869
 9678TIP3   OH250448   6.292   5.487  14.549 -0.2503  0.4079  0.5915
 9678TIP3    H150449   6.322   5.404  14.587 -0.5799 -0.2101 -0.4421
 9678TIP3    H250450   6.198   5.489  14.568 -0.3487  0.2625  0.1528
 9679TIP3   OH250451   4.116   0.431  11.748  0.0206  0.2427 -0.4027
 9679TIP3    H150452   4.026   0.437  11.780 -1.0007 -0.1904 -3.0767
 9679TIP3    H250453   4.137   0.520  11.719  0.9415  0.6286  1.3123
 9680TIP3   OH250454   1.033   5.057  14.329 -0.4250 -0.2782  0.1958
 9680TIP3    H150455   0.995   4.996  14.267  2.2307 -1.9838  0.1747
 9680TIP3    H250456   1.052   5.135  14.277 -0.3662 -0.8367 -0.6285
 9681TIP3   OH250457   3.896   1.502  14.284 -0.2373  0.5216 -0.1251
 9681TIP3    H150458   3.991   1.489  14.277 -0.6378 -2.8267 -0.0598
 9681TIP3    H250459   3.871   1.533  14.196  0.5006 -1.6245 -1.1273
 9682TIP3   OH250460   5.639   2.253   5.252  1.1014 -0.4181  0.1015
 9682TIP3    H150461   5.635   2.207   5.167  0.6987 -1.3824  0.6293
 9682TIP3    H250462   5.547   2.268   5.275  1.2257  0.2911  0.1315
 9683TIP3   OH250463   4.888   1.188   3.410 -0.4434  0.3372 -0.1727
 9683TIP3    H150464   4.869   1.106   3.454 -0.6678  0.3063 -0.3291
 9683TIP3    H250465   4.873   1.170   3.317  0.5956  0.2344 -0.3281
 9684TIP3   OH250466   2.976   1.930   5.068 -0.7387  0.2373 -0.1702
 9684TIP3    H150467   3.025   2.008   5.095  0.3244 -0.9267  1.3310
 9684TIP3    H250468   3.007   1.911   4.980  0.6784  0.2016  0.3249
 9685TIP3   OH250469   4.818   1.977   6.902  0.1539 -0.5816  0.4143
 9685TIP3    H150470   4.787   1.905   6.847 -0.6284  0.5868 -0.6983
 9685TIP3    H250471   4.765   2.052   6.876 -0.6066 -0.0949  3.1223
 9686TIP3   OH250472   1.474   2.321  13.705  0.2668  0.0345  0.6126
 9686TIP3    H150473   1.567   2.305  13.694  0.1213  0.4486 -1.3200
 9686TIP3    H250474   1.435   2.233  13.709  0.5651 -0.1290 -0.0987
 9687TIP3   OH250475   5.349   6.459  14.638  1.2509  0.6795  0.3001
 9687TIP3    H150476   5.319   6.442  14.727 -0.5393  1.1330 -0.1950
 9687TIP3    H250477   5.418   6.395  14.623  0.6534 -0.2715  1.5507
 9688TIP3   OH250478   2.492   5.376  15.672 -0.1474 -0.1187 -0.1168
 9688TIP3    H150479   2.457   5.345  15.756  0.3975 -4.0498 -1.2360
 9688TIP3    H250480   2.581   5.343  15.670 -0.7620 -1.8049 -3.0414
 9689TIP3   OH250481   4.306   6.207   0.756 -0.2155 -0.4832  0.1293
 9689TIP3    H150482   4.253   6.132   0.783 -0.9031 -0.2945 -0.6816
 9689TIP3    H250483   4.244   6.280   0.750  0.1029 -0.2999 -0.9792
 9690TIP3   OH250484   5.341   3.440   2.394  0.3867 -0.1177  0.0115
 9690TIP3    H150485   5.265   3.486   2.358  1.9988  1.4210 -1.5211
 9690TIP3    H250486   5.320   3.427   2.486 -1.3366  1.1398 -0.1904
 9691TIP3   OH250487   2.374   4.390   2.953  0.2963  0.0620  0.1835
 9691TIP3    H150488   2.334   4.477   2.959 -1.6240 -0.8372  0.8331
 9691TIP3    H250489   2.363   4.364   2.862  0.2601  0.2185  0.1439
 9692TIP3   OH250490   3.988   6.200   0.562  0.1989 -0.0025 -0.3379
 9692TIP3    H150491   4.029   6.275   0.604  2.7175 -0.9750 -0.9115
 9692TIP3    H250492   3.894   6.214   0.572  0.6774  1.7965  2.0043
 9693TIP3   OH250493   6.281   2.869  14.784  0.2253 -0.1327  0.1179
 9693TIP3    H150494   6.366   2.913  14.782 -0.3506  0.9411 -1.5439
 9693TIP3    H250495   6.222   2.928  14.738 -0.9314 -1.9078 -0.7344
 9694TIP3   OH250496   6.174   2.640  11.406 -0.0953 -0.0126  0.3643
 9694TIP3    H150497   6.231   2.671  11.476  0.1551 -0.7755  0.4938
 9694TIP3    H250498   6.205   2.552  11.386 -0.4490  0.0286 -0.3975
 9695TIP3   OH250499   2.006   3.065  14.641 -0.1538 -0.2267  0.2982
 9695TIP3    H150500   2.041   3.152  14.659  0.3707 -0.2489 -0.5814
 9695TIP3    H250501   1.911   3.078  14.633  0.0227  0.4184 -0.7343
 9696TIP3   OH250502   6.731   2.216   5.904  0.1825  0.3769  0.1645
 9696TIP3    H150503   6.689   2.195   5.987 -1.5201  1.4537 -0.4023
 9696TIP3    H250504   6.778   2.136   5.880 -1.2156 -0.7193  1.0098
 9697TIP3   OH250505   3.180   0.852  12.919  0.2855  0.2119  0.3745
 9697TIP3    H150506   3.135   0.917  12.864 -0.7348  1.0202  2.1288
 9697TIP3    H250507   3.259   0.896  12.949 -0.2327  0.5438  1.2815
 9698TIP3   OH250508   5.743   2.731   2.810  0.1348  0.1053 -0.3168
 9698TIP3    H150509   5.832   2.764   2.818  0.1541 -0.1373  0.4397
 9698TIP3    H250510   5.688   2.805   2.837  0.1815 -0.5093  1.4990
 9699TIP3   OH250511   4.087   5.747   5.210  0.0337  0.3405 -0.6425
 9699TIP3    H150512   4.093   5.817   5.275 -2.5655 -0.0875  0.1277
 9699TIP3    H250513   4.023   5.686   5.246  0.3043 -1.1033 -2.5205
 9700TIP3   OH250514   2.464   5.758   0.341  0.5799  0.2178 -0.1533
 9700TIP3    H150515   2.478   5.667   0.318  2.0302  0.3472  0.1543
 9700TIP3    H250516   2.453   5.803   0.257 -0.1185 -0.2218 -0.3040
 9701TIP3   OH250517   1.948   3.515   2.970  0.3189  0.2936 -0.3541
 9701TIP3    H150518   1.959   3.574   2.895 -0.9468  1.2293  0.1873
 9701TIP3    H250519   1.903   3.567   3.036  1.5450 -0.4831  1.1286
 9702TIP3   OH250520   2.900   4.134  16.616  0.2260 -0.0655  0.1901
 9702TIP3    H150521   2.886   4.074  16.689  0.9038 -0.3224  0.1029
 9702TIP3    H250522   2.939   4.212  16.656 -0.2888  0.1660  0.2461
 9703TIP3   OH250523   0.766   1.455   4.867  0.8314  0.3524  0.2012
 9703TIP3    H150524   0.765   1.426   4.775 -1.0396  1.1779 -0.0525
 9703TIP3    H250525   0.768   1.374   4.918 -0.7959 -0.1807 -0.5460
 9704TIP3   OH250526   0.446   0.694   5.890 -0.8980  0.0921  0.1247
 9704TIP3    H150527   0.486   0.748   5.823  2.4008 -3.2482 -0.8154
 9704TIP3    H250528   0.470   0.736   5.973  1.9305 -0.0558 -0.5706
 9705TIP3   OH250529   3.714   2.483   2.221  0.8976 -0.0922 -0.3474
 9705TIP3    H150530   3.650   2.468   2.291 -0.0586 -1.2862 -1.4456
 9705TIP3    H250531   3.699   2.573   2.194 -0.0196 -0.2094 -0.2713
 9706TIP3   OH250532   6.570   3.770  14.509  0.4379 -0.2089 -0.0245
 9706TIP3    H150533   6.537   3.835  14.447 -0.6462 -1.3003 -0.6157
 9706TIP3    H250534   6.497   3.755  14.569  0.3645 -1.5205 -0.4213
 9707TIP3   OH250535   0.679   1.230  14.839  0.2505 -0.2307 -0.0595
 9707TIP3    H150536   0.713   1.317  14.819  0.5014 -0.5151 -0.9261
 9707TIP3    H250537   0.631   1.205  14.760  0.7477 -1.1533 -0.0760
 9708TIP3   OH250538   6.293   2.773  13.517 -0.2445  0.0178 -0.2521
 9708TIP3    H150539   6.326   2.863  13.529 -2.2343  0.4389  2.6354
 9708TIP3    H250540   6.261   2.771  13.427  1.8432  1.5149 -1.0646
 9709TIP3   OH250541   4.167   6.652  11.989  0.7836  0.2777 -0.2843
 9709TIP3    H150542   4.236   6.591  11.962  0.0670 -0.6617 -0.0249
 9709TIP3    H250543   4.149   6.628  12.080  0.1395  0.5458 -0.3446
 9710TIP3   OH250544   0.158   1.540   5.195  0.0850 -0.5706 -0.3406
 9710TIP3    H150545   0.154   1.558   5.101 -1.4627 -2.9839 -0.7886
 9710TIP3    H250546   0.090   1.595   5.233  0.8581  0.5718 -0.5863
 9711TIP3   OH250547   2.674   6.544   4.814  0.1868 -0.1648 -0.4238
 9711TIP3    H150548   2.622   6.603   4.869  1.2515  1.0201 -0.6440
 9711TIP3    H250549   2.640   6.558   4.726  1.8789  1.8216 -0.8203
 9712TIP3   OH250550   1.399   1.341  12.082  0.4648  0.0114 -0.8181
 9712TIP3    H150551   1.343   1.373  12.011  2.3240  0.2526 -2.2121
 9712TIP3    H250552   1.447   1.268  12.043  0.3732 -0.8567  0.6743
 9713TIP3   OH250553   5.724   2.152   3.437 -0.3164  0.1747 -0.3157
 9713TIP3    H150554   5.781   2.080   3.413 -1.1148 -0.3099 -0.8112
 9713TIP3    H250555   5.650   2.145   3.377 -1.2597  0.3383  0.8037
 9714TIP3   OH250556   6.572   6.291  11.515  0.0521  0.1640 -0.3795
 9714TIP3    H150557   6.650   6.255  11.558 -1.1009 -0.7169  1.0098
 9714TIP3    H250558   6.515   6.215  11.502 -2.0345  1.3276  1.7318
 9715TIP3   OH250559   4.829   1.588  11.859  0.2416 -0.1797 -0.0807
 9715TIP3    H150560   4.859   1.572  11.949 -0.6425  0.6602  0.3769
 9715TIP3    H250561   4.864   1.515  11.809  0.4286 -0.8661  1.0224
 9716TIP3   OH250562   4.308   4.346  14.650  0.2037 -0.2886  0.1794
 9716TIP3    H150563   4.319   4.291  14.728 -0.7293 -1.9986 -0.8765
 9716TIP3    H250564   4.239   4.304  14.600  0.6288  0.9296 -1.4849
 9717TIP3   OH250565   3.412   3.395   1.001 -0.3237  0.3948 -0.5929
 9717TIP3    H150566   3.341   3.332   1.014 -0.1588  0.0445 -1.3462
 9717TIP3    H250567   3.371   3.480   1.016 -0.5116  0.1050  0.5675
 9718TIP3   OH250568   3.639   1.783  11.776 -0.4836  1.1480  0.1115
 9718TIP3    H150569   3.726   1.823  11.772  0.1298 -0.1187  0.5913
 9718TIP3    H250570   3.581   1.856  11.798  0.4232  2.0380 -0.3644
 9719TIP3   OH250571   4.512   3.429  12.920 -0.1108 -0.1068  0.5928
 9719TIP3    H150572   4.605   3.417  12.901 -0.3459 -0.0529 -0.6235
 9719TIP3    H250573   4.469   3.356  12.875 -0.8294  0.9669 -0.5035
 9720TIP3   OH250574   4.033   2.108   0.262 -0.8491  0.3113 -0.0356
 9720TIP3    H150575   4.121   2.081   0.238 -0.8125 -0.3718  0.8673
 9720TIP3    H250576   4.003   2.042   0.325 -1.7775  0.8617  0.1133
 9721TIP3   OH250577   2.661   6.298   0.196  0.0709  0.4039  0.3468
 9721TIP3    H150578   2.736   6.293   0.136  0.5632 -0.7583  1.0362
 9721TIP3    H250579   2.676   6.379   0.245  0.8917  0.1691  0.4945
 9722TIP3   OH250580   3.982   0.265   4.836  0.1172  0.1183 -0.1947
 9722TIP3    H150581   3.916   0.198   4.856  0.1962  0.2213  0.4262
 9722TIP3    H250582   4.057   0.216   4.804 -0.2671  0.0005 -0.9225
 9723TIP3   OH250583   5.024   5.717   0.879  0.1642 -0.3424  0.2068
 9723TIP3    H150584   5.034   5.675   0.794 -0.2295  1.9209 -0.9967
 9723TIP3    H250585   4.929   5.724   0.892  0.2245 -0.3012  0.6475
 9724TIP3   OH250586   2.458   5.921  17.073 -0.0636 -0.1850 -0.0912
 9724TIP3    H150587   2.475   5.996  17.016  2.1049 -0.6483 -0.0980
 9724TIP3    H250588   2.474   5.955  17.162 -0.4121 -0.2799  0.0068
 9725TIP3   OH250589   0.694   1.957   0.818 -0.0379 -0.4554 -0.4625
 9725TIP3    H150590   0.720   2.048   0.830 -0.4989 -0.1792 -1.4806
 9725TIP3    H250591   0.732   1.911   0.893  0.5180  0.5051 -0.1422
 9726TIP3   OH250592   0.025   0.800   0.393 -0.5944  0.4742  0.1161
 9726TIP3    H150593  -0.060   0.764   0.369 -1.4871  1.0669  2.2268
 9726TIP3    H250594   0.053   0.748   0.468  0.8430  0.4094 -0.4420
 9727TIP3   OH250595   1.707   5.275  13.447  0.2207  0.3821 -0.3704
 9727TIP3    H150596   1.752   5.339  13.502  1.4742 -2.0976  1.5917
 9727TIP3    H250597   1.775   5.216  13.418 -1.3341 -1.8687  0.4317
 9728TIP3   OH250598   4.614   4.003   1.736 -0.2977 -0.1104 -0.5456
 9728TIP3    H150599   4.640   3.975   1.648 -1.1863  1.9841 -1.5265
 9728TIP3    H250600   4.572   3.926   1.774  1.5462 -1.5457 -1.3230
 9729TIP3   OH250601   3.518   5.373  16.454 -0.4968 -0.0120  0.5964
 9729TIP3    H150602   3.491   5.295  16.503 -0.1078  0.0045  0.8333
 9729TIP3    H250603   3.511   5.444  16.517 -1.1990  0.2057  0.2804
 9730TIP3   OH250604   6.046   0.472  14.254  0.2727 -0.1594 -0.2641
 9730TIP3    H150605   6.099   0.507  14.182  0.4494 -1.1888 -0.6395
 9730TIP3    H250606   5.957   0.503  14.235  0.1354 -1.2417 -1.4829
 9731TIP3   OH250607   5.845   0.683   5.681  0.0362 -0.2987  0.3285
 9731TIP3    H150608   5.801   0.648   5.604 -3.6066  1.3866  1.5422
 9731TIP3    H250609   5.835   0.614   5.748  0.5401 -0.4892  0.2166
 9732TIP3   OH250610   6.553   0.293  15.057  0.0624 -0.2618 -0.0411
 9732TIP3    H150611   6.481   0.269  15.115 -0.5713  0.5766 -0.4818
 9732TIP3    H250612   6.537   0.243  14.976 -1.3952  1.7773 -1.0524
 9733TIP3   OH250613   3.865   1.128   3.480  0.2125  0.3594  0.0301
 9733TIP3    H150614   3.786   1.095   3.436  0.1206 -0.3613  0.7275
 9733TIP3    H250615   3.879   1.214   3.442 -0.6469  0.2978 -0.4421
 9734TIP3   OH250616   2.835   6.470   5.439 -1.1902 -0.2382 -0.0532
 9734TIP3    H150617   2.754   6.496   5.483 -0.4672  2.6277 -0.3610
 9734TIP3    H250618   2.809   6.454   5.348 -1.3161  1.2142 -0.2762
 9735TIP3   OH250619   2.846   3.322   5.995  0.0104  0.3865 -0.5075
 9735TIP3    H150620   2.846   3.310   6.090  1.1993 -0.2088 -0.5686
 9735TIP3    H250621   2.873   3.413   5.982 -0.5539  0.5922 -0.2724
 9736TIP3   OH250622   6.675   1.636   2.461 -0.2273 -0.2460  0.0908
 9736TIP3    H150623   6.631   1.670   2.539  1.0816  0.2050  0.6535
 9736TIP3    H250624   6.728   1.709   2.430  2.7754 -1.7372  1.4131
 9737TIP3   OH250625   2.559   1.931  15.043 -0.7256  0.0416 -0.3899
 9737TIP3    H150626   2.618   1.989  15.091 -1.0984  0.0664  0.0413
 9737TIP3    H250627   2.523   1.986  14.974 -0.9174  0.2718 -0.1117
 9738TIP3   OH250628   4.693   2.058   2.858  0.5969 -0.2066 -0.8418
 9738TIP3    H150629   4.735   2.068   2.943 -0.9724  1.6396 -0.2551
 9738TIP3    H250630   4.663   1.967   2.857  0.5329 -0.2062  0.6132
 9739TIP3   OH250631   3.032   2.623   4.940  0.2505  0.1202 -0.0410
 9739TIP3    H150632   3.100   2.572   4.983  0.3691  0.5485  0.2825
 9739TIP3    H250633   2.956   2.616   4.998  0.4498  0.8044  0.3092
 9740TIP3   OH250634   6.102   3.231   0.328  0.1165 -0.1664 -0.0285
 9740TIP3    H150635   6.034   3.194   0.384 -0.2573  2.5255  1.3668
 9740TIP3    H250636   6.058   3.303   0.281  1.9652  1.5742  0.8600
 9741TIP3   OH250637   4.526   0.032   0.206 -0.1738  0.6537 -0.2716
 9741TIP3    H150638   4.607   0.067   0.168 -0.5568  0.4059 -1.3604
 9741TIP3    H250639   4.468   0.021   0.130 -0.0233 -2.4571  0.0240
 9742TIP3   OH250640   3.387   0.217   6.266  0.2529  0.0823  0.3320
 9742TIP3    H150641   3.338   0.296   6.243  2.4148  1.2688 -0.3634
 9742TIP3    H250642   3.356   0.151   6.204 -1.4929  0.3946  0.8508
 9743TIP3   OH250643   5.970   1.500   3.289  0.1532 -0.0931 -0.6292
 9743TIP3    H150644   6.049   1.448   3.270  0.4815  0.7262 -1.5570
 9743TIP3    H250645   5.932   1.518   3.203 -0.4590  0.4279 -0.2508
 9744TIP3   OH250646   3.691   4.207  12.936 -0.4878  0.0247  0.1436
 9744TIP3    H150647   3.658   4.264  13.005  0.7419 -1.0295  1.6418
 9744TIP3    H250648   3.655   4.121  12.956 -0.0686 -0.3056 -0.4862
 9745TIP3   OH250649   1.706   0.404   4.596  0.3872  0.0476  0.5019
 9745TIP3    H150650   1.734   0.315   4.618 -1.2890 -0.4767  0.5330
 9745TIP3    H250651   1.616   0.394   4.565  1.1707  1.3410 -2.3926
 9746TIP3   OH250652   2.701   4.740   4.555  0.2742  0.1157  0.0475
 9746TIP3    H150653   2.795   4.733   4.541 -0.0613  0.5088 -2.5953
 9746TIP3    H250654   2.686   4.833   4.573  0.2258  0.3055 -0.9487
 9747TIP3   OH250655   1.225   6.786   5.548  0.1768 -0.1291  0.6426
 9747TIP3    H150656   1.314   6.819   5.532  0.0713  0.6189  1.5458
 9747TIP3    H250657   1.230   6.693   5.526  0.8322  0.1864 -0.6349
 9748TIP3   OH250658   5.225   4.831   0.492  0.3112 -0.5220 -0.4837
 9748TIP3    H150659   5.250   4.751   0.538  0.9820  0.1753  0.3802
 9748TIP3    H250660   5.299   4.890   0.504 -0.6008  0.5878 -0.2417
 9749TIP3   OH250661   1.643   1.105  16.803 -0.3342 -0.3685  0.4288
 9749TIP3    H150662   1.664   1.151  16.885 -0.9908  0.5142  0.1105
 9749TIP3    H250663   1.691   1.023  16.809 -0.5992 -0.4416  1.8288
 9750TIP3   OH250664   3.853   6.414   0.991 -0.3573 -0.9109 -0.3367
 9750TIP3    H150665   3.830   6.467   1.068  1.5650  2.4885 -1.9937
 9750TIP3    H250666   3.770   6.374   0.964 -1.6412  0.2867  1.6809
 9751TIP3   OH250667   1.888   2.165   1.919 -0.1675  0.0240 -0.0369
 9751TIP3    H150668   1.866   2.248   1.962 -0.6271 -0.1091 -0.0195
 9751TIP3    H250669   1.967   2.136   1.964  0.2578  0.6810 -0.3451
 9752TIP3   OH250670   1.614   6.318  12.627 -0.1559  0.0675 -0.0265
 9752TIP3    H150671   1.556   6.394  12.618 -0.6365 -0.2806  0.0840
 9752TIP3    H250672   1.556   6.248  12.656  0.6564  0.1977  2.0252
 9753TIP3   OH250673   2.628   0.436  14.247 -0.2738 -0.0634  0.3306
 9753TIP3    H150674   2.721   0.445  14.268  0.2799 -2.3660 -0.9289
 9753TIP3    H250675   2.591   0.523  14.260  2.0118  0.8220  1.0566
 9754TIP3   OH250676   1.376   2.563   5.413 -0.0914 -0.3971  0.3383
 9754TIP3    H150677   1.331   2.502   5.354  0.9242 -0.1649 -0.6809
 9754TIP3    H250678   1.466   2.533   5.416 -0.1791 -0.5558  1.9952
 9755TIP3   OH250679   3.226   2.108   6.442  0.2048  0.3085  0.0889
 9755TIP3    H150680   3.224   2.203   6.453  0.2685  0.3535 -0.2840
 9755TIP3    H250681   3.291   2.078   6.505  1.8297  0.7292 -1.3404
 9756TIP3   OH250682   5.056   2.951  14.887  0.3083  0.0218  0.2428
 9756TIP3    H150683   4.970   2.988  14.905 -1.0526 -2.2497 -1.2965
 9756TIP3    H250684   5.061   2.874  14.944  1.1981 -0.0317  0.0931
 9757TIP3   OH250685   1.656   4.023  12.771  0.6449  0.3415 -0.0861
 9757TIP3    H150686   1.747   3.994  12.781  0.7704  0.3200 -1.2019
 9757TIP3    H250687   1.605   3.943  12.779  0.7005  0.3840  0.7634
 9758TIP3   OH250688   5.532   0.622   0.132 -0.0895 -0.0405 -0.1034
 9758TIP3    H150689   5.598   0.665   0.077 -1.0905  0.6043 -0.8140
 9758TIP3    H250690   5.558   0.644   0.222  1.1558 -0.5204 -0.3385
 9759TIP3   OH250691   4.862   1.598   4.132 -1.0071  0.6460 -0.4004
 9759TIP3    H150692   4.812   1.633   4.059 -1.7844  0.3839 -0.0069
 9759TIP3    H250693   4.798   1.546   4.181 -0.1456 -0.3862 -0.3567
 9760TIP3   OH250694   1.092   0.614  10.690  0.2534  0.5324  0.1665
 9760TIP3    H150695   1.159   0.565  10.643  1.4701  2.1227  0.2012
 9760TIP3    H250696   1.087   0.572  10.776 -0.3446 -0.9416 -0.5836
 9761TIP3   OH250697   4.703   5.318   4.810  0.6305  0.5541  0.5775
 9761TIP3    H150698   4.621   5.268   4.811  0.4507  0.8584  1.8170
 9761TIP3    H250699   4.699   5.370   4.730  1.1018 -1.8607 -1.0780
 9762TIP3   OH250700   6.177   5.248  12.882  0.5570  0.2221  0.2404
 9762TIP3    H150701   6.190   5.341  12.866 -3.3522  0.6955 -0.7284
 9762TIP3    H250702   6.206   5.206  12.801  0.1129  0.8126 -0.2294
 9763TIP3   OH250703   6.592   5.960  11.431 -0.2279 -0.1883  0.1611
 9763TIP3    H150704   6.614   5.953  11.524 -0.4297 -3.7485  0.0266
 9763TIP3    H250705   6.503   5.997  11.431 -0.8044 -1.4793  1.5075
 9764TIP3   OH250706   5.958   1.821  12.810 -0.3087  0.1487 -0.0116
 9764TIP3    H150707   6.039   1.868  12.791 -0.8978  0.5363 -1.6899
 9764TIP3    H250708   5.985   1.740  12.851  0.8561  0.9335  0.7743
 9765TIP3   OH250709   1.631   3.541   5.614  0.3671 -0.3458  0.4804
 9765TIP3    H150710   1.714   3.494   5.627  0.3326 -0.2335  1.1216
 9765TIP3    H250711   1.583   3.527   5.695 -0.2106 -0.3387  0.1382
 9766TIP3   OH250712   3.331   6.554  13.233 -0.0240  0.1621 -0.1615
 9766TIP3    H150713   3.263   6.607  13.275 -0.0824  0.3284 -0.4592
 9766TIP3    H250714   3.413   6.593  13.261 -0.0794  2.2095 -2.6094
 9767TIP3   OH250715   2.199   2.700   0.726  0.1515 -0.4339  0.1933
 9767TIP3    H150716   2.217   2.734   0.638  0.3405 -2.1496 -0.4417
 9767TIP3    H250717   2.282   2.660   0.754 -0.7638 -2.6086 -0.1116
 9768TIP3   OH250718   5.802   6.414  11.402  0.6535  0.3977  0.0552
 9768TIP3    H150719   5.838   6.421  11.490  1.5579  2.2028 -0.4233
 9768TIP3    H250720   5.723   6.361  11.412  0.2059  1.4152  2.1242
 9769TIP3   OH250721   1.120   4.958  16.522 -1.4019  0.1172 -0.2596
 9769TIP3    H150722   1.114   4.921  16.434  1.5928 -0.3622 -0.3041
 9769TIP3    H250723   1.073   4.897  16.577  1.4807 -2.6462 -0.7000
 9770TIP3   OH250724   1.742   2.997  14.519 -0.0879 -0.0272 -0.1002
 9770TIP3    H150725   1.796   2.989  14.440  1.8432 -1.3363  1.3238
 9770TIP3    H250726   1.756   2.915  14.566 -1.8435  0.4165  1.2271
 9771TIP3   OH250727   0.055   6.314  15.304  0.0563 -0.2360  0.2394
 9771TIP3    H150728   0.107   6.330  15.225  0.0760 -0.9768  0.0977
 9771TIP3    H250729  -0.035   6.334  15.278  0.2885  1.3565  0.5747
 9772TIP3   OH250730   6.522   0.370   0.608 -0.4032  0.5739 -0.0657
 9772TIP3    H150731   6.595   0.334   0.656 -0.8921 -1.8373 -1.0396
 9772TIP3    H250732   6.553   0.455   0.576  0.7068  1.1546  2.4539
 9773TIP3   OH250733   6.257   3.811   1.512 -0.1854 -0.7987 -0.4239
 9773TIP3    H150734   6.258   3.720   1.483  1.7586 -1.2643  1.0248
 9773TIP3    H250735   6.209   3.810   1.595 -2.7084 -0.0136 -1.8287
 9774TIP3   OH250736   2.690   2.475  11.427 -0.4264  0.3065 -0.0041
 9774TIP3    H150737   2.685   2.484  11.332  1.2590  3.1261  0.1073
 9774TIP3    H250738   2.748   2.400  11.441  0.8335  1.0142 -1.2343
 9775TIP3   OH250739   0.778   5.505   4.918  0.2077  0.2190  0.1120
 9775TIP3    H150740   0.739   5.553   4.991  1.3803  1.0875  0.1753
 9775TIP3    H250741   0.729   5.536   4.841 -0.8691 -0.5221  0.4929
 9776TIP3   OH250742   3.514   5.637   4.546 -0.2876 -0.9160 -0.0019
 9776TIP3    H150743   3.472   5.651   4.461 -0.6115 -0.7218  0.1857
 9776TIP3    H250744   3.523   5.725   4.583  1.0026 -0.8863 -0.3684
 9777TIP3   OH250745   2.538   1.771  11.212 -0.2612 -0.0918  0.3010
 9777TIP3    H150746   2.620   1.816  11.233 -0.7786  0.4832  1.1159
 9777TIP3    H250747   2.496   1.828  11.146 -0.9492  0.6689  1.3842
 9778TIP3   OH250748   0.222   0.655   2.621  0.4124  0.6474  0.0636
 9778TIP3    H150749   0.128   0.669   2.607  0.1960  1.4086  2.2334
 9778TIP3    H250750   0.263   0.727   2.573 -0.0271 -0.3392 -1.8688
 9779TIP3   OH250751   1.372   4.387  11.053  0.6915  0.3210  0.0457
 9779TIP3    H150752   1.385   4.303  11.009 -2.4250  0.6603 -1.7168
 9779TIP3    H250753   1.401   4.452  10.989  0.4746  0.6631  0.2956
 9780TIP3   OH250754   5.372   2.881  10.179 -0.0719 -0.3662 -0.2003
 9780TIP3    H150755   5.354   2.846  10.267 -0.8723 -2.2722 -1.0990
 9780TIP3    H250756   5.288   2.918  10.151  0.1349  0.0736 -0.2379
 9781TIP3   OH250757   1.870   4.433  16.831 -0.0213  0.6802  0.3912
 9781TIP3    H150758   1.923   4.388  16.766 -1.2976  0.0582 -0.2315
 9781TIP3    H250759   1.926   4.438  16.908  0.8296 -0.2386 -0.1596
 9782TIP3   OH250760   6.258   6.155  10.579 -0.1769  0.0598  0.3364
 9782TIP3    H150761   6.343   6.139  10.538 -0.2867 -0.4515  0.3009
 9782TIP3    H250762   6.269   6.126  10.669 -1.1289 -2.6952 -0.3842
 9783TIP3   OH250763   5.855   2.118   4.357 -0.8112 -0.3644  0.0695
 9783TIP3    H150764   5.811   2.067   4.289 -1.1437  0.0072  0.0070
 9783TIP3    H250765   5.906   2.183   4.310 -0.2209 -0.7708  0.1439
 9784TIP3   OH250766   1.236   4.295  13.004  0.4070  0.1692 -0.2880
 9784TIP3    H150767   1.239   4.206  13.040  2.6885  0.3329  0.0015
 9784TIP3    H250768   1.147   4.304  12.970 -0.5437 -1.4393  1.6458
 9785TIP3   OH250769   5.937   5.139   5.903 -0.3288 -0.0876  0.1161
 9785TIP3    H150770   6.007   5.100   5.850  0.9227  0.2955  1.4558
 9785TIP3    H250771   5.889   5.064   5.938 -2.7651 -0.3492 -3.5738
 9786TIP3   OH250772   0.629   3.822   1.904  0.1674 -0.3640  0.2053
 9786TIP3    H150773   0.589   3.882   1.841  2.8024  1.0465 -0.2119
 9786TIP3    H250774   0.642   3.741   1.856 -0.3583 -0.1872 -0.2366
 9787TIP3   OH250775   0.241   4.027  11.082  0.0404  0.5327  0.5382
 9787TIP3    H150776   0.198   3.973  11.016  0.4148 -0.3363  0.9828
 9787TIP3    H250777   0.174   4.088  11.112 -0.9468 -0.9534  1.3891
 9788TIP3   OH250778   3.565   4.691  12.326 -0.2196  1.0214  0.2227
 9788TIP3    H150779   3.661   4.695  12.328 -0.1318 -0.7214  0.4246
 9788TIP3    H250780   3.545   4.598  12.334 -1.8942  1.1582 -1.9330
 9789TIP3   OH250781   4.526   3.370  12.268  0.3902 -0.2726 -0.1740
 9789TIP3    H150782   4.497   3.343  12.355  0.9701 -1.4077 -0.3254
 9789TIP3    H250783   4.578   3.296  12.236  0.9966  0.5319 -1.0836
 9790TIP3   OH250784   1.011   3.588  13.973 -0.1579 -0.3364 -0.0426
 9790TIP3    H150785   0.950   3.648  13.930  0.3402  1.1405  1.2574
 9790TIP3    H250786   1.085   3.583  13.913  0.2720  1.2319  0.3296
 9791TIP3   OH250787   2.162   4.765   1.719 -0.5033 -0.7235  0.0818
 9791TIP3    H150788   2.209   4.690   1.756  1.3219  0.8151  0.9733
 9791TIP3    H250789   2.205   4.841   1.757  0.1143  0.8882 -3.5733
 9792TIP3   OH250790   2.014   3.911  14.380  0.4342  0.6244  0.0676
 9792TIP3    H150791   1.962   3.991  14.381  0.9009  0.9262  1.0180
 9792TIP3    H250792   1.951   3.841  14.363 -0.2678  0.9932  1.1413
 9793TIP3   OH250793   2.770   6.371  11.948  0.4074 -0.2042 -0.5793
 9793TIP3    H150794   2.752   6.277  11.947 -0.1682 -0.0922 -0.6852
 9793TIP3    H250795   2.823   6.385  12.027 -0.9674 -0.3506  0.3712
 9794TIP3   OH250796   4.617   2.149   1.598  0.5686  0.2822 -0.1390
 9794TIP3    H150797   4.635   2.056   1.583 -2.8457 -0.1119 -2.3312
 9794TIP3    H250798   4.695   2.194   1.566  0.4603 -1.6424 -3.4219
 9795TIP3   OH250799   4.938   4.133  11.394 -0.4748  0.3228  0.1192
 9795TIP3    H150800   4.993   4.197  11.439  1.1075  0.6920 -2.2370
 9795TIP3    H250801   4.882   4.097  11.463  0.9344  1.7975  2.1086
 9796TIP3   OH250802   1.471   1.350   3.886  0.2846 -0.1745 -0.8511
 9796TIP3    H150803   1.440   1.413   3.821  0.6057 -0.8308 -1.6456
 9796TIP3    H250804   1.566   1.363   3.888 -0.0087  2.2325  1.9845
 9797TIP3   OH250805   0.379   2.609   1.774  0.3414 -0.6615 -0.3053
 9797TIP3    H150806   0.466   2.602   1.814  0.0182 -1.1680  0.3191
 9797TIP3    H250807   0.325   2.647   1.843 -0.1316 -1.1662 -0.3971
 9798TIP3   OH250808   4.911   5.009   3.530  0.4550 -0.3586 -0.1468
 9798TIP3    H150809   4.873   4.924   3.506  0.7452 -0.3290 -0.6977
 9798TIP3    H250810   4.996   4.987   3.569  0.5169 -0.3211 -0.2609
 9799TIP3   OH250811   1.177   6.633  12.660  0.1182 -0.0774 -0.4723
 9799TIP3    H150812   1.139   6.715  12.690  0.4446  0.5683 -1.7985
 9799TIP3    H250813   1.272   6.648  12.659  0.2025 -0.5864 -0.3477
 9800TIP3   OH250814   1.991   2.287  14.912 -0.2901  0.1863  0.8659
 9800TIP3    H150815   2.036   2.350  14.856  0.2419 -0.3205  0.7044
 9800TIP3    H250816   2.062   2.231  14.945 -0.8011 -0.5833  0.6599
 9801TIP3   OH250817   3.854   4.188  11.809  0.4637  1.0697 -0.6818
 9801TIP3    H150818   3.824   4.137  11.884  1.1679  0.3613 -0.8788
 9801TIP3    H250819   3.849   4.128  11.735  1.2716  1.2943 -0.9199
 9802TIP3   OH250820   3.482   2.313  16.959 -0.5383 -0.3682 -0.0485
 9802TIP3    H150821   3.405   2.311  16.902 -1.7999 -1.3636  1.6505
 9802TIP3    H250822   3.487   2.224  16.996  0.2025  0.2829  1.4566
 9803TIP3   OH250823   3.082   5.539   3.319 -0.3313  0.0026  1.0163
 9803TIP3    H150824   3.040   5.507   3.399  0.4015  0.1726  1.4866
 9803TIP3    H250825   3.174   5.515   3.330 -0.0725  0.7854  0.6167
 9804TIP3   OH250826   3.275   5.121  16.433 -0.0808  0.4475 -0.1563
 9804TIP3    H150827   3.277   5.060  16.506 -0.2390  1.6857  0.8898
 9804TIP3    H250828   3.338   5.086  16.371 -4.4091 -4.1566 -2.3246
 9805TIP3   OH250829   2.261   2.807  14.138  0.3529  0.5879 -0.4826
 9805TIP3    H150830   2.341   2.764  14.169  0.6539  0.0713 -1.9031
 9805TIP3    H250831   2.251   2.775  14.048 -1.2488  0.9462 -0.4418
 9806TIP3   OH250832   6.575   2.828  14.652 -0.1435 -0.3135 -0.9685
 9806TIP3    H150833   6.580   2.736  14.678  0.9052  0.1626  0.5544
 9806TIP3    H250834   6.561   2.876  14.733  0.7216  0.9868 -1.5575
 9807TIP3   OH250835   2.413   6.527   2.081 -0.0541  0.6944 -0.4322
 9807TIP3    H150836   2.339   6.484   2.122 -0.0817  1.0887 -0.0644
 9807TIP3    H250837   2.388   6.535   1.989 -0.0400 -0.0793 -0.5044
 9808TIP3   OH250838   4.698   5.315   0.251 -0.1152  0.4115 -0.1254
 9808TIP3    H150839   4.720   5.401   0.289  0.2894  0.4846 -0.5097
 9808TIP3    H250840   4.732   5.252   0.314 -1.0429  0.5331  0.5025
 9809TIP3   OH250841   5.123   2.390   2.067 -0.0672 -0.2685  0.5337
 9809TIP3    H150842   5.059   2.362   2.001  0.6195 -0.5036 -0.0364
 9809TIP3    H250843   5.145   2.480   2.042  0.7692 -0.6190 -0.0157
 9810TIP3   OH250844   2.764   2.600  16.267 -0.3788  0.1821  0.6540
 9810TIP3    H150845   2.855   2.597  16.297  0.0316  1.3006 -0.4677
 9810TIP3    H250846   2.770   2.592  16.172 -1.4354  0.7307  0.5376
 9811TIP3   OH250847   4.486   2.347  15.304  0.2552 -0.1852 -0.3872
 9811TIP3    H150848   4.540   2.415  15.264  0.0489  0.7095  0.8528
 9811TIP3    H250849   4.397   2.366  15.274  0.1791  0.1591  0.0604
 9812TIP3   OH250850   1.464   2.576  14.438  0.1501 -0.0692 -0.3436
 9812TIP3    H150851   1.459   2.611  14.528  0.2367 -1.6445  0.2854
 9812TIP3    H250852   1.373   2.553  14.417  0.0087  1.0241 -0.9668
 9813TIP3   OH250853   1.211   0.285  14.350  0.1300 -0.0565  0.4278
 9813TIP3    H150854   1.210   0.310  14.442 -1.5569  0.8804  0.1639
 9813TIP3    H250855   1.269   0.348  14.308 -3.5641  3.1435 -0.1177
 9814TIP3   OH250856   4.642   4.296   5.023  0.1760  0.2319  0.0069
 9814TIP3    H150857   4.574   4.237   5.058 -0.8753  1.6035  0.3102
 9814TIP3    H250858   4.723   4.246   5.032 -0.7483 -1.3574 -0.1547
 9815TIP3   OH250859   2.991   1.538  15.740  1.0412 -0.4282  0.1042
 9815TIP3    H150860   3.054   1.493  15.797  0.6985 -0.5101  0.4160
 9815TIP3    H250861   2.935   1.468  15.706  0.2878 -0.2047  0.8614
 9816TIP3   OH250862   2.667   5.939  14.002 -0.2043 -0.1443  0.1165
 9816TIP3    H150863   2.632   5.970  13.918  0.3441 -0.9448 -0.4217
 9816TIP3    H250864   2.751   5.983  14.011 -0.9914  1.2139  1.0575
 9817TIP3   OH250865   5.634   0.018   3.279  0.7338  0.0667  0.2573
 9817TIP3    H150866   5.565   0.047   3.339 -2.1945 -2.0369 -1.9201
 9817TIP3    H250867   5.650   0.093   3.222 -0.5957  0.2399  0.0978
 9818TIP3   OH250868   1.786   6.318   4.453  0.4115  0.2002  0.1700
 9818TIP3    H150869   1.812   6.296   4.542  0.3448 -0.5015  0.0203
 9818TIP3    H250870   1.854   6.280   4.398 -0.3662 -0.7345 -0.1632
 9819TIP3   OH250871   5.390   3.827   2.214 -0.0502  0.2585 -0.5724
 9819TIP3    H150872   5.300   3.844   2.240 -0.4670  0.3015 -2.0109
 9819TIP3    H250873   5.386   3.748   2.162  0.7894  0.1135 -0.4308
 9820TIP3   OH250874   6.707   1.894   4.983  0.3162  0.0305  0.1523
 9820TIP3    H150875   6.760   1.895   5.063  1.5958 -0.0311 -0.6777
 9820TIP3    H250876   6.703   1.986   4.956  0.2253  0.0024  0.0710
 9821TIP3   OH250877   4.638   6.509  14.271  0.8290 -0.4957 -0.4947
 9821TIP3    H150878   4.713   6.568  14.263 -0.6031  1.4049 -0.5365
 9821TIP3    H250879   4.563   6.568  14.281 -0.7244 -2.3319 -0.9986
 9822TIP3   OH250880   6.398   1.705   5.927  0.1181 -0.2129 -0.3163
 9822TIP3    H150881   6.336   1.692   5.999  1.5294 -3.3258  0.3946
 9822TIP3    H250882   6.478   1.735   5.968 -0.2704  1.9403 -1.0523
 9823TIP3   OH250883   2.627   5.439  11.482  0.1053 -0.3778 -0.2057
 9823TIP3    H150884   2.658   5.436  11.572 -0.3475 -0.0549 -0.0330
 9823TIP3    H250885   2.706   5.442  11.428  0.3736  0.3675  0.2213
 9824TIP3   OH250886   5.957   5.897  11.624 -0.6017 -0.3677 -0.1186
 9824TIP3    H150887   5.885   5.936  11.575 -0.6022  2.7009  2.1796
 9824TIP3    H250888   5.916   5.856  11.700 -0.2849 -2.2405 -0.9300
 9825TIP3   OH250889   2.220   6.321  12.724  0.1864  0.1491 -0.8020
 9825TIP3    H150890   2.205   6.314  12.818  0.0854  1.5619 -0.7090
 9825TIP3    H250891   2.252   6.234  12.699  0.0085 -0.3035  0.4892
 9826TIP3   OH250892   5.794   2.219  16.871  0.2660  0.3683 -0.0050
 9826TIP3    H150893   5.787   2.128  16.844 -1.6347  0.6784 -0.6181
 9826TIP3    H250894   5.867   2.221  16.932  2.7289 -0.9245 -2.7663
 9827TIP3   OH250895   6.084   5.668  10.464 -0.0075  0.2357 -0.1163
 9827TIP3    H150896   6.043   5.755  10.456  2.4641  1.1245 -3.9936
 9827TIP3    H250897   6.022   5.609  10.422 -0.8439  0.3719  0.8964
 9828TIP3   OH250898   4.064   2.136   4.418 -0.1383 -0.2836 -0.1742
 9828TIP3    H150899   3.981   2.162   4.458  0.9488  2.1350  0.6088
 9828TIP3    H250900   4.117   2.104   4.491  1.1177  2.2316  0.1008
 9829TIP3   OH250901   4.991   0.645  13.106  0.4283 -0.5640  0.1035
 9829TIP3    H150902   5.059   0.697  13.062 -0.4111  1.3827  1.0447
 9829TIP3    H250903   5.036   0.605  13.180  0.4050  1.3912  1.2097
 9830TIP3   OH250904   0.167   4.913   0.972 -0.1797 -0.4587  0.5040
 9830TIP3    H150905   0.192   4.834   0.924 -0.9612 -0.5610  0.2593
 9830TIP3    H250906   0.093   4.949   0.923  0.8247  1.0005  0.0308
 9831TIP3   OH250907   2.630   0.699  13.767  0.0412  0.7488  1.2228
 9831TIP3    H150908   2.644   0.621  13.714  1.0857  1.8624 -0.1625
 9831TIP3    H250909   2.582   0.668  13.844 -0.1533 -1.1274  0.3497
 9832TIP3   OH250910   5.680   3.661   6.229  0.0192 -0.4471  0.0993
 9832TIP3    H150911   5.626   3.607   6.288  0.7363  0.2668  1.4188
 9832TIP3    H250912   5.626   3.738   6.211  0.2360 -0.1550  0.6966
 9833TIP3   OH250913   3.943   6.521  11.795 -0.3583  0.4163 -0.4473
 9833TIP3    H150914   3.891   6.598  11.815 -4.7513 -2.0898 -1.4344
 9833TIP3    H250915   3.909   6.453  11.854  2.3746 -1.1461 -0.5857
 9834TIP3   OH250916   2.984   5.725  12.994  0.1899 -0.5870  0.0092
 9834TIP3    H150917   2.944   5.796  13.045  0.3629 -0.3210 -0.2184
 9834TIP3    H250918   2.995   5.763  12.906  2.1659 -0.1864  0.3938
 9835TIP3   OH250919   1.080   6.486  12.233 -0.5864 -0.2811 -0.1132
 9835TIP3    H150920   1.109   6.545  12.164 -2.4333 -1.0167 -1.5389
 9835TIP3    H250921   0.987   6.471  12.216 -1.1196 -0.3821  2.5966
 9836TIP3   OH250922   6.188   5.296   4.513 -0.8256 -0.1446  0.2816
 9836TIP3    H150923   6.182   5.279   4.607  0.3791  0.2099  0.4385
 9836TIP3    H250924   6.122   5.363   4.496 -0.7516  0.1066  0.9547
 9837TIP3   OH250925   4.402   5.288   4.862  0.1630 -0.1291 -0.0308
 9837TIP3    H150926   4.407   5.321   4.772 -0.8153 -1.8610 -0.7569
 9837TIP3    H250927   4.401   5.192   4.852 -2.7373 -0.3419  1.6094
 9838TIP3   OH250928   5.082   6.363  10.440 -0.6317 -0.1464 -0.1585
 9838TIP3    H150929   5.143   6.426  10.401 -0.8542  0.0749 -0.1548
 9838TIP3    H250930   5.049   6.312  10.366 -0.3275 -0.3651 -0.1405
 9839TIP3   OH250931   6.546   6.066  14.584  0.1418 -0.2803 -0.6791
 9839TIP3    H150932   6.503   6.017  14.654  2.0927 -0.2170  0.5929
 9839TIP3    H250933   6.551   6.003  14.511  0.2684 -1.1546  0.0648
 9840TIP3   OH250934   3.990   1.207   4.382  0.1966 -0.4950  0.3831
 9840TIP3    H150935   3.974   1.245   4.469 -1.7509  3.4400 -1.5375
 9840TIP3    H250936   3.929   1.134   4.376  0.2157 -0.6844  2.2510
 9841TIP3   OH250937   2.079   1.501  15.171 -0.1413  0.0544 -0.3116
 9841TIP3    H150938   2.005   1.461  15.125  0.7638 -0.5912 -1.2263
 9841TIP3    H250939   2.043   1.528  15.256 -1.1342 -1.3068 -0.2908
 9842TIP3   OH250940   1.135   2.596   5.553 -0.1801 -0.1294  0.2404
 9842TIP3    H150941   1.212   2.583   5.497 -0.7090  0.1121 -0.5519
 9842TIP3    H250942   1.161   2.561   5.638  0.4013 -1.1261 -0.3403
 9843TIP3   OH250943   6.492   2.198   4.476  0.1320  0.7305  0.0250
 9843TIP3    H150944   6.400   2.176   4.487  0.1179  0.7691 -0.0091
 9843TIP3    H250945   6.491   2.282   4.429  0.1849  0.7080 -0.0167
 9844TIP3   OH250946   4.919   5.911   1.991 -0.0510 -0.6414 -0.5559
 9844TIP3    H150947   4.952   5.872   2.071  0.8573 -3.6151 -2.3023
 9844TIP3    H250948   4.960   5.998   1.988 -1.7738  0.3985  3.1737
 9845TIP3   OH250949   6.738   2.480  13.457  0.2118 -0.2003  0.5398
 9845TIP3    H150950   6.676   2.522  13.516 -0.8903  0.5743 -1.1181
 9845TIP3    H250951   6.728   2.386  13.474 -2.7656 -0.2192 -0.9449
 9846TIP3   OH250952   0.781   2.728  14.479 -0.4074  0.1127  0.7833
 9846TIP3    H150953   0.773   2.739  14.384 -0.8262  0.8476  0.9001
 9846TIP3    H250954   0.797   2.634  14.491 -0.7330 -0.0438  0.0117
 9847TIP3   OH250955   6.748   0.549   2.401 -0.6047 -0.5060  0.1046
 9847TIP3    H150956   6.842   0.540   2.386 -0.3608 -0.6987  1.6389
 9847TIP3    H250957   6.741   0.607   2.477 -1.7421 -0.0769 -0.3100
 9848TIP3   OH250958   3.226   1.276  14.084 -0.2604 -0.8775  0.0288
 9848TIP3    H150959   3.252   1.184  14.074  1.8463 -0.3925  0.8577
 9848TIP3    H250960   3.137   1.280  14.048  0.0168 -3.0193 -0.9431
 9849TIP3   OH250961   4.260   0.112  11.161  0.1558  0.7381 -0.2477
 9849TIP3    H150962   4.276   0.131  11.068  1.8263  0.3580 -0.0537
 9849TIP3    H250963   4.167   0.088  11.164 -0.6735  3.5194 -1.3464
 9850TIP3   OH250964   1.173   5.601   4.515  1.0020 -0.4273  0.9870
 9850TIP3    H150965   1.151   5.693   4.505 -1.9150 -1.0529  1.1449
 9850TIP3    H250966   1.243   5.600   4.580  1.1593  1.6935  0.8720
 9851TIP3   OH250967   4.812   3.015  14.081  0.0098  0.3096 -0.4447
 9851TIP3    H150968   4.748   2.975  14.140 -0.3564  0.4926 -0.7117
 9851TIP3    H250969   4.894   2.971  14.101 -0.2075  0.0501 -0.1172
 9852TIP3   OH250970   4.755   5.116   1.343  0.0630  1.0516 -0.1754
 9852TIP3    H150971   4.842   5.148   1.367  0.8415 -0.2686 -1.1376
 9852TIP3    H250972   4.715   5.187   1.293  1.1380  1.1290 -0.9350
 9853TIP3   OH250973   0.208   5.269  13.699 -0.3007  0.7172 -0.0485
 9853TIP3    H150974   0.125   5.312  13.722 -0.8335 -1.3528  2.0459
 9853TIP3    H250975   0.192   5.176  13.713  1.6060  0.0113 -2.1474
 9854TIP3   OH250976   5.543   1.784   5.828  0.0733  0.0166  0.0103
 9854TIP3    H150977   5.612   1.764   5.765 -0.3415  1.8819 -1.0887
 9854TIP3    H250978   5.525   1.701   5.872  0.9888 -1.1115 -1.7070
 9855TIP3   OH250979   5.005   2.637   0.757 -0.2161 -0.0921 -0.1328
 9855TIP3    H150980   5.028   2.706   0.694  1.1525 -0.3014  0.1166
 9855TIP3    H250981   4.941   2.678   0.815 -1.2203  0.2175 -1.4230
 9856TIP3   OH250982   4.086   6.696   1.539  0.4392  0.8223 -0.2747
 9856TIP3    H150983   4.043   6.762   1.485 -1.6201  0.1807  0.5254
 9856TIP3    H250984   4.055   6.612   1.505  0.2006  0.3709  1.0176
 9857TIP3   OH250985   3.845   5.932  10.567 -0.0979  0.4442  0.3757
 9857TIP3    H150986   3.902   6.000  10.532  0.1669 -0.3055 -0.6607
 9857TIP3    H250987   3.904   5.868  10.607 -0.2067 -0.2674 -0.5824
 9858TIP3   OH250988   2.721   5.946   0.102 -0.0124 -0.6451  0.5426
 9858TIP3    H150989   2.725   5.963   0.008  2.1610 -1.9790  0.3540
 9858TIP3    H250990   2.777   5.870   0.115 -0.1949 -0.4127  2.9354
 9859TIP3   OH250991   3.495   3.674  17.175  0.8262 -0.2479  0.3373
 9859TIP3    H150992   3.539   3.669  17.090 -2.0259 -2.0761 -1.1088
 9859TIP3    H250993   3.521   3.594  17.221 -0.1382 -0.8165 -0.1005
 9860TIP3   OH250994   2.419   2.879   6.494 -0.0706 -0.0003  0.0775
 9860TIP3    H150995   2.417   2.965   6.535  1.9132  1.2593 -2.3526
 9860TIP3    H250996   2.505   2.844   6.516  0.4251  0.0665 -1.6815
 9861TIP3   OH250997   6.449   0.718   2.525  0.4774 -0.3884 -0.4629
 9861TIP3    H150998   6.356   0.719   2.547  0.4588  0.0867 -0.5533
 9861TIP3    H250999   6.483   0.638   2.566  0.0931 -0.4025 -0.1690
 9862TIP3   OH251000   1.977   0.858  12.681 -0.3770  0.3242  0.5520
 9862TIP3    H151001   1.954   0.949  12.663  0.5778  0.6464  0.9017
 9862TIP3    H251002   1.904   0.807  12.646  0.2085  1.0940 -1.8904
 9863TIP3   OH251003   1.195   0.952   0.777 -0.2399  0.8707 -0.2617
 9863TIP3    H151004   1.245   1.025   0.814  0.4306 -0.0435  0.6410
 9863TIP3    H251005   1.236   0.935   0.692  0.7356  0.3804  0.3068
 9864TIP3   OH251006   3.325   6.253   0.457  0.3731  0.1678 -0.6100
 9864TIP3    H151007   3.297   6.184   0.396  0.2288 -0.4404  0.1349
 9864TIP3    H251008   3.273   6.329   0.432  0.0879 -0.1627 -1.0426
 9865TIP3   OH251009   1.108   2.058  13.490 -0.4725  0.1092  0.0422
 9865TIP3    H151010   1.083   2.134  13.542 -0.0106  0.3851 -0.1443
 9865TIP3    H251011   1.113   1.986  13.554 -1.8469  0.0222  0.0665
 9866TIP3   OH251012   3.105   1.541  17.231 -0.0195 -0.3512 -0.4321
 9866TIP3    H151013   3.181   1.591  17.261  1.4869 -1.1473 -2.7387
 9866TIP3    H251014   3.085   1.482  17.303 -0.7559  2.3453  1.6432
 9867TIP3   OH251015   4.056   6.507  13.411  0.3002 -1.2180 -0.5088
 9867TIP3    H151016   4.123   6.459  13.362 -1.2404 -2.1464 -1.7262
 9867TIP3    H251017   4.098   6.591  13.431  2.0481 -2.0060 -0.7236
 9868TIP3   OH251018   6.479   4.150   0.033 -0.3130  0.5946 -0.3836
 9868TIP3    H151019   6.454   4.116   0.119  0.0309  0.3078 -0.3980
 9868TIP3    H251020   6.396   4.174  -0.008 -0.4452  1.1192  0.1910
 9869TIP3   OH251021   3.221   5.277  13.403 -0.3520 -0.1986 -0.3501
 9869TIP3    H151022   3.129   5.291  13.378 -0.1919  1.6049  0.0124
 9869TIP3    H251023   3.271   5.307  13.327 -0.0179  0.4906  0.1388
 9870TIP3   OH251024   4.699   3.926   3.402  0.3216 -0.2799  0.1018
 9870TIP3    H151025   4.644   3.848   3.400 -1.9069  1.2819 -1.9354
 9870TIP3    H251026   4.674   3.972   3.482 -1.0763  0.2040 -0.5962
 9871TIP3   OH251027   1.015   3.421   1.020 -0.0379 -0.0661 -0.5177
 9871TIP3    H151028   0.993   3.505   1.061 -0.5740  0.2283 -1.3880
 9871TIP3    H251029   1.027   3.443   0.927 -0.6896 -1.0356 -0.8365
 9872TIP3   OH251030   0.776   0.894  13.780  0.5436  0.1586 -0.3202
 9872TIP3    H151031   0.772   0.990  13.778  0.7436  0.2002  0.9039
 9872TIP3    H251032   0.783   0.869  13.688  3.6746  1.4542 -0.4968
 9873TIP3   OH251033   5.277   1.574   5.573  0.4059  0.6435  0.3942
 9873TIP3    H151034   5.308   1.651   5.526  1.0085  0.2627  0.1646
 9873TIP3    H251035   5.246   1.608   5.657 -1.0532  1.3757 -0.4301
 9874TIP3   OH251036   2.060   0.953  11.441  0.1182 -0.3115  0.1657
 9874TIP3    H151037   2.031   0.977  11.353  1.8950  0.4086 -0.2544
 9874TIP3    H251038   2.115   0.876  11.429  1.1035  0.3198  0.5135
 9875TIP3   OH251039   6.411   6.189   5.319  0.3950 -0.1211 -0.6229
 9875TIP3    H151040   6.423   6.177   5.225 -0.1291  1.0186 -0.8419
 9875TIP3    H251041   6.494   6.161   5.358  0.9363  0.2680 -1.4927
 9876TIP3   OH251042   3.212   1.378  14.350  0.7358  0.6228 -0.8018
 9876TIP3    H151043   3.301   1.345  14.356  1.3318  2.3559  0.1569
 9876TIP3    H251044   3.183   1.353  14.262  1.2615 -2.0952 -0.2703
 9877TIP3   OH251045   1.698   3.223  11.424 -0.0740  0.5576  0.0015
 9877TIP3    H151046   1.646   3.194  11.498  0.2031 -0.2631 -0.1203
 9877TIP3    H251047   1.652   3.301  11.391 -0.8089  0.2712  0.3414
 9878TIP3   OH251048   3.677   5.351  12.085  0.5053 -0.0942 -0.3178
 9878TIP3    H151049   3.606   5.291  12.108 -0.2484  1.5508  1.8468
 9878TIP3    H251050   3.661   5.373  11.994 -1.8618  0.3040  0.1481
 9879TIP3   OH251051   3.448   2.896  11.865 -0.0138  0.0910  0.0743
 9879TIP3    H151052   3.436   2.969  11.805  0.2605  0.4990  0.5133
 9879TIP3    H251053   3.374   2.838  11.847  0.2920  0.0116 -0.9369
 9880TIP3   OH251054   2.715   1.531  14.763 -0.7453  0.3900  0.6038
 9880TIP3    H151055   2.625   1.505  14.747  0.2191 -1.3196 -2.4565
 9880TIP3    H251056   2.758   1.453  14.796  0.0813  0.6069  0.0629
 9881TIP3   OH251057   2.358   0.224  16.143  0.1269  0.8045  0.3264
 9881TIP3    H151058   2.294   0.294  16.128  0.5238  1.6331  2.3567
 9881TIP3    H251059   2.304   0.145  16.158 -0.5210  1.7200  3.1890
 9882TIP3   OH251060   1.746   2.264  13.667  0.1836  0.1797  0.3214
 9882TIP3    H151061   1.822   2.318  13.687  0.2766 -0.6291  2.2436
 9882TIP3    H251062   1.761   2.233  13.577  1.1990  1.5112  0.0151
 9883TIP3   OH251063   6.094   2.716   6.455  0.7828 -0.2156  0.1188
 9883TIP3    H151064   6.148   2.738   6.531  0.2178  1.7582 -0.0306
 9883TIP3    H251065   6.148   2.655   6.404  2.1242  0.3030  0.8952
 9884TIP3   OH251066   4.922   1.669   0.973 -0.3443 -0.2683  0.0007
 9884TIP3    H151067   4.903   1.614   1.050 -0.8195 -0.4881 -0.2774
 9884TIP3    H251068   4.840   1.713   0.954  0.5117  2.0252  1.3967
 9885TIP3   OH251069   3.706   4.969  14.428  0.0830 -0.3558 -0.3276
 9885TIP3    H151070   3.792   4.936  14.401  0.3639  0.5294 -0.5200
 9885TIP3    H251071   3.725   5.040  14.488 -0.4984  0.4882 -1.1185
 9886TIP3   OH251072   0.015   5.333   3.914 -0.0885  0.1094 -0.3267
 9886TIP3    H151073   0.064   5.386   3.852 -0.2389 -0.9481 -1.3836
 9886TIP3    H251074   0.014   5.246   3.874 -2.3222 -0.0104 -0.0346
 9887TIP3   OH251075   0.054   4.159  14.974 -0.6669 -0.1495 -0.2587
 9887TIP3    H151076   0.147   4.179  14.983 -0.2773 -0.7588 -2.5643
 9887TIP3    H251077   0.040   4.083  15.030 -0.2434  1.1756  1.6803
 9888TIP3   OH251078   2.212   4.131   1.231 -0.1902  0.2226 -0.4558
 9888TIP3    H151079   2.164   4.189   1.291 -0.2515 -0.2915 -0.0082
 9888TIP3    H251080   2.155   4.055   1.221 -0.5064  0.6131 -1.7376
 9889TIP3   OH251081   4.814   4.123   0.723  0.4132 -0.1676 -0.0064
 9889TIP3    H151082   4.818   4.176   0.803 -0.9873 -1.3091  0.8265
 9889TIP3    H251083   4.820   4.187   0.652  0.1705  0.9839  0.9995
 9890TIP3   OH251084   2.308   6.229  13.475  0.3755  0.8911  0.1283
 9890TIP3    H151085   2.234   6.281  13.509  0.5470  0.7371  0.7426
 9890TIP3    H251086   2.314   6.155  13.534  1.4804  1.2708  0.5045
 9891TIP3   OH251087   0.791   0.810  16.107 -0.1703  0.4059 -0.2643
 9891TIP3    H151088   0.808   0.904  16.106  0.2533  0.3666  1.3749
 9891TIP3    H251089   0.781   0.789  16.200  2.0729 -1.5965 -0.4443
 9892TIP3   OH251090   1.642   2.602   3.763 -0.3372  0.1357 -0.1580
 9892TIP3    H151091   1.643   2.631   3.672 -0.0121  1.2060  0.1810
 9892TIP3    H251092   1.592   2.669   3.809 -0.3070 -0.2852  0.4899
 9893TIP3   OH251093   2.298   5.750  16.885  0.1011 -0.0626  0.0472
 9893TIP3    H151094   2.204   5.767  16.889  0.4885  2.3997 -0.9963
 9893TIP3    H251095   2.337   5.813  16.945  1.0170 -1.7732  1.2774
 9894TIP3   OH251096   4.675   1.902  12.720 -0.0864  0.0526  0.2818
 9894TIP3    H151097   4.626   1.820  12.722 -0.9731  0.5851  0.4194
 9894TIP3    H251098   4.681   1.930  12.811  3.6664 -1.8659  0.7324
 9895TIP3   OH251099   4.846   1.242   6.312 -0.0631 -0.4454 -0.4100
 9895TIP3    H151100   4.897   1.176   6.359 -1.5840 -1.6057 -0.3604
 9895TIP3    H251101   4.793   1.284   6.379 -2.2082 -2.0770 -1.0347
 9896TIP3   OH251102   6.041   3.988   1.337 -0.1380 -0.4532  0.7796
 9896TIP3    H151103   5.965   3.928   1.335 -0.0651 -0.5185 -0.0019
 9896TIP3    H251104   6.002   4.075   1.331 -0.0474 -0.5605 -1.5728
 9897TIP3   OH251105   1.821   4.184  15.854 -0.3681 -0.0076  0.1563
 9897TIP3    H151106   1.804   4.095  15.823 -2.1213  0.1470  0.6672
 9897TIP3    H251107   1.755   4.200  15.922 -1.0578  2.2317 -0.9931
 9898TIP3   OH251108   0.942   6.083  15.691  0.3385 -0.0822  0.1261
 9898TIP3    H151109   0.962   6.002  15.644 -0.2287  0.6659 -1.4377
 9898TIP3    H251110   0.865   6.060  15.744  1.5465 -1.1927  1.4367
 9899TIP3   OH251111   1.838   5.538   2.692  0.1139 -0.0316 -0.2315
 9899TIP3    H151112   1.790   5.593   2.754  0.1828 -0.8861  0.5826
 9899TIP3    H251113   1.925   5.530   2.730 -0.3039 -1.8813  0.3895
 9900TIP3   OH251114   2.910   1.118   0.612  0.3332  0.0460 -0.5644
 9900TIP3    H151115   2.972   1.064   0.661  1.3224  0.9569 -0.8007
 9900TIP3    H251116   2.829   1.112   0.662  0.6562 -1.0081 -0.1535
 9901TIP3   OH251117   2.636   4.426  10.943  0.1523  0.0193  0.2024
 9901TIP3    H151118   2.584   4.464  11.014 -0.3252  0.9387 -0.6312
 9901TIP3    H251119   2.686   4.356  10.985 -0.1896  0.4958  1.4286
 9902TIP3   OH251120   5.605   5.230  15.597 -0.1658 -0.0088  0.1272
 9902TIP3    H151121   5.658   5.204  15.521 -0.4178  1.2017 -0.4860
 9902TIP3    H251122   5.530   5.170  15.596  0.7092 -1.1208  0.4486
 9903TIP3   OH251123   5.982   1.006  15.006 -0.1623 -0.4071 -0.2912
 9903TIP3    H151124   5.923   0.943  14.966 -2.0561  0.3985  1.1763
 9903TIP3    H251125   6.069   0.966  14.998 -1.0664 -2.2272 -1.2448
 9904TIP3   OH251126   3.480   1.316  14.496 -0.1536  0.0823 -0.2040
 9904TIP3    H151127   3.540   1.326  14.570  0.1774 -2.3508 -0.1011
 9904TIP3    H251128   3.536   1.324  14.419 -0.3267  1.5384 -0.1962
 9905TIP3   OH251129   5.146   5.052  15.279  0.6113  0.0176 -0.9987
 9905TIP3    H151130   5.092   5.130  15.295 -0.8558 -0.9873 -0.9664
 9905TIP3    H251131   5.112   5.016  15.197  2.1555  0.1161 -1.7112
 9906TIP3   OH251132   4.207   3.219  13.647 -0.4252  0.3465  0.1895
 9906TIP3    H151133   4.290   3.208  13.693 -2.0398  0.7710  3.3193
 9906TIP3    H251134   4.215   3.304  13.603  1.3594 -0.3302 -0.8467
 9907TIP3   OH251135   6.563   1.010   0.484 -0.2010 -0.1948 -0.0598
 9907TIP3    H151136   6.510   0.932   0.470  0.7866 -0.9273  0.2665
 9907TIP3    H251137   6.619   0.988   0.558  2.3390 -0.3482 -1.9757
 9908TIP3   OH251138   4.604   0.741   4.156  0.1894  0.2662 -0.3033
 9908TIP3    H151139   4.655   0.747   4.236  0.2898  0.6002 -0.3908
 9908TIP3    H251140   4.581   0.649   4.149  1.9007 -0.1347 -0.9544
 9909TIP3   OH251141   1.449   6.602   0.985  0.0958  0.3933 -0.4822
 9909TIP3    H151142   1.532   6.588   0.939  0.1202  1.1344 -0.6773
 9909TIP3    H251143   1.460   6.687   1.028 -0.1474 -0.0317  0.4163
 9910TIP3   OH251144   5.699   1.937  12.853 -0.2512 -0.2417  0.9582
 9910TIP3    H151145   5.699   1.900  12.941  2.0931 -1.0255  0.6561
 9910TIP3    H251146   5.787   1.920  12.820 -0.5436  1.6459 -0.8717
 9911TIP3   OH251147   1.566   1.633  14.206  0.4042  0.9099 -0.1129
 9911TIP3    H151148   1.653   1.649  14.171 -0.1149  0.6814 -1.5567
 9911TIP3    H251149   1.522   1.718  14.200  0.9742  1.3962  2.0065
 9912TIP3   OH251150   3.404   5.412   4.676  0.1196  0.2769 -1.2019
 9912TIP3    H151151   3.447   5.493   4.647 -2.4267  1.7931 -0.8906
 9912TIP3    H251152   3.345   5.389   4.604 -0.9708  0.0888 -0.2690
 9913TIP3   OH251153   2.760   2.118   5.421 -0.2254  0.2084  0.1397
 9913TIP3    H151154   2.807   2.038   5.398  0.0773  0.4005  0.0855
 9913TIP3    H251155   2.719   2.098   5.505 -0.4628 -0.1326 -0.0542
 9914TIP3   OH251156   1.718   3.507   0.577 -0.5696  0.5459 -0.1885
 9914TIP3    H151157   1.793   3.565   0.594 -0.0472 -0.2813  0.3279
 9914TIP3    H251158   1.712   3.505   0.481 -0.0504  0.7667 -0.2318
 9915TIP3   OH251159   4.883   0.741   3.423 -0.0909  0.5233  0.2241
 9915TIP3    H151160   4.949   0.673   3.413  0.6894  1.2652  0.2210
 9915TIP3    H251161   4.871   0.775   3.334 -0.4480  0.4194  0.2318
 9916TIP3   OH251162   6.411   1.323   3.256  0.0336 -0.3562 -0.0731
 9916TIP3    H151163   6.484   1.366   3.210  0.6411 -1.9117 -0.5895
 9916TIP3    H251164   6.337   1.332   3.197  0.4409 -1.0176 -0.6868
 9917TIP3   OH251165   3.364   4.141  10.865 -0.1235  0.7302  0.6016
 9917TIP3    H151166   3.307   4.190  10.924 -0.9785  0.1199  0.2937
 9917TIP3    H251167   3.427   4.206  10.833 -1.0452  1.5571  0.4467
 9918TIP3   OH251168   1.370   5.631   4.695  0.3049 -0.0286 -0.0455
 9918TIP3    H151169   1.458   5.604   4.670  0.7115  0.8202  0.4646
 9918TIP3    H251170   1.343   5.566   4.761  1.4445  1.0244  1.4923
 9919TIP3   OH251171   6.741   2.014  12.264 -0.4099 -0.1753  0.4240
 9919TIP3    H151172   6.826   2.041  12.298 -0.5205  1.1396 -0.3158
 9919TIP3    H251173   6.741   1.918  12.272  1.4061 -0.2381 -0.2014
 9920TIP3   OH251174   3.262   0.597  12.985 -0.5414 -0.0493  0.2987
 9920TIP3    H151175   3.217   0.680  12.972 -0.8456 -0.2025  0.3727
 9920TIP3    H251176   3.301   0.578  12.899 -0.4279  0.1922  0.2948
 9921TIP3   OH251177   5.455   0.325   2.647 -0.5436  0.6669 -0.2428
 9921TIP3    H151178   5.483   0.234   2.637 -1.5843  0.1971  1.0131
 9921TIP3    H251179   5.424   0.351   2.560 -0.0759 -0.1170 -0.6486
 9922TIP3   OH251180   0.435   5.289  16.620  0.2684  0.0852  0.3972
 9922TIP3    H151181   0.405   5.222  16.559 -1.2866  2.8465 -1.9913
 9922TIP3    H251182   0.355   5.329  16.653  1.1931  1.4533  1.0290
 9923TIP3   OH251183   6.742   1.791   0.038 -0.2322 -0.3507 -0.4064
 9923TIP3    H151184   6.649   1.769   0.051  0.1701 -1.8393  0.0862
 9923TIP3    H251185   6.771   1.820   0.125  0.3819 -2.3122  0.0638
 9924TIP3   OH251186   3.360   6.193   4.568 -0.2280 -0.4923 -0.2931
 9924TIP3    H151187   3.295   6.144   4.518 -0.9226  0.5615 -0.4385
 9924TIP3    H251188   3.443   6.170   4.527 -0.4936 -1.8571 -0.1056
 9925TIP3   OH251189   1.112   2.150  15.827 -0.1744 -0.0136 -0.0092
 9925TIP3    H151190   1.133   2.202  15.749 -1.2441 -0.8762 -0.8912
 9925TIP3    H251191   1.032   2.189  15.861 -1.5094 -1.5969 -1.2076
 9926TIP3   OH251192   2.325   6.412  13.829 -0.0638 -0.4120  0.5228
 9926TIP3    H151193   2.267   6.384  13.900  0.4764 -2.3852  0.2040
 9926TIP3    H251194   2.281   6.487  13.790 -0.9228 -0.0016  2.2146
 9927TIP3   OH251195   2.084   6.711  15.799  0.0357 -0.1138  0.0066
 9927TIP3    H151196   2.148   6.661  15.749  1.1877  1.6244 -0.2581
 9927TIP3    H251197   2.026   6.749  15.733 -1.3558 -1.7509  0.2471
 9928TIP3   OH251198   3.503   3.704   3.130  0.3746 -0.3489  0.1169
 9928TIP3    H151199   3.506   3.611   3.108  1.7418 -0.3450  0.2402
 9928TIP3    H251200   3.585   3.740   3.096 -1.3554  1.3887 -2.3672
 9929TIP3   OH251201   5.184   3.903   1.659 -0.0268  0.4134 -0.0706
 9929TIP3    H151202   5.231   3.962   1.600  1.3398 -0.2553  0.3279
 9929TIP3    H251203   5.251   3.870   1.718 -1.5240  1.8542  2.5535
 9930TIP3   OH251204   1.479   3.000  10.666 -0.4169  0.1624 -0.0352
 9930TIP3    H151205   1.554   3.060  10.665 -0.9128  0.8107  1.1080
 9930TIP3    H251206   1.421   3.033  10.597  0.1637 -0.1102 -0.6596
 9931TIP3   OH251207   4.219   5.821   2.825 -0.1985 -0.0476 -0.1129
 9931TIP3    H151208   4.226   5.870   2.907 -2.0968  0.7871 -0.4109
 9931TIP3    H251209   4.265   5.875   2.760 -1.0527  0.6540 -0.1449
 9932TIP3   OH251210   5.318   2.335   2.659  0.1359 -0.1286 -0.0792
 9932TIP3    H151211   5.340   2.328   2.566  1.0492  0.9431  0.0515
 9932TIP3    H251212   5.263   2.258   2.676  1.7491 -1.5236 -0.9790
 9933TIP3   OH251213   0.553   6.495   1.421 -0.0323  0.4228 -0.4618
 9933TIP3    H151214   0.574   6.566   1.360  1.5831  0.4601  0.1030
 9933TIP3    H251215   0.577   6.416   1.373  1.0561  0.4417  0.0373
 9934TIP3   OH251216   0.174   2.080   4.023 -0.3154  0.8486  0.4317
 9934TIP3    H151217   0.190   1.990   4.053  2.6029 -0.1131 -3.6074
 9934TIP3    H251218   0.243   2.132   4.065  0.0968  0.5730  0.1008
 9935TIP3   OH251219   3.659   0.665   2.442 -0.6669 -0.5472 -0.3826
 9935TIP3    H151220   3.599   0.678   2.369 -0.0133 -0.7978 -0.9709
 9935TIP3    H251221   3.741   0.706   2.413 -0.3623 -0.7728  0.1487
 9936TIP3   OH251222   5.729   3.292  16.853  0.1395  0.3153  0.0907
 9936TIP3    H151223   5.712   3.260  16.942  1.6176  0.9747  0.6220
 9936TIP3    H251224   5.753   3.213  16.804  0.3390  0.1009  0.5301
 9937TIP3   OH251225   4.073   2.509  11.161  0.4429 -0.4064  0.0855
 9937TIP3    H151226   4.045   2.573  11.096 -0.0462 -1.7981 -1.1004
 9937TIP3    H251227   4.111   2.438  11.110  2.4716 -0.3695  1.4602
 9938TIP3   OH251228   4.693   5.376  11.619  0.4830 -0.0011 -0.5040
 9938TIP3    H151229   4.788   5.381  11.626  0.4475  0.6947 -0.5043
 9938TIP3    H251230   4.669   5.446  11.558  0.2760 -2.3929 -3.2734
 9939TIP3   OH251231   3.809   6.695   3.940  0.2564 -0.2969 -0.4634
 9939TIP3    H151232   3.755   6.763   3.900  1.0176  0.3162 -0.4743
 9939TIP3    H251233   3.880   6.744   3.983 -0.0165 -0.9966  0.8134
 9940TIP3   OH251234   1.019   2.686  12.742 -0.5672  0.2685  0.2455
 9940TIP3    H151235   1.068   2.767  12.751 -0.0235 -0.1170  0.8065
 9940TIP3    H251236   0.933   2.705  12.781  0.3707 -0.1351  2.6056
 9941TIP3   OH251237   5.322   3.800  15.527 -0.0659  0.0593 -0.4019
 9941TIP3    H151238   5.397   3.743  15.511  1.5679  1.8996  0.4973
 9941TIP3    H251239   5.290   3.773  15.613  0.1493 -0.0927 -0.3675
 9942TIP3   OH251240   1.855   3.105   5.106 -1.3044 -0.2546  0.6326
 9942TIP3    H151241   1.831   3.187   5.064  0.0176  0.6598  1.5707
 9942TIP3    H251242   1.776   3.052   5.103 -1.9619  0.7573 -0.6788
 9943TIP3   OH251243   4.689   1.686  11.333 -0.0069  0.1624 -0.2610
 9943TIP3    H151244   4.615   1.658  11.387 -0.8932  1.5095 -0.7555
 9943TIP3    H251245   4.671   1.646  11.248  0.5862 -0.6905  0.0142
 9944TIP3   OH251246   1.178   3.227  10.816 -0.2321  0.7234 -0.0290
 9944TIP3    H151247   1.164   3.315  10.783  0.5048  0.8615  0.0205
 9944TIP3    H251248   1.198   3.175  10.738 -1.2802  0.4589 -0.1388
 9945TIP3   OH251249   1.039   5.093  16.927 -0.8405  0.0586  0.1778
 9945TIP3    H151250   0.991   5.122  16.849  0.7227  1.2108 -0.3687
 9945TIP3    H251251   1.125   5.068  16.895 -0.0757  0.8271  1.5933
 9946TIP3   OH251252   2.684   3.594   3.401 -0.3782 -0.1677 -0.3464
 9946TIP3    H151253   2.717   3.527   3.341  1.0683 -0.0503  0.3177
 9946TIP3    H251254   2.630   3.544   3.463  0.5655 -0.6990  0.0530
 9947TIP3   OH251255   6.694   6.500   4.037  0.5854 -0.1551 -0.0919
 9947TIP3    H151256   6.599   6.505   4.040  0.5334  0.4808 -2.2065
 9947TIP3    H251257   6.713   6.424   3.982  1.2843  0.3626 -0.5728
 9948TIP3   OH251258   2.240   3.014   3.270  0.0111 -0.0772  0.4787
 9948TIP3    H151259   2.299   2.980   3.338  1.4765  1.1976 -0.1074
 9948TIP3    H251260   2.178   2.943   3.254  0.5937 -0.9669  2.0624
 9949TIP3   OH251261   0.022   5.001  10.580 -0.0144 -0.4920 -0.1730
 9949TIP3    H151262  -0.022   5.020  10.663 -1.7650 -0.4592 -1.0785
 9949TIP3    H251263  -0.042   4.951  10.530  0.9378 -0.3206 -1.5904
 9950TIP3   OH251264   4.449   3.939   5.777 -1.0036 -0.3766  0.1219
 9950TIP3    H151265   4.530   3.890   5.788 -1.7923 -1.6182  0.5104
 9950TIP3    H251266   4.425   3.966   5.866 -0.6470  0.5809 -0.0744
 9951TIP3   OH251267   6.516   0.399   1.278 -0.6951 -0.1324  0.0524
 9951TIP3    H151268   6.423   0.411   1.258 -0.6194  1.6424  0.6846
 9951TIP3    H251269   6.516   0.332   1.347 -1.5075 -0.0981  0.0970
 9952TIP3   OH251270   6.664   1.747   3.248 -0.0980 -0.4603  0.4115
 9952TIP3    H151271   6.750   1.728   3.210  0.2736 -0.2563  1.1543
 9952TIP3    H251272   6.678   1.826   3.300 -1.0523  0.3816 -0.5715
 9953TIP3   OH251273   3.620   4.835   2.837  0.5926  0.2021 -0.2125
 9953TIP3    H151274   3.591   4.892   2.766  0.2265 -0.5568 -0.6843
 9953TIP3    H251275   3.619   4.890   2.915 -0.4128  0.6582 -0.5449
 9954TIP3   OH251276   3.172   5.096  11.744 -0.2281 -0.0794 -0.2511
 9954TIP3    H151277   3.203   5.052  11.823 -0.0841  0.6556  0.1114
 9954TIP3    H251278   3.093   5.142  11.772 -0.7059 -0.5884 -0.7654
 9955TIP3   OH251279   1.891   4.794  15.614 -0.2156 -0.2511  0.2735
 9955TIP3    H151280   1.860   4.793  15.524 -0.4699 -1.3736  0.3591
 9955TIP3    H251281   1.823   4.842  15.662 -0.8433 -0.9675  0.1166
 9956TIP3   OH251282   6.250   1.513  12.610  0.1494  0.3470  0.3756
 9956TIP3    H151283   6.172   1.479  12.655 -0.2438 -1.9525 -1.9256
 9956TIP3    H251284   6.217   1.582  12.552  0.1748  0.9454  1.0620
 9957TIP3   OH251285   3.573   3.592   0.845 -0.1048  0.1332 -0.0625
 9957TIP3    H151286   3.501   3.655   0.846  0.8983  1.3087  3.4104
 9957TIP3    H251287   3.532   3.509   0.871 -0.7741  0.0728 -1.2529
 9958TIP3   OH251288   3.590   0.701  12.988  0.4341  0.3494  0.3698
 9958TIP3    H151289   3.597   0.783  12.939  0.2299  1.0382  1.4813
 9958TIP3    H251290   3.551   0.726  13.072 -0.4696 -1.0207  0.3776
 9959TIP3   OH251291   2.778   4.195   3.375 -0.1515  0.0792 -0.0521
 9959TIP3    H151292   2.856   4.163   3.329 -0.0343 -0.5559  0.5734
 9959TIP3    H251293   2.744   4.117   3.420 -0.8616  0.4638  0.0734
 9960TIP3   OH251294   5.800   0.807  13.749 -0.2938 -0.2983  0.6400
 9960TIP3    H151295   5.796   0.749  13.673  1.3850 -0.0064  0.3133
 9960TIP3    H251296   5.795   0.895  13.713  2.9116 -0.0540  0.5817
 9961TIP3   OH251297   2.155   2.503  15.765 -0.0044 -0.1537  0.1329
 9961TIP3    H151298   2.111   2.580  15.729 -3.8902 -2.6170 -0.7665
 9961TIP3    H251299   2.133   2.504  15.859 -1.6719 -1.0786 -0.2156
 9962TIP3   OH251300   2.342   6.488   1.103  0.1610 -0.0047 -0.1144
 9962TIP3    H151301   2.266   6.438   1.132 -1.1525  0.9731 -1.7399
 9962TIP3    H251302   2.395   6.500   1.182 -1.5208 -0.4464  1.1058
 9963TIP3   OH251303   6.516   4.396   2.559 -0.2658 -0.2751  0.4753
 9963TIP3    H151304   6.555   4.314   2.588 -0.7714 -0.5342  0.4153
 9963TIP3    H251305   6.590   4.456   2.552  0.2511 -1.0331 -0.5628
 9964TIP3   OH251306   2.491   2.099  13.205  0.0098 -0.1384  0.4483
 9964TIP3    H151307   2.498   2.143  13.120 -0.5220  0.8687  0.9157
 9964TIP3    H251308   2.578   2.106  13.243  0.2772 -0.6818 -0.0570
 9965TIP3   OH251309   1.978   4.706   6.068 -0.4281 -0.6291  0.1015
 9965TIP3    H151310   1.961   4.800   6.074 -2.1274 -0.7391 -2.1862
 9965TIP3    H251311   2.050   4.690   6.130  0.6638  2.3648 -0.3154
 9966TIP3   OH251312   0.328   4.688  16.306 -0.8086  0.3372 -0.2313
 9966TIP3    H151313   0.250   4.634  16.297 -0.4415  0.0239 -1.6953
 9966TIP3    H251314   0.310   4.745  16.381 -0.9686 -2.1840  1.6949
 9967TIP3   OH251315   4.556   0.813  15.872 -0.5292 -0.7987 -0.7787
 9967TIP3    H151316   4.638   0.771  15.848 -0.9512 -0.3631 -3.1504
 9967TIP3    H251317   4.569   0.905  15.849 -1.7449 -0.7678 -1.3923
 9968TIP3   OH251318   0.438   2.951  16.563 -0.2327 -0.1617  0.3223
 9968TIP3    H151319   0.344   2.966  16.571 -0.0604  1.1076  0.1155
 9968TIP3    H251320   0.451   2.930  16.471 -0.3307 -0.4455  0.3739
 9969TIP3   OH251321   4.465   4.154  12.856 -0.2408  0.2278  0.1969
 9969TIP3    H151322   4.372   4.131  12.851 -0.3634  0.6480  0.5163
 9969TIP3    H251323   4.489   4.177  12.767  0.0173 -1.6566 -0.2446
 9970TIP3   OH251324   3.977   3.653   2.253  0.6917  0.1606 -0.5287
 9970TIP3    H151325   4.053   3.689   2.207  0.0373  1.8147 -0.3383
 9970TIP3    H251326   3.996   3.559   2.259  3.2869  0.6960  0.5576
 9971TIP3   OH251327   4.330   5.179  14.467  0.6502 -0.3934  0.5218
 9971TIP3    H151328   4.341   5.094  14.426  0.1651  0.6385 -1.8519
 9971TIP3    H251329   4.273   5.227  14.407  1.6089  1.8929  1.3788
 9972TIP3   OH251330   3.023   6.060  14.273 -0.4448 -0.6014 -0.3608
 9972TIP3    H151331   2.934   6.028  14.287 -1.7201  2.4571 -0.9152
 9972TIP3    H251332   3.069   6.040  14.354 -2.3188 -0.1233  0.8457
 9973TIP3   OH251333   3.005   5.463  12.810  0.0994 -0.2272  0.2770
 9973TIP3    H151334   2.994   5.541  12.865 -1.8448  0.6109 -1.2475
 9973TIP3    H251335   3.098   5.442  12.817  0.6716  2.2791  0.6817
 9974TIP3   OH251336   4.647   3.997  14.058 -0.7481  0.1557 -0.5356
 9974TIP3    H151337   4.585   3.924  14.051 -2.2682  1.1724  1.7498
 9974TIP3    H251338   4.597   4.074  14.032 -0.0444  0.7998 -0.0133
 9975TIP3   OH251339   6.114   2.251  10.657 -0.3539  0.5682  0.4368
 9975TIP3    H151340   6.209   2.242  10.645 -0.3481  2.1867 -1.0077
 9975TIP3    H251341   6.080   2.163  10.640  0.8403  0.0789  0.4657
 9976TIP3   OH251342   5.226   4.673   3.748 -0.4441 -0.9968 -0.2847
 9976TIP3    H151343   5.134   4.675   3.775  0.1898 -0.5670  1.8792
 9976TIP3    H251344   5.272   4.631   3.820  0.9338 -2.2308 -1.8315
 9977TIP3   OH251345   6.678   5.447  12.407 -0.0670  0.6420 -0.3932
 9977TIP3    H151346   6.719   5.368  12.370  0.8624  0.3209  1.2682
 9977TIP3    H251347   6.616   5.413  12.472  1.8470  1.2832  1.8481
 9978TIP3   OH251348   5.568   4.270   3.897 -0.6424  0.2176 -0.3553
 9978TIP3    H151349   5.598   4.197   3.950  1.6908  1.7906  0.5498
 9978TIP3    H251350   5.474   4.254   3.886 -0.6405 -1.6019  1.8877
 9979TIP3   OH251351   3.989   5.332   6.326 -0.3802  0.2755 -0.5127
 9979TIP3    H151352   3.906   5.336   6.374  0.8204 -0.0944  1.6514
 9979TIP3    H251353   4.048   5.283   6.384  1.3286  0.4540 -2.0630
 9980TIP3   OH251354   0.326   4.313  11.793  0.0161  0.5768  0.8302
 9980TIP3    H151355   0.270   4.391  11.796 -0.0601  0.6298 -1.1304
 9980TIP3    H251356   0.370   4.319  11.708  1.4345 -0.5497  1.4671
 9981TIP3   OH251357   5.578   3.118   4.252 -0.5211 -0.1673 -0.1915
 9981TIP3    H151358   5.546   3.175   4.321 -0.7021 -0.4029 -0.0834
 9981TIP3    H251359   5.516   3.129   4.180 -0.6835 -0.4073 -0.0859
 9982TIP3   OH251360   2.089   3.586  13.579  0.0730 -0.0093 -0.3826
 9982TIP3    H151361   2.130   3.637  13.510 -1.8350  0.3111 -1.3341
 9982TIP3    H251362   1.995   3.591  13.559 -0.3087 -2.0357  0.7647
 9983TIP3   OH251363   0.263   1.568   2.784  0.0542 -0.3105  0.3776
 9983TIP3    H151364   0.195   1.627   2.816 -0.3195 -1.0850  1.0436
 9983TIP3    H251365   0.344   1.606   2.817 -0.2590 -0.6360  1.5688
 9984TIP3   OH251366   1.644   6.695  14.623  0.4737  0.5840 -0.1689
 9984TIP3    H151367   1.596   6.613  14.627  0.6921  0.4126 -0.9360
 9984TIP3    H251368   1.712   6.687  14.690 -0.3382  0.6862  0.6769
 9985TIP3   OH251369   3.278   3.938  12.130  0.1231  0.1211 -0.1833
 9985TIP3    H151370   3.210   3.871  12.132  0.2419  0.0058  0.2474
 9985TIP3    H251371   3.242   4.009  12.078  0.3540 -0.6548 -1.4150
 9986TIP3   OH251372   4.474   6.271   5.200  0.8290  0.0449  0.5490
 9986TIP3    H151373   4.498   6.354   5.241  0.7705  0.7266 -0.7793
 9986TIP3    H251374   4.537   6.260   5.129  0.0488 -0.4140 -0.0863
 9987TIP3   OH251375   1.176   1.175   4.910 -0.0473 -0.3290 -0.0212
 9987TIP3    H151376   1.189   1.114   4.837 -2.0795 -0.8098 -0.0296
 9987TIP3    H251377   1.216   1.257   4.881 -0.8126 -0.5197 -1.6810
 9988TIP3   OH251378   1.228   3.422   6.034 -0.7086 -0.3627  0.1357
 9988TIP3    H151379   1.245   3.368   5.958 -0.1624  1.3410 -0.9801
 9988TIP3    H251380   1.143   3.463   6.016 -0.5942  0.0166  0.4553
 9989TIP3   OH251381   6.009   3.731   0.110 -0.0210  0.5122  0.1549
 9989TIP3    H151382   6.037   3.652   0.063  1.4691  0.3645  1.2500
 9989TIP3    H251383   6.090   3.770   0.141 -0.9621  0.5147  2.7600
 9990TIP3   OH251384   4.918   1.478  12.964 -0.1661 -0.4258 -0.4162
 9990TIP3    H151385   4.973   1.494  12.888  0.0473  0.9239  0.0064
 9990TIP3    H251386   4.970   1.509  13.038 -0.1016 -2.3181  0.3762
 9991TIP3   OH251387   3.013   6.737  13.630 -0.0087 -0.3969 -0.0938
 9991TIP3    H151388   3.071   6.802  13.670 -0.4668  0.0745 -0.1926
 9991TIP3    H251389   2.925   6.764  13.656 -0.1075 -1.9357  1.2643
 9992TIP3   OH251390   5.246   1.158  11.015  0.0751  0.0259  0.4550
 9992TIP3    H151391   5.306   1.090  11.047  0.0889 -0.0522  0.2649
 9992TIP3    H251392   5.304   1.229  10.987 -0.0199  1.0281  2.7396
 9993TIP3   OH251393   6.061   2.280  15.470  0.4983  0.1146  0.1279
 9993TIP3    H151394   6.073   2.188  15.494  1.4718 -0.0536 -0.9724
 9993TIP3    H251395   6.108   2.290  15.388  0.2653  1.5676  0.1558
 9994TIP3   OH251396   5.635   5.713   3.269  0.3240 -0.6385 -0.0595
 9994TIP3    H151397   5.664   5.706   3.360  0.6134 -2.5829 -0.2721
 9994TIP3    H251398   5.716   5.731   3.220  0.4947 -1.6656 -0.1600
 9995TIP3   OH251399   4.772   6.420  12.335 -0.5653 -0.5587  0.0533
 9995TIP3    H151400   4.744   6.329  12.340 -0.0561 -0.9808 -3.4564
 9995TIP3    H251401   4.855   6.422  12.382  0.4504 -2.4021 -1.5658
 9996TIP3   OH251402   0.984   5.389   6.592 -0.4241 -0.3151  0.6148
 9996TIP3    H151403   0.974   5.294   6.597 -1.1802 -0.2942 -0.3560
 9996TIP3    H251404   0.953   5.412   6.504 -1.1798  0.9383  1.1892
 9997TIP3   OH251405   3.090   6.401  13.191 -0.0016 -0.0389  0.0439
 9997TIP3    H151406   3.016   6.451  13.158 -0.3350  0.4095  1.4375
 9997TIP3    H251407   3.161   6.465  13.199 -0.0109 -0.0804  0.4729
 9998TIP3   OH251408   4.689   4.361  16.769  0.7275  0.0223  0.1292
 9998TIP3    H151409   4.669   4.272  16.796  0.2786  0.6175  1.8258
 9998TIP3    H251410   4.720   4.404  16.849  0.5235  1.5132 -0.5749
 9999TIP3   OH251411   0.536   4.029   2.811 -0.1458  0.5315 -0.4154
 9999TIP3    H151412   0.566   4.072   2.891 -0.3461 -1.8812  1.0140
 9999TIP3    H251413   0.577   4.078   2.740  3.4291  0.2062  1.3183
10000TIP3   OH251414   5.654   2.579   3.486  0.0226  0.0757 -0.0164
10000TIP3    H151415   5.625   2.619   3.404  0.3936  0.4869  0.0488
10000TIP3    H251416   5.607   2.627   3.554  0.1621  0.1342  0.0405
10001TIP3   OH251417   4.917   5.984   0.932 -0.0403  0.0038 -0.3487
10001TIP3    H151418   4.907   6.041   0.856  1.0743  0.7341  0.0314
10001TIP3    H251419   4.881   6.034   1.005 -1.8527 -1.0195 -0.5088
10002TIP3   OH251420   2.945   6.375   1.640  0.5943 -0.3935 -0.0032
10002TIP3    H151421   2.862   6.405   1.676 -0.2136 -0.9690 -1.3659
10002TIP3    H251422   2.994   6.344   1.717 -0.2494  0.3800  0.8637
10003TIP3   OH251423   3.756   5.984  14.750 -0.6391 -0.0429 -0.0057
10003TIP3    H151424   3.777   5.892  14.761  0.4195  0.3228  1.1871
10003TIP3    H251425   3.665   5.985  14.720 -0.6129 -1.4710 -0.1640
10004TIP3   OH251426   0.171   0.559  14.379 -0.4189  0.3545 -0.1235
10004TIP3    H151427   0.220   0.594  14.305  3.2274 -1.3149  1.3814
10004TIP3    H251428   0.154   0.467  14.356 -0.2642  0.1357  0.6174
10005TIP3   OH251429   1.883   5.075  12.146  0.4592 -0.3410 -0.2095
10005TIP3    H151430   1.951   5.029  12.196 -0.6813 -0.9596  0.7795
10005TIP3    H251431   1.907   5.060  12.055  1.5556 -0.7058  0.1182
10006TIP3   OH251432   3.816   2.332  13.322  0.3406  0.0812  0.2612
10006TIP3    H151433   3.739   2.324  13.267  1.4382 -0.3388 -1.2339
10006TIP3    H251434   3.871   2.396  13.278  1.3662 -0.4780  0.7077
10007TIP3   OH251435   3.690   6.299   2.309 -0.4012  0.1142 -0.2857
10007TIP3    H151436   3.729   6.238   2.247  0.2112 -0.3281  0.5412
10007TIP3    H251437   3.627   6.247   2.358  0.3588  0.0714  0.6438
10008TIP3   OH251438   0.816   5.688   2.962 -0.0095  0.0299  0.3411
10008TIP3    H151439   0.900   5.686   2.917 -0.4435  0.1560 -0.5012
10008TIP3    H251440   0.753   5.660   2.895 -0.7896  1.1976  0.5627
10009TIP3   OH251441   2.855   4.251   5.832  0.2682  0.1880  0.1687
10009TIP3    H151442   2.862   4.203   5.915  1.1889  1.3023  0.7459
10009TIP3    H251443   2.937   4.300   5.825 -0.3305  1.0828 -0.7872
10010TIP3   OH251444   1.668   5.964   0.557 -0.4065  0.3785  0.4866
10010TIP3    H151445   1.637   6.037   0.504  0.9697  0.6122 -0.0278
10010TIP3    H251446   1.700   5.900   0.493  0.8370  0.4721  0.9967
10011TIP3   OH251447   2.317   6.117   2.644 -0.1463  0.0479  0.2988
10011TIP3    H151448   2.286   6.188   2.701  0.2933  0.7270 -0.2973
10011TIP3    H251449   2.381   6.159   2.587  1.3385 -1.1693  1.0133
10012TIP3   OH251450   2.703   2.361   1.934  0.6876  0.2826  0.2616
10012TIP3    H151451   2.709   2.436   1.875  1.3239 -1.2537 -1.6548
10012TIP3    H251452   2.653   2.296   1.885 -1.0782 -0.0679  2.4449
10013TIP3   OH251453   2.588   1.223  13.046 -0.7018  0.2483  0.6210
10013TIP3    H151454   2.682   1.213  13.062 -0.5262 -0.0791 -0.6182
10013TIP3    H251455   2.580   1.308  13.004 -0.8445 -0.1929 -0.2474
10014TIP3   OH251456   0.319   0.405  14.785  0.1665 -0.1406 -0.0425
10014TIP3    H151457   0.328   0.311  14.772  3.1618  0.2264 -1.1393
10014TIP3    H251458   0.356   0.444  14.706  0.6631  1.9567  1.1590
10015TIP3   OH251459   1.703   2.251  12.469  0.0226 -0.0846 -0.4686
10015TIP3    H151460   1.714   2.339  12.431  0.3943 -0.0359 -0.2500
10015TIP3    H251461   1.784   2.205  12.447  0.2747 -0.0310  0.3232
10016TIP3   OH251462   4.875   5.874   1.614 -0.0004  0.1295  0.1094
10016TIP3    H151463   4.910   5.908   1.532 -2.1496 -2.4758 -1.9965
10016TIP3    H251464   4.813   5.941   1.643  0.8842  1.1422 -0.3305
10017TIP3   OH251465   4.841   0.415   5.043  0.5490  0.4103  0.2498
10017TIP3    H151466   4.918   0.359   5.047  1.8189  2.1444  0.4990
10017TIP3    H251467   4.779   0.375   5.104  1.0884 -1.2122 -0.2390
10018TIP3   OH251468   0.104   1.321   3.250  0.2512  0.1785  0.2533
10018TIP3    H151469   0.158   1.302   3.173 -0.4832 -1.6303  0.1476
10018TIP3    H251470   0.159   1.294   3.324  0.4387  0.6460  0.2831
10019TIP3   OH251471   1.959   6.178   5.087 -0.2600 -0.2946  0.1819
10019TIP3    H151472   2.029   6.187   5.152 -0.9456  1.0189  0.7660
10019TIP3    H251473   2.003   6.145   5.009  0.9526  0.2197  0.6325
10020TIP3   OH251474   0.662   2.128  15.540  0.0251  0.2811  0.0870
10020TIP3    H151475   0.745   2.109  15.497  1.3225  0.8268  2.2624
10020TIP3    H251476   0.662   2.073  15.618 -1.0612  1.2255  0.7745
10021TIP3   OH251477   5.187   3.485  14.554  0.4473  0.1039 -0.3079
10021TIP3    H151478   5.245   3.548  14.511 -0.2046  0.4041 -0.7540
10021TIP3    H251479   5.099   3.509  14.524  0.0356 -0.0073  0.7983
10022TIP3   OH251480   4.604   4.467   4.327 -0.1856  0.1360 -0.0340
10022TIP3    H151481   4.675   4.514   4.284 -0.6720  0.7614 -0.1710
10022TIP3    H251482   4.560   4.534   4.380  1.1306 -0.8766  2.3871
10023TIP3   OH251483   4.046   2.892   3.956  0.1436 -0.2580  1.0717
10023TIP3    H151484   3.978   2.904   4.022 -0.0866 -0.1076  0.8115
10023TIP3    H251485   4.091   2.977   3.952  0.2622 -0.3167  1.1503
10024TIP3   OH251486   2.233   2.922   4.080 -0.2961  0.7658 -0.6257
10024TIP3    H151487   2.172   2.851   4.099 -1.5754  1.6069 -1.5191
10024TIP3    H251488   2.266   2.949   4.165 -0.4649 -0.2963 -0.2097
10025TIP3   OH251489   5.214   1.543  13.787  0.5019 -0.0230 -0.1539
10025TIP3    H151490   5.184   1.632  13.769 -1.3906 -0.7565 -0.6816
10025TIP3    H251491   5.253   1.548  13.874  0.7195  1.3918 -0.3221
10026TIP3   OH251492   1.575   6.217  15.647  0.6004 -0.6954 -0.6671
10026TIP3    H151493   1.566   6.290  15.708  0.5321 -1.9173  0.8269
10026TIP3    H251494   1.627   6.152  15.695  1.7118 -1.1458 -2.4186
10027TIP3   OH251495   1.299   0.694  15.449 -0.0960 -0.7985 -0.1987
10027TIP3    H151496   1.352   0.733  15.380  1.9502 -1.1584  1.1280
10027TIP3    H251497   1.317   0.748  15.526 -1.6415 -0.9521  0.2882
10028TIP3   OH251498   0.278   4.586  12.147  0.3584 -0.2465 -0.0174
10028TIP3    H151499   0.203   4.646  12.139  2.1507  2.1567  0.6309
10028TIP3    H251500   0.307   4.573  12.057 -0.7814 -1.1409 -0.2679
10029TIP3   OH251501   4.507   5.102  13.285  0.2914  0.1419  0.4248
10029TIP3    H151502   4.457   5.026  13.315 -0.8149  0.3699 -0.7960
10029TIP3    H251503   4.528   5.150  13.366 -3.9335  1.5564  0.8227
10030TIP3   OH251504   0.077   3.548  12.288 -0.0737  0.6948 -0.2179
10030TIP3    H151505   0.048   3.639  12.300 -2.6398  0.1242 -1.8088
10030TIP3    H251506   0.047   3.525  12.201  2.1800 -1.1312 -0.5547
10031TIP3   OH251507   4.944   5.204  14.115  0.3870 -0.0004  0.1336
10031TIP3    H151508   4.967   5.230  14.204 -0.5480 -0.0544  0.3983
10031TIP3    H251509   4.920   5.111  14.123 -0.8377  0.3074  0.0375
10032TIP3   OH251510   2.746   6.391  14.892 -0.0207 -0.3388 -0.2578
10032TIP3    H151511   2.729   6.448  14.966 -1.5009 -0.9457 -0.1240
10032TIP3    H251512   2.842   6.391  14.883  0.1327  0.1276  1.3278
10033TIP3   OH251513   0.616   3.323  14.379 -0.3558 -0.0055  0.5437
10033TIP3    H151514   0.593   3.402  14.330  2.6219 -0.2638 -1.3762
10033TIP3    H251515   0.559   3.255  14.343 -0.5458  0.5359 -0.1850
10034TIP3   OH251516   3.985   0.399   0.769 -0.5637 -0.3748 -0.2734
10034TIP3    H151517   3.949   0.356   0.691  0.5065  1.5845 -1.9059
10034TIP3    H251518   3.910   0.409   0.827 -1.3946 -1.8479 -1.0488
10035TIP3   OH251519   3.906   0.119  16.527  0.2070 -0.2217 -0.1613
10035TIP3    H151520   3.858   0.077  16.456  0.9698  0.5904 -1.1600
10035TIP3    H251521   3.874   0.209  16.527  0.4916 -0.1190  0.2933
10036TIP3   OH251522   0.586   1.139   1.486  0.0164 -0.2827  0.5374
10036TIP3    H151523   0.519   1.201   1.456  1.3300  0.8697 -0.0571
10036TIP3    H251524   0.537   1.073   1.534 -1.3695  1.4981  1.6612
10037TIP3   OH251525   6.695   5.020   4.210  0.2459  0.1061  0.2993
10037TIP3    H151526   6.691   4.990   4.301  0.6002  0.7045  0.5213
10037TIP3    H251527   6.608   5.056   4.193  0.6041  1.2823  0.8715
10038TIP3   OH251528   0.851   4.170   3.957  0.2361 -0.0680 -0.1949
10038TIP3    H151529   0.875   4.154   3.866 -1.3429  1.8373 -0.9942
10038TIP3    H251530   0.763   4.208   3.952 -0.1504 -0.5608  2.1749
10039TIP3   OH251531   4.521   5.284   6.221 -0.1571 -0.8377  0.0186
10039TIP3    H151532   4.588   5.264   6.287 -0.6053  0.1099  0.7589
10039TIP3    H251533   4.460   5.343   6.265 -0.6790 -0.5183 -1.1198
10040TIP3   OH251534   6.340   3.595  17.146 -0.1048 -0.1660 -0.2977
10040TIP3    H151535   6.410   3.658  17.167  0.5561 -0.2795 -2.1016
10040TIP3    H251536   6.271   3.648  17.108 -0.5679 -0.2058  0.4780
10041TIP3   OH251537   5.033   6.113  16.174  0.0400 -0.0300  0.7119
10041TIP3    H151538   5.024   6.104  16.079  0.4111  0.2791  0.6490
10041TIP3    H251539   5.101   6.179  16.186  0.5253 -0.6036  1.1916
10042TIP3   OH251540   5.468   3.638  11.500  0.3922  0.1975 -0.0503
10042TIP3    H151541   5.415   3.650  11.579 -0.0341 -2.1558  0.0677
10042TIP3    H251542   5.548   3.596  11.531  0.3959 -0.3717 -0.8028
10043TIP3   OH251543   3.699   2.121   2.456  0.4504  0.4062 -0.5644
10043TIP3    H151544   3.745   2.176   2.519  0.4340  0.9423 -1.0177
10043TIP3    H251545   3.736   2.145   2.371  0.2833 -0.1190 -0.7866
10044TIP3   OH251546   1.103   0.983  16.168  0.1374  0.1201 -0.2232
10044TIP3    H151547   1.110   1.077  16.153  1.1603 -0.1724 -1.6048
10044TIP3    H251548   1.038   0.953  16.105 -0.6847 -0.0123  0.6675
10045TIP3   OH251549   3.756   4.689  14.474 -0.0455  0.1845 -0.1942
10045TIP3    H151550   3.770   4.777  14.510  0.2062 -0.4584  1.3133
10045TIP3    H251551   3.843   4.648  14.478 -0.4288 -0.5878  0.3750
10046TIP3   OH251552   6.132   1.044  13.973 -0.2746  0.5717  0.4017
10046TIP3    H151553   6.196   1.007  14.034  0.1037  1.6849  0.6988
10046TIP3    H251554   6.185   1.084  13.904 -0.6627  0.9272  0.3056
10047TIP3   OH251555   5.026   1.933  13.919 -0.3608  0.6643  0.8884
10047TIP3    H151556   5.074   1.864  13.964 -0.0605  1.6685  2.1469
10047TIP3    H251557   4.934   1.919  13.945 -0.0165  2.0996  3.0385
10048TIP3   OH251558   6.587   6.157  16.484  0.1547  0.5493 -0.2083
10048TIP3    H151559   6.521   6.179  16.550  0.0379 -3.0798  0.9819
10048TIP3    H251560   6.667   6.199  16.515 -0.2287 -0.0020  1.5579
10049TIP3   OH251561   4.191   5.094   1.995 -0.1951  0.2538  0.3498
10049TIP3    H151562   4.237   5.178   1.999  0.2426  0.1024 -1.0849
10049TIP3    H251563   4.256   5.032   1.961 -0.9856 -0.3016 -0.1882
10050TIP3   OH251564   2.493   0.333  15.328 -0.3482 -0.3928  0.0737
10050TIP3    H151565   2.496   0.406  15.266 -1.8545 -0.7901 -0.4910
10050TIP3    H251566   2.546   0.264  15.288  0.6817  0.2129  0.3817
10051TIP3   OH251567   1.905   0.214  11.525 -0.7909 -0.2219  0.0072
10051TIP3    H151568   1.927   0.136  11.474 -0.9304  0.5855 -1.3083
10051TIP3    H251569   1.840   0.260  11.473 -1.6574  0.1475  1.3731
10052TIP3   OH251570   0.521   1.259  17.176  0.1169 -0.0608 -0.0309
10052TIP3    H151571   0.557   1.308  17.103  1.2689 -0.7530  0.0587
10052TIP3    H251572   0.453   1.316  17.212  0.1792  0.6756 -1.0516
10053TIP3   OH251573   5.711   6.695  11.449 -0.2630 -0.0646  0.5458
10053TIP3    H151574   5.761   6.617  11.427  0.5613  0.7576 -0.5689
10053TIP3    H251575   5.728   6.710  11.542 -0.0604 -0.9301  0.6511
10054TIP3   OH251576   1.513   6.738   0.654 -0.3948 -0.3042  0.2735
10054TIP3    H151577   1.579   6.782   0.707 -0.0074  0.3114 -0.7208
10054TIP3    H251578   1.520   6.646   0.679  1.7363 -0.4563 -0.7655
10055TIP3   OH251579   4.377   2.973   2.668 -0.0347  0.1712 -0.3977
10055TIP3    H151580   4.468   2.944   2.655 -0.0227  0.4908 -1.0188
10055TIP3    H251581   4.347   2.924   2.745  0.2564 -0.8740 -0.9470
10056TIP3   OH251582   1.781   4.388  15.649 -1.0434 -0.2548  0.4443
10056TIP3    H151583   1.753   4.325  15.583 -1.5559 -0.7156  1.0997
10056TIP3    H251584   1.836   4.338  15.709  1.0116  0.5803 -0.6772
10057TIP3   OH251585   5.293   5.930   2.001  0.1631 -0.3820  0.0221
10057TIP3    H151586   5.319   5.951   2.091  2.4093 -1.3040 -0.3795
10057TIP3    H251587   5.330   5.844   1.985 -1.1873 -0.7130 -1.4275
10058TIP3   OH251588   5.647   5.296  13.024 -0.1249 -0.3279  0.6378
10058TIP3    H151589   5.589   5.348  13.081  0.2862 -0.4839  1.2040
10058TIP3    H251590   5.711   5.359  12.991  0.5439 -0.5234  1.5491
10059TIP3   OH251591   1.504   4.121  10.831 -0.0882 -0.4721  0.0185
10059TIP3    H151592   1.457   4.175  10.769  0.4621  0.7072  0.5998
10059TIP3    H251593   1.454   4.039  10.836 -0.2038 -0.5233 -1.8451
10060TIP3   OH251594   5.294   3.629  13.709 -0.5673 -0.0195 -0.2270
10060TIP3    H151595   5.210   3.586  13.695 -0.5884  0.0226 -0.2274
10060TIP3    H251596   5.338   3.575  13.774 -1.2968  0.9399  1.0688
10061TIP3   OH251597   6.671   1.452   4.874 -0.5455  0.3555  0.6847
10061TIP3    H151598   6.583   1.414   4.876 -0.3897 -0.1251 -0.8278
10061TIP3    H251599   6.712   1.412   4.797  0.6304  1.3874  0.7701
10062TIP3   OH251600   1.589   3.099   0.133 -0.2241  0.3614  0.3258
10062TIP3    H151601   1.681   3.127   0.127 -0.8725  2.6138  0.5270
10062TIP3    H251602   1.549   3.161   0.194 -1.8260 -0.7816  0.4631
10063TIP3   OH251603   6.757   6.390   1.067  0.1549  0.5744  0.4607
10063TIP3    H151604   6.809   6.434   1.000 -0.3383  0.3224 -0.0987
10063TIP3    H251605   6.819   6.336   1.116  0.7317  1.7195  1.0122
10064TIP3   OH251606   1.026   0.608  12.165 -0.1336  0.9671  0.4333
10064TIP3    H151607   0.989   0.691  12.194  0.6317  1.1431  0.9366
10064TIP3    H251608   1.066   0.628  12.080  1.4339  1.5131  1.2714
10065TIP3   OH251609   0.718   0.233   0.800 -0.4613  0.5103  0.0421
10065TIP3    H151610   0.777   0.274   0.863 -0.6694 -0.5059  0.9079
10065TIP3    H251611   0.630   0.248   0.834 -0.6624  1.2524 -0.7871
10066TIP3   OH251612   4.261   2.583   4.904 -0.0115 -0.4083 -0.2519
10066TIP3    H151613   4.201   2.626   4.965  0.3845 -0.9897  0.5583
10066TIP3    H251614   4.341   2.636   4.908  0.5471 -1.3398  0.9008
10067TIP3   OH251615   4.641   4.544  16.437  0.0108 -0.5052 -0.0861
10067TIP3    H151616   4.708   4.477  16.452  1.0708  0.6369  0.3636
10067TIP3    H251617   4.671   4.591  16.359 -1.2314 -1.1568 -0.9722
10068TIP3   OH251618   5.619   4.957   3.136  0.2327 -0.3559 -0.2689
10068TIP3    H151619   5.631   4.889   3.070 -1.1183 -1.3671  0.4972
10068TIP3    H251620   5.611   5.038   3.086 -0.8520 -1.1179 -1.3704
10069TIP3   OH251621   4.568   1.825   2.814 -0.0609 -0.4201 -0.1789
10069TIP3    H151622   4.634   1.775   2.862  0.4856 -1.0616 -1.5600
10069TIP3    H251623   4.511   1.759   2.775 -0.6903  0.1009 -0.1502
10070TIP3   OH251624   0.206   0.556  16.713  0.5927 -1.0401 -0.3090
10070TIP3    H151625   0.139   0.508  16.665 -0.1461  2.6066 -3.1418
10070TIP3    H251626   0.275   0.571  16.649  0.6431  1.9225  0.3645
10071TIP3   OH251627   5.239   6.332  12.846 -0.4066  0.2306  0.4439
10071TIP3    H151628   5.174   6.382  12.796  0.3179 -1.1003 -1.9523
10071TIP3    H251629   5.212   6.341  12.937 -2.4769  1.7969 -0.2844
10072TIP3   OH251630   5.935   3.348  17.099  0.0130  0.5240 -0.1378
10072TIP3    H151631   5.956   3.255  17.104 -0.3289  0.4862  0.6553
10072TIP3    H251632   5.956   3.372  17.009  1.6287  0.0430  0.0900
10073TIP3   OH251633   5.415   3.741  16.688 -0.0733 -0.3367 -0.4992
10073TIP3    H151634   5.367   3.664  16.658 -0.5080 -0.7212  1.1101
10073TIP3    H251635   5.366   3.772  16.764  1.1975  0.3604  0.0575
10074TIP3   OH251636   1.027   2.733  16.338  0.1290  0.6368 -0.2043
10074TIP3    H151637   1.094   2.799  16.319  0.8167 -0.2577 -0.9381
10074TIP3    H251638   1.075   2.651  16.344 -0.4842  0.4175  2.4072
10075TIP3   OH251639   5.522   2.488  13.763 -0.0100  0.0247 -0.3753
10075TIP3    H151640   5.489   2.399  13.779  1.2008 -0.2332  0.7689
10075TIP3    H251641   5.511   2.533  13.846  0.0917  0.7153 -0.7347
10076TIP3   OH251642   3.914   5.410  13.018  0.2562 -0.3488 -0.2945
10076TIP3    H151643   3.987   5.348  13.024 -1.4566 -2.5085 -0.8107
10076TIP3    H251644   3.893   5.412  12.924 -0.1418  0.4918 -0.1899
10077TIP3   OH251645   1.330   2.162  11.044 -0.0921  0.2368 -0.4921
10077TIP3    H151646   1.382   2.172  11.124 -1.7175 -1.0555  0.7644
10077TIP3    H251647   1.261   2.100  11.068 -0.8594  0.1598 -2.7862
10078TIP3   OH251648   4.183   2.650   2.216 -0.7283 -0.2883 -0.5853
10078TIP3    H151649   4.133   2.586   2.164 -0.9457 -0.7061  0.1213
10078TIP3    H251650   4.243   2.596   2.268 -0.5932  0.1148 -0.3246
10079TIP3   OH251651   4.246   3.573  16.852  0.6019  0.6085  0.2746
10079TIP3    H151652   4.263   3.590  16.759 -0.9673 -0.5570 -0.2260
10079TIP3    H251653   4.185   3.642  16.878 -1.0486 -0.6565 -0.2347
10080TIP3   OH251654   6.458   4.438   6.498 -0.1702 -0.0195 -0.4884
10080TIP3    H151655   6.517   4.367   6.474 -1.3712 -1.4773  0.8046
10080TIP3    H251656   6.388   4.434   6.433 -0.1266  0.1151 -0.5440
10081TIP3   OH251657   0.140   4.081   0.302  0.6174 -0.5985  0.3613
10081TIP3    H151658   0.193   4.151   0.341 -0.0038 -0.9998  1.9529
10081TIP3    H251659   0.173   4.001   0.343  1.1035 -1.2173 -1.2072
10082TIP3   OH251660   4.600   0.416  15.003  0.0897 -0.3156  0.3243
10082TIP3    H151661   4.619   0.363  15.081  0.4471 -0.9331 -0.1783
10082TIP3    H251662   4.685   0.425  14.959 -0.2315 -0.5161 -0.3377
10083TIP3   OH251663   5.050   1.292  16.881  0.3061 -0.1767  0.4533
10083TIP3    H151664   5.108   1.354  16.838 -1.6616  2.3002  1.2539
10083TIP3    H251665   4.982   1.272  16.816 -0.2688  0.2102  0.9289
10084TIP3   OH251666   4.727   1.112   5.915  0.3225  0.3125 -0.3391
10084TIP3    H151667   4.652   1.054   5.899  0.6090  0.3040 -1.6922
10084TIP3    H251668   4.800   1.052   5.934 -0.1525  0.3381  1.6770
10085TIP3   OH251669   6.294   3.654   4.179  0.1144  0.0955 -0.1395
10085TIP3    H151670   6.356   3.650   4.252  0.1607 -1.0256 -0.2308
10085TIP3    H251671   6.259   3.742   4.183  0.7463  0.3215  0.7254
10086TIP3   OH251672   2.988   4.841  14.153 -0.1208 -0.0558  0.2691
10086TIP3    H151673   2.899   4.806  14.145  0.1155 -0.3013 -1.4415
10086TIP3    H251674   3.019   4.807  14.237 -0.6279 -2.2799 -0.4237
10087TIP3   OH251675   0.745   4.770   1.283 -0.1254  0.1264  0.1626
10087TIP3    H151676   0.653   4.783   1.306  0.1463  1.4761  0.5305
10087TIP3    H251677   0.748   4.683   1.243 -1.6325  0.2695 -0.2749
10088TIP3   OH251678   2.553   1.667   5.918 -0.2834  0.5154  1.0623
10088TIP3    H151679   2.478   1.717   5.886 -0.9657 -1.2068 -0.0954
10088TIP3    H251680   2.566   1.598   5.854  2.8592  1.2500  0.8047
10089TIP3   OH251681   5.058   3.690  11.912  0.3658 -0.0736 -0.0956
10089TIP3    H151682   5.100   3.605  11.926  1.0076  0.3139  0.3107
10089TIP3    H251683   5.019   3.712  11.997  1.7552  0.8895  0.3159
10090TIP3   OH251684   6.450   1.930  12.565 -0.3251 -0.1238 -0.4963
10090TIP3    H151685   6.482   2.011  12.525 -3.5881  1.5803  0.1704
10090TIP3    H251686   6.452   1.947  12.659  0.8131 -1.5738 -0.2421
10091TIP3   OH251687   1.210   0.865   1.646 -0.1866  0.1349  0.5688
10091TIP3    H151688   1.179   0.826   1.565 -0.7308  0.6957  0.5110
10091TIP3    H251689   1.155   0.826   1.714 -0.5723  0.6322  0.5367
10092TIP3   OH251690   2.506   4.328  15.384  0.1222 -0.2175  0.1930
10092TIP3    H151691   2.491   4.409  15.433  2.0625  0.5413 -0.4036
10092TIP3    H251692   2.485   4.351  15.293  0.7506 -0.3615  0.0104
10093TIP3   OH251693   1.896   2.098   3.169 -0.8059  0.0803 -0.0929
10093TIP3    H151694   1.978   2.068   3.210  0.7947  0.9472 -2.5405
10093TIP3    H251695   1.831   2.032   3.193  2.0589 -4.2425 -3.3940
10094TIP3   OH251696   3.159   6.089  11.119 -0.5362  0.3616  0.2317
10094TIP3    H151697   3.101   6.013  11.124  0.9075 -0.8029 -0.3235
10094TIP3    H251698   3.208   6.086  11.202  0.8491 -0.4102 -0.6080
10095TIP3   OH251699   2.381   4.576   1.783  0.8300  0.0376 -0.3908
10095TIP3    H151700   2.330   4.539   1.855  1.0804  2.3955  1.0349
10095TIP3    H251701   2.438   4.504   1.755 -1.1898 -1.7185 -0.0706
10096TIP3   OH251702   4.027   5.207  15.845 -0.0722 -0.4206  0.5299
10096TIP3    H151703   4.108   5.258  15.841 -0.5433  0.4281  1.4427
10096TIP3    H251704   4.056   5.116  15.854  0.7787 -0.2309 -0.2811
10097TIP3   OH251705   3.997   4.668   2.385 -0.2801  0.0498  0.1240
10097TIP3    H151706   4.012   4.641   2.294  2.5140 -1.1195  0.8762
10097TIP3    H251707   3.954   4.593   2.426 -0.3722  0.0768  0.0754
10098TIP3   OH251708   2.431   2.302  11.987  0.0474  0.3155 -0.2121
10098TIP3    H151709   2.421   2.206  11.988  0.2519  0.2932 -0.2581
10098TIP3    H251710   2.405   2.329  12.075  1.4702  0.0546  0.3117
10099TIP3   OH251711   4.188   5.263   2.903 -0.2875 -0.1896 -0.3791
10099TIP3    H151712   4.164   5.177   2.870  2.3207 -0.7772 -0.8507
10099TIP3    H251713   4.235   5.304   2.831 -0.1655  1.0300  0.3825
10100TIP3   OH251714   0.932   3.687  13.524 -0.3334  0.3250  0.2305
10100TIP3    H151715   0.888   3.770  13.513 -0.5545  0.0341 -1.1188
10100TIP3    H251716   0.915   3.639  13.443  2.5320  0.2568 -0.3766
10101TIP3   OH251717   3.373   0.379   1.846 -0.1228 -0.1051  0.4135
10101TIP3    H151718   3.415   0.298   1.817 -1.7657 -0.4064 -1.2484
10101TIP3    H251719   3.309   0.351   1.911 -2.1106 -0.4336 -1.6223
10102TIP3   OH251720   3.829   0.120  14.669  0.3141  0.1399  0.2167
10102TIP3    H151721   3.872   0.076  14.742 -1.8077  0.8680  1.9660
10102TIP3    H251722   3.736   0.105  14.683 -0.2591  2.1618 -1.1329
10103TIP3   OH251723   4.932   6.468  14.745 -0.8707  0.1762  0.0165
10103TIP3    H151724   4.911   6.560  14.730 -0.1841  0.1915 -0.8899
10103TIP3    H251725   4.943   6.461  14.840 -1.0487  1.0014  0.1009
10104TIP3   OH251726   3.992   3.633   3.874 -0.4279 -0.5019  0.5653
10104TIP3    H151727   3.997   3.695   3.801  2.0103 -1.8789 -0.5008
10104TIP3    H251728   3.900   3.606   3.877 -0.8078  0.5662 -1.1347
10105TIP3   OH251729   5.825   6.469   5.628 -0.0761 -0.0925  0.0501
10105TIP3    H151730   5.866   6.423   5.555 -0.3520  0.4576 -0.4577
10105TIP3    H251731   5.896   6.485   5.690 -0.2417 -2.4542  0.8926
10106TIP3   OH251732   5.472   2.962   4.782  0.8192 -0.4359  0.1047
10106TIP3    H151733   5.458   2.955   4.876 -1.3551 -2.0771 -0.2915
10106TIP3    H251734   5.385   2.952   4.744  1.5145  1.2474 -2.0532
10107TIP3   OH251735   5.696   4.048  13.999  0.3230 -0.0285 -0.9569
10107TIP3    H151736   5.617   4.076  14.044  0.9840 -1.6082  1.2895
10107TIP3    H251737   5.761   4.114  14.021  0.5651 -0.6412  0.2250
10108TIP3   OH251738   0.498   0.805  16.415 -0.0979  0.1068 -0.4627
10108TIP3    H151739   0.504   0.883  16.360  0.1148 -0.0667 -0.6855
10108TIP3    H251740   0.500   0.838  16.504 -1.9738  0.5188 -0.5573
10109TIP3   OH251741   5.940   0.656   0.400  0.0940  0.1848 -0.1162
10109TIP3    H151742   5.885   0.635   0.476 -0.7050  0.1344 -0.7000
10109TIP3    H251743   5.906   0.739   0.368  1.0597  0.6941  0.1521
10110TIP3   OH251744   5.632   6.514  13.639  0.2505 -0.4974 -0.4409
10110TIP3    H151745   5.603   6.600  13.670  1.4326 -0.1556 -0.2476
10110TIP3    H251746   5.574   6.452  13.684  0.8288  0.0846  1.1467
10111TIP3   OH251747   4.371   3.214   1.607  0.2162 -0.4279 -0.1125
10111TIP3    H151748   4.438   3.269   1.566 -0.2958 -0.2659 -0.7432
10111TIP3    H251749   4.380   3.129   1.563 -0.1721 -0.3257 -0.3888
10112TIP3   OH251750   2.211   4.046  14.529 -0.3786  0.3244 -0.3927
10112TIP3    H151751   2.172   4.041  14.616 -0.2454 -0.6074 -0.3723
10112TIP3    H251752   2.158   3.987  14.476  0.9285 -0.9201 -0.3785
10113TIP3   OH251753   6.506   3.061   1.078  0.2791 -0.4650 -0.4222
10113TIP3    H151754   6.485   2.968   1.090 -0.3983 -0.3730 -0.9187
10113TIP3    H251755   6.452   3.089   1.004 -0.7847  0.7591  0.8021
10114TIP3   OH251756   6.637   3.289   0.768 -0.2142  0.2479  0.2022
10114TIP3    H151757   6.697   3.225   0.805  0.4628  0.3497 -0.7179
10114TIP3    H251758   6.613   3.345   0.842  0.6724  0.0940  0.6020
10115TIP3   OH251759   3.370   6.299   4.844  0.1342  0.7024 -0.4022
10115TIP3    H151760   3.346   6.225   4.899  2.4208 -0.4351 -0.8681
10115TIP3    H251761   3.354   6.270   4.755  0.6069  0.9388 -0.5663
10116TIP3   OH251762   6.211   3.249   1.227 -0.1165 -0.4369  0.2023
10116TIP3    H151763   6.161   3.217   1.303  0.7210  2.6706  2.1782
10116TIP3    H251764   6.302   3.235   1.251  0.1844  1.4592  0.2237
10117TIP3   OH251765   2.265   2.905  12.805  0.0754  0.0059 -0.1294
10117TIP3    H151766   2.306   2.825  12.838  2.2314  0.2979 -2.0622
10117TIP3    H251767   2.200   2.926  12.872  0.4824 -2.5263  1.1535
10118TIP3   OH251768   0.508   5.385   5.861  0.1835 -0.2975  0.3995
10118TIP3    H151769   0.530   5.292   5.854 -1.5115 -0.7669  0.9177
10118TIP3    H251770   0.483   5.411   5.772 -1.5408 -0.9566  0.6576
10119TIP3   OH251771   5.290   0.482  14.356  0.2331 -0.4358  0.6799
10119TIP3    H151772   5.271   0.570  14.388  0.8945  0.0704 -0.2904
10119TIP3    H251773   5.224   0.467  14.289 -1.5271 -1.7300  2.6463
10120TIP3   OH251774   6.001   0.854  12.850  0.1576 -0.0433  0.1064
10120TIP3    H151775   6.092   0.826  12.841 -0.1929 -1.1432  0.0087
10120TIP3    H251776   6.004   0.949  12.832  1.4034  0.0931  0.9746
10121TIP3   OH251777   3.818   4.592  16.125  0.5507  0.1046 -0.1431
10121TIP3    H151778   3.802   4.669  16.071 -0.3764  1.0856  1.4786
10121TIP3    H251779   3.910   4.599  16.151  0.7267  0.1515 -0.7709
10122TIP3   OH251780   1.121   1.380  11.147  0.7933 -0.3570 -0.4358
10122TIP3    H151781   1.053   1.338  11.199  0.7069 -0.0583 -0.3094
10122TIP3    H251782   1.108   1.345  11.058 -0.5430  0.9323 -0.7621
10123TIP3   OH251783   0.948   1.815   0.644  0.1231  0.1406  0.1779
10123TIP3    H151784   0.942   1.895   0.697 -1.0167  0.2094 -0.0429
10123TIP3    H251785   1.009   1.760   0.692 -0.1849  0.5740  1.0893
10124TIP3   OH251786   2.115   4.378  16.699 -0.0924  0.0886 -0.0253
10124TIP3    H151787   2.211   4.369  16.704 -0.0289  0.5301 -0.3628
10124TIP3    H251788   2.081   4.297  16.736  0.4468 -1.6222 -3.0488
10125TIP3   OH251789   3.783   3.718  12.433  0.2862  0.3534 -0.3895
10125TIP3    H151790   3.841   3.644  12.449  1.9313  1.2955 -1.8549
10125TIP3    H251791   3.753   3.745  12.520 -0.0947 -1.8280  0.1713
10126TIP3   OH251792   2.267   2.003  11.504  0.7481  0.0884  0.0735
10126TIP3    H151793   2.190   2.021  11.557  0.3307 -0.7674 -0.2321
10126TIP3    H251794   2.269   2.074  11.439  0.7822  0.6582  0.6954
10127TIP3   OH251795   2.176   2.597   3.834 -0.2758  0.0020  0.6231
10127TIP3    H151796   2.202   2.592   3.741  0.7286 -3.1386  0.9895
10127TIP3    H251797   2.259   2.593   3.882 -0.7971  1.5337  1.6758
10128TIP3   OH251798   2.373   2.566   1.981  0.3691  0.7610 -0.0990
10128TIP3    H151799   2.379   2.606   1.894 -0.5862  3.1150  0.9010
10128TIP3    H251800   2.302   2.503   1.974  0.1516  1.0999 -0.9689
10129TIP3   OH251801   3.262   0.576  15.510 -0.3666  0.3403 -0.6220
10129TIP3    H151802   3.345   0.590  15.556 -0.5935 -1.5980  0.4207
10129TIP3    H251803   3.289   0.551  15.421  0.1090  1.8796 -0.9269
10130TIP3   OH251804   0.774   0.178  13.462 -0.1118 -0.2895  0.1586
10130TIP3    H151805   0.833   0.241  13.421  0.2789 -0.5515  0.3076
10130TIP3    H251806   0.781   0.100  13.406 -1.3615  0.1269 -0.6064
10131TIP3   OH251807   3.779   3.183   2.457 -0.3125 -0.0046  0.4870
10131TIP3    H151808   3.847   3.226   2.509  0.2621 -0.7125  0.3441
10131TIP3    H251809   3.706   3.244   2.455  0.6449  1.1306 -0.0576
10132TIP3   OH251810   3.875   0.722   3.328  0.5379  0.9419  0.3668
10132TIP3    H151811   3.880   0.793   3.264 -1.5732  1.2159  0.4691
10132TIP3    H251812   3.900   0.763   3.411  0.2559  1.3479  0.2569
10133TIP3   OH251813   5.203   2.066   2.505 -0.3759 -0.1695  0.1591
10133TIP3    H151814   5.122   2.020   2.528 -1.0278  1.6272  1.6363
10133TIP3    H251815   5.177   2.130   2.439  0.0197 -0.1881 -0.0173
10134TIP3   OH251816   1.821   5.592  13.770 -0.1402  0.3654  0.1104
10134TIP3    H151817   1.876   5.668  13.788  0.3855  0.1753 -0.6767
10134TIP3    H251818   1.865   5.519  13.814  2.4744 -0.5767 -3.8317
10135TIP3   OH251819   2.352   3.419  12.597 -0.0162  0.2939 -0.5299
10135TIP3    H151820   2.319   3.335  12.628 -0.8904  0.5423 -0.7865
10135TIP3    H251821   2.341   3.415  12.502  0.5598  0.4363 -0.6030
10136TIP3   OH251822   3.853   1.933   1.700  0.8010  0.2098  0.3677
10136TIP3    H151823   3.846   2.025   1.673  1.5412 -0.3981 -2.0076
10136TIP3    H251824   3.764   1.909   1.727  0.4195  1.3971  0.2008
10137TIP3   OH251825   0.540   5.083   3.113  0.1036 -0.1887 -0.0877
10137TIP3    H151826   0.540   5.133   3.031  0.1854  0.0541  0.0589
10137TIP3    H251827   0.616   5.115   3.160 -1.1227  1.2039  0.9976
10138TIP3   OH251828   0.735   2.680  13.807  0.0724 -0.3931 -0.0005
10138TIP3    H151829   0.687   2.752  13.768 -2.3691 -1.4083  1.0357
10138TIP3    H251830   0.711   2.604  13.754  1.2265 -0.7608 -0.0031
10139TIP3   OH251831   1.056   2.059   1.856 -0.0628  0.3392  0.4698
10139TIP3    H151832   1.138   2.017   1.883  1.5554  2.4019 -1.1336
10139TIP3    H251833   1.019   2.092   1.938  2.4246  2.3807  0.8171
10140TIP3   OH251834   0.630   1.981   5.237  0.2344  0.4824 -0.2841
10140TIP3    H151835   0.630   1.885   5.243  0.3657  0.5028  0.0272
10140TIP3    H251836   0.672   1.999   5.154  0.1447  0.2659 -0.3789
10141TIP3   OH251837   2.297   5.286   3.685  0.0922  0.3094 -0.0974
10141TIP3    H151838   2.351   5.236   3.746  0.6858  0.8661 -0.1629
10141TIP3    H251839   2.256   5.353   3.740 -1.0602 -0.5316  0.0729
10142TIP3   OH251840   2.125   6.100   4.882  0.3236 -0.0449  0.1567
10142TIP3    H151841   2.090   6.032   4.826 -1.5223  1.2317 -0.2857
10142TIP3    H251842   2.212   6.069   4.906  0.2738 -1.6291 -1.6136
10143TIP3   OH251843   2.357   6.185   0.792  0.3020  0.2646 -0.3903
10143TIP3    H151844   2.315   6.111   0.836 -2.0877  1.5393 -0.4059
10143TIP3    H251845   2.353   6.162   0.699  0.4542 -0.0143 -0.3291
10144TIP3   OH251846   3.657   1.617  15.244 -0.1732  0.3638 -0.2250
10144TIP3    H151847   3.654   1.646  15.335  2.0300  0.7095 -0.2295
10144TIP3    H251848   3.679   1.695  15.194  1.1878 -0.3307 -0.7524
10145TIP3   OH251849   0.451   6.681   4.205 -0.0845  0.1552  0.2613
10145TIP3    H151850   0.537   6.703   4.241 -0.7518 -0.0074  2.0067
10145TIP3    H251851   0.426   6.757   4.153  1.3583 -0.0300 -0.7347
10146TIP3   OH251852   0.618   5.795   3.175 -0.4244  0.1823 -0.5577
10146TIP3    H151853   0.692   5.851   3.201 -1.2877  0.7837  0.6766
10146TIP3    H251854   0.658   5.725   3.123  0.8564  1.1518 -0.9038
10147TIP3   OH251855   3.249   0.445  12.224 -0.4592 -0.6388  0.6184
10147TIP3    H151856   3.231   0.372  12.283 -1.0061  0.1844  1.4838
10147TIP3    H251857   3.335   0.477  12.252 -1.1307  0.3524  1.6278
10148TIP3   OH251858   4.404   1.182   4.136  0.3618  0.4556 -0.5849
10148TIP3    H151859   4.309   1.171   4.139  0.2709  1.2156 -0.3508
10148TIP3    H251860   4.436   1.107   4.087 -0.1912 -0.7540  0.8706
10149TIP3   OH251861   0.009   5.385  16.974  0.1544 -0.0390  0.5746
10149TIP3    H151862  -0.071   5.355  16.931 -0.2953  1.3794  0.4074
10149TIP3    H251863   0.034   5.312  17.031  0.2111 -1.5542 -1.3274
10150TIP3   OH251864   1.881   3.173  11.142  0.0674 -0.1545  0.0492
10150TIP3    H151865   1.835   3.187  11.060  0.6263 -2.8422 -0.7970
10150TIP3    H251866   1.969   3.209  11.127 -0.0027 -0.1433 -0.3386
10151TIP3   OH251867   6.778   6.597  14.892  0.1766  0.1891 -0.3020
10151TIP3    H151868   6.714   6.544  14.939 -0.9540  0.9885 -0.9059
10151TIP3    H251869   6.811   6.658  14.958 -0.3363  0.3524 -0.1919
10152TIP3   OH251870   4.984   0.098  12.864 -0.1102  0.3098 -0.0351
10152TIP3    H151871   4.953   0.047  12.939 -1.4600  0.4873 -0.4803
10152TIP3    H251872   4.991   0.188  12.898 -1.6354  0.5633 -0.3828
10153TIP3   OH251873   3.745   0.482   3.940 -0.0299 -0.4748 -0.0884
10153TIP3    H151874   3.685   0.536   3.888  1.7812  2.1381  0.4101
10153TIP3    H251875   3.794   0.432   3.875 -0.2099  0.1213 -0.6941
10154TIP3   OH251876   2.018   0.753  15.597 -0.1452  0.6719  0.6326
10154TIP3    H151877   1.992   0.757  15.689 -2.7276  0.6540 -0.0557
10154TIP3    H251878   1.950   0.801  15.550  0.6622 -0.0511 -1.3739
10155TIP3   OH251879   4.654   5.461   3.789  0.3615 -0.0439 -0.8585
10155TIP3    H151880   4.745   5.489   3.797  0.5344 -0.3246 -1.7082
10155TIP3    H251881   4.641   5.399   3.861  0.4138  1.0813  0.1204
10156TIP3   OH251882   2.392   5.012  16.299 -0.1359  0.3603 -0.4829
10156TIP3    H151883   2.323   5.063  16.256 -1.2073 -0.3349  0.4278
10156TIP3    H251884   2.398   4.932  16.248 -2.6061 -1.2337  1.6529
10157TIP3   OH251885   3.585   0.020  14.089 -0.2869 -0.2140 -0.2826
10157TIP3    H151886   3.554   0.100  14.046  0.1289  1.2713  2.0736
10157TIP3    H251887   3.506  -0.020  14.125 -0.0850  1.3244  2.0243
10158TIP3   OH251888   6.133   6.785   3.786 -0.6520 -0.6616 -0.1044
10158TIP3    H151889   6.130   6.879   3.801 -0.8608 -0.5328 -0.9415
10158TIP3    H251890   6.223   6.768   3.757 -0.2535 -0.9065  1.2669
10159TIP3   OH251891   1.567   3.215   5.313 -0.5700 -0.3312  0.4946
10159TIP3    H151892   1.606   3.298   5.285  0.3043 -0.5107  1.1796
10159TIP3    H251893   1.596   3.204   5.403  0.5193 -2.1145 -0.0561
10160TIP3   OH251894   1.780   0.702   5.535  0.4862 -0.1500  0.2349
10160TIP3    H151895   1.788   0.734   5.445  0.0744 -0.5750  0.0427
10160TIP3    H251896   1.710   0.756   5.573  0.7364  0.1039  0.3320
10161TIP3   OH251897   0.333   6.235  16.584  0.4003 -0.0485  0.2869
10161TIP3    H151898   0.396   6.219  16.513 -1.2719  0.9155 -1.4692
10161TIP3    H251899   0.262   6.174  16.567 -0.2079  0.4859  0.8951
10162TIP3   OH251900   5.798   4.740   3.685 -0.3753  0.2533  1.1538
10162TIP3    H151901   5.825   4.655   3.720  0.1248 -0.0773 -0.0244
10162TIP3    H251902   5.703   4.739   3.691 -0.3713 -0.4050  1.1054
10163TIP3   OH251903   1.164   0.453  15.345  0.3483  0.2777  0.2339
10163TIP3    H151904   1.189   0.537  15.384 -1.4610  0.6482  0.6378
10163TIP3    H251905   1.150   0.395  15.420 -0.5938  0.2502  0.0360
10164TIP3   OH251906   0.526   1.291  14.321 -0.8293 -0.2607 -0.9891
10164TIP3    H151907   0.579   1.293  14.400 -3.1149  0.4244  0.5766
10164TIP3    H251908   0.584   1.322  14.252  1.4236 -1.5685  0.2488
10165TIP3   OH251909   5.675   4.150   0.687 -0.0732  0.1365 -0.4952
10165TIP3    H151910   5.705   4.063   0.659 -0.0643  0.2479 -0.8402
10165TIP3    H251911   5.701   4.207   0.615 -0.7086  0.3102 -0.5829
10166TIP3   OH251912   3.381   0.591   4.034  0.0873  0.4847 -0.1323
10166TIP3    H151913   3.391   0.518   4.095 -1.5255  1.2638  1.1401
10166TIP3    H251914   3.289   0.617   4.044 -0.0443  1.0112 -2.4916
10167TIP3   OH251915   4.689   4.747  17.060  0.0208 -0.0230 -0.0761
10167TIP3    H151916   4.745   4.680  17.021 -0.3877  0.4728 -1.5535
10167TIP3    H251917   4.644   4.702  17.131  1.9494 -0.5357  0.8350
10168TIP3   OH251918   4.430   6.174   1.703 -0.1469  0.2317  0.0079
10168TIP3    H151919   4.411   6.214   1.618 -0.3031  1.7515  0.7294
10168TIP3    H251920   4.343   6.158   1.741 -0.1101 -1.7086 -0.6585
10169TIP3   OH251921   2.054   0.220  17.125  0.7656 -0.6093 -0.5060
10169TIP3    H151922   2.081   0.155  17.190  0.4642  0.9383  1.1990
10169TIP3    H251923   1.973   0.184  17.087  0.3122 -0.9788  0.8064
10170TIP3   OH251924   3.777   6.249   3.802  0.0603 -0.0083  0.6035
10170TIP3    H151925   3.699   6.194   3.810  0.5714 -0.9755 -0.7926
10170TIP3    H251926   3.851   6.187   3.806  0.6681  0.6514 -0.1381
10171TIP3   OH251927   5.486   2.601   3.905 -0.9571 -0.3589 -0.2966
10171TIP3    H151928   5.513   2.589   3.996  1.6350 -0.8793 -1.0901
10171TIP3    H251929   5.391   2.606   3.909 -0.8468  0.4430  2.5234
10172TIP3   OH251930   3.843   0.504   3.044  0.0431 -0.8003  0.2877
10172TIP3    H151931   3.854   0.588   3.088 -0.2497 -1.0940  0.9257
10172TIP3    H251932   3.774   0.520   2.979 -1.1206 -0.9496  1.4777
10173TIP3   OH251933   0.499   4.771   1.418  0.3668 -0.4217  0.0236
10173TIP3    H151934   0.407   4.797   1.415 -0.4769 -3.0449  1.2047
10173TIP3    H251935   0.525   4.787   1.509  0.4990 -1.4748  0.1770
10174TIP3   OH251936   2.347   1.111  16.987 -0.3896 -0.2453  0.2769
10174TIP3    H151937   2.316   1.074  16.905  0.1603 -1.6913  0.6996
10174TIP3    H251938   2.354   1.205  16.970 -0.4322 -0.5073 -1.2776
10175TIP3   OH251939   2.573   2.296   1.673  0.4066  0.6953 -0.2124
10175TIP3    H151940   2.592   2.310   1.581  2.4683 -0.9959 -0.0815
10175TIP3    H251941   2.483   2.262   1.674  0.8707 -0.6343 -1.7247
10176TIP3   OH251942   5.984   0.807  10.891  0.0766  0.0823  0.2018
10176TIP3    H151943   5.950   0.723  10.861  2.8469 -0.0678 -2.7079
10176TIP3    H251944   6.076   0.789  10.912  0.4844  2.2031  0.2983
10177TIP3   OH251945   2.091   5.336  15.162  0.5094  0.2612  0.0893
10177TIP3    H151946   2.027   5.289  15.108  0.8393 -0.6240  0.4640
10177TIP3    H251947   2.040   5.372  15.233  0.3754 -0.2182  0.2406
10178TIP3   OH251948   1.301   3.413   5.660 -0.3592  0.0466 -0.3992
10178TIP3    H151949   1.315   3.389   5.569 -2.0602 -0.3975 -0.5513
10178TIP3    H251950   1.389   3.408   5.700  0.2633 -0.5038 -1.8131
10179TIP3   OH251951   5.497   2.424  16.395 -0.1209 -0.3550  0.2578
10179TIP3    H151952   5.458   2.447  16.480 -1.6566 -2.2482  0.0860
10179TIP3    H251953   5.429   2.443  16.331  0.9114  0.7231 -0.5354
10180TIP3   OH251954   5.601   0.874   0.845 -0.7262 -0.0676  0.3251
10180TIP3    H151955   5.659   0.813   0.891  2.0539  2.2368  0.0509
10180TIP3    H251956   5.619   0.860   0.752 -2.3022 -0.8936  0.1291
10181TIP3   OH251957   2.537   1.773  14.180  0.0691 -0.1503 -0.6024
10181TIP3    H151958   2.585   1.697  14.148  0.5192  0.0257 -0.3592
10181TIP3    H251959   2.537   1.763  14.275  0.0678  0.1132 -0.5742
10182TIP3   OH251960   4.092   1.225  14.462  0.1847  0.1504  0.1610
10182TIP3    H151961   4.004   1.186  14.466  0.3721 -0.2046  1.0292
10182TIP3    H251962   4.130   1.191  14.382 -0.3245 -0.0252 -0.0102
10183TIP3   OH251963   1.104   0.326   3.333 -0.0677  0.6444  0.4177
10183TIP3    H151964   1.081   0.305   3.423  3.5771 -0.9891  1.0324
10183TIP3    H251965   1.034   0.287   3.281 -1.9038  1.0988  2.4737
10184TIP3   OH251966   0.130   1.688   1.898  0.4455 -0.0812 -0.0826
10184TIP3    H151967   0.210   1.733   1.922  1.1868 -1.0370 -0.7323
10184TIP3    H251968   0.159   1.610   1.851 -0.8913  0.1564 -1.3360
10185TIP3   OH251969   6.201   5.945   3.565  0.3131 -0.1747  0.1245
10185TIP3    H151970   6.146   5.934   3.642 -1.2737  3.1163 -0.4490
10185TIP3    H251971   6.290   5.933   3.597 -0.4164 -0.4014  2.1480
10186TIP3   OH251972   1.697   5.117  15.912 -0.1669  0.4407 -0.0475
10186TIP3    H151973   1.755   5.065  15.968  0.6656  0.7727 -0.5750
10186TIP3    H251974   1.756   5.157  15.848 -0.8330  1.7640  0.1438
10187TIP3   OH251975   1.115   5.349  14.572  0.2110 -0.0871  0.8976
10187TIP3    H151976   1.184   5.283  14.571  0.0914 -0.2250 -2.0191
10187TIP3    H251977   1.034   5.298  14.583  0.2929 -0.2243  0.8700
10188TIP3   OH251978   5.929   1.501   6.356 -0.0657 -0.5622 -0.1177
10188TIP3    H151979   6.023   1.512   6.343 -0.0099 -0.1864  0.6262
10188TIP3    H251980   5.905   1.568   6.419 -1.3104  1.0952 -2.2585
10189TIP3   OH251981   2.544   6.340  14.213  0.4554 -0.2451 -0.0603
10189TIP3    H151982   2.458   6.317  14.178  0.0350  0.1030  0.7316
10189TIP3    H251983   2.534   6.333  14.308  1.1796  0.2119  0.0535
10190TIP3   OH251984   2.012   2.878   5.591  0.1283 -0.3497 -0.8513
10190TIP3    H151985   2.027   2.794   5.547 -1.1829 -1.2515  0.3845
10190TIP3    H251986   1.967   2.932   5.526 -0.5115 -1.1845 -1.1075
10191TIP3   OH251987   6.115   0.416   3.081  0.4658  0.0561  0.4445
10191TIP3    H151988   6.146   0.488   3.027 -1.6592  0.4148 -0.3045
10191TIP3    H251989   6.071   0.458   3.155 -3.4069 -0.3780 -1.4847
10192TIP3   OH251990   3.496   3.283   5.187  0.0844 -0.1159  0.1341
10192TIP3    H151991   3.531   3.343   5.253  0.9429 -1.5643  1.0168
10192TIP3    H251992   3.401   3.299   5.189  0.3133  1.3050  0.2578
10193TIP3   OH251993   0.858   1.882  11.174 -0.6256  0.3498  0.2339
10193TIP3    H151994   0.863   1.806  11.233 -0.4596  1.2564  1.4028
10193TIP3    H251995   0.802   1.944  11.219 -0.6333  0.9986 -0.6477
10194TIP3   OH251996   3.634   4.417  15.960 -0.2320 -0.4485  0.3675
10194TIP3    H151997   3.635   4.454  15.871  1.0574 -1.2084  0.0642
10194TIP3    H251998   3.677   4.483  16.014  0.7244 -0.8375  0.0864
10195TIP3   OH251999   2.102   4.396   5.652 -0.0380 -0.4856 -0.0028
10195TIP3    H152000   2.147   4.339   5.714  3.1677  1.8638 -0.0684
10195TIP3    H252001   2.083   4.476   5.702  0.0736  0.3387 -1.2472
10196TIP3   OH252002   5.341   3.385  12.384 -0.7606 -0.0891 -0.4287
10196TIP3    H152003   5.272   3.332  12.345 -0.1491 -0.8894 -0.4381
10196TIP3    H252004   5.421   3.355  12.340 -0.5123  1.4217 -1.0455
10197TIP3   OH252005   0.218   5.035   1.867 -0.1082 -0.0557  0.2664
10197TIP3    H152006   0.298   5.071   1.906 -0.3705 -0.2858  1.0336
10197TIP3    H252007   0.150   5.052   1.933 -0.7093  0.2086 -0.4149
10198TIP3   OH252008   1.688   2.350  15.307  0.2343  0.8033  0.1522
10198TIP3    H152009   1.680   2.437  15.346  1.0598  1.0970 -0.3150
10198TIP3    H252010   1.722   2.367  15.219 -0.3462  0.0564 -0.2152
10199TIP3   OH252011   4.451   3.235  14.648 -0.9042  0.5888 -0.5631
10199TIP3    H152012   4.528   3.231  14.705 -0.6151 -1.1582 -1.0623
10199TIP3    H252013   4.465   3.313  14.594  0.4668  0.3439 -0.5719
10200TIP3   OH252014   5.672   0.362  16.340 -0.0210 -0.0730  0.2770
10200TIP3    H152015   5.655   0.445  16.295 -1.3221 -1.4164 -1.8257
10200TIP3    H252016   5.685   0.299  16.269  0.7442 -1.6993  1.8380
10201TIP3   OH252017   3.391   3.511  12.027  0.6446 -0.0561  0.5273
10201TIP3    H152018   3.350   3.486  11.944  2.1478 -1.4699  0.1762
10201TIP3    H252019   3.433   3.595  12.009  0.3000  0.0217  0.0894
10202TIP3   OH252020   6.481   0.835   5.599  0.1183 -0.3271  0.1727
10202TIP3    H152021   6.572   0.858   5.616  0.3865  0.1479 -1.8554
10202TIP3    H252022   6.473   0.745   5.633  1.3458 -0.3913  0.3163
10203TIP3   OH252023   1.322   3.513  13.995 -0.1303 -0.1379  0.0308
10203TIP3    H152024   1.327   3.418  13.979 -0.6278  0.0475 -1.2727
10203TIP3    H252025   1.269   3.521  14.074 -1.9095 -0.8518 -1.0655
10204TIP3   OH252026   1.905   0.546   3.804  0.1611 -0.0204  0.0109
10204TIP3    H152027   1.912   0.464   3.853 -0.9486  1.1510  2.1556
10204TIP3    H252028   1.975   0.602   3.840  0.1720  0.4007 -0.6442
10205TIP3   OH252029   0.560   2.672   4.267  0.5500 -0.3414  0.1222
10205TIP3    H152030   0.608   2.628   4.337 -0.7206 -0.4502  0.9452
10205TIP3    H252031   0.564   2.765   4.289 -0.9057 -0.4743  1.0453
10206TIP3   OH252032   4.366   5.815  17.059 -0.1907 -0.2735  0.4548
10206TIP3    H152033   4.318   5.892  17.088 -2.5849 -1.4771 -0.1821
10206TIP3    H252034   4.372   5.760  17.137 -0.6683 -0.5271  0.3132
10207TIP3   OH252035   0.175   3.250   1.306  0.5362  0.0166 -0.4891
10207TIP3    H152036   0.117   3.277   1.378  1.8992  0.5362  0.4317
10207TIP3    H252037   0.129   3.177   1.265 -0.8347  0.5044  0.1470
10208TIP3   OH252038   2.716   5.719  12.746  0.1896  0.0285  0.2842
10208TIP3    H152039   2.717   5.623  12.753  1.6310 -0.0366 -0.6582
10208TIP3    H252040   2.624   5.743  12.756 -0.0909 -1.4041  1.2387
10209TIP3   OH252041   0.657   1.867  15.291  0.1406 -0.6104  0.7904
10209TIP3    H152042   0.732   1.860  15.232  1.7818  0.1704  2.7384
10209TIP3    H252043   0.657   1.959  15.319 -1.3969 -0.6606  1.0008
10210TIP3   OH252044   2.377   4.988   4.308  0.1375  0.0642  0.3022
10210TIP3    H152045   2.366   4.910   4.363  1.3102 -0.3983 -0.1011
10210TIP3    H252046   2.305   4.985   4.246  0.1606 -0.6873  0.3136
10211TIP3   OH252047   0.622   6.359   3.530  0.0137 -0.6845 -1.3058
10211TIP3    H152048   0.632   6.453   3.516 -0.3610 -0.2657  1.0340
10211TIP3    H252049   0.530   6.341   3.511 -0.4405 -0.1560  0.2696
10212TIP3   OH252050   2.560   2.348   0.622  0.0693  0.2272 -0.2586
10212TIP3    H152051   2.650   2.375   0.603  0.7294 -0.5972  1.5615
10212TIP3    H252052   2.565   2.253   0.629 -1.1807  0.0800 -1.3203
10213TIP3   OH252053   1.010   5.371   0.461 -0.7288 -0.2074  0.3469
10213TIP3    H152054   1.007   5.315   0.539  0.8637  0.3488  0.8438
10213TIP3    H252055   1.080   5.334   0.408  1.4235  2.1311  1.3893
10214TIP3   OH252056   0.853   4.979  12.390 -0.2100  0.1158  0.4813
10214TIP3    H152057   0.815   5.066  12.393  1.7286  0.9940  0.4347
10214TIP3    H252058   0.945   4.994  12.368  0.3274 -1.8767  1.2587
10215TIP3   OH252059   2.113   4.831  11.901  0.3324  0.6951  0.5983
10215TIP3    H152060   2.091   4.739  11.918  1.2977  0.5465  1.1307
10215TIP3    H252061   2.029   4.876  11.899 -0.2329 -0.4082 -0.9464
10216TIP3   OH252062   2.641   5.039  11.450  0.1738 -0.5457 -0.0431
10216TIP3    H152063   2.643   5.026  11.355  2.9614 -0.4428 -0.0305
10216TIP3    H252064   2.618   4.952  11.485  1.7009 -1.2312 -0.7095
10217TIP3   OH252065   1.591   0.341   1.437 -0.1665  0.0118  0.2802
10217TIP3    H152066   1.613   0.288   1.360 -0.3321 -0.5238  0.6032
10217TIP3    H252067   1.596   0.431   1.406 -3.0976 -0.2749 -1.1130
10218TIP3   OH252068   4.539   2.786   4.577 -0.1233  1.0751  0.0758
10218TIP3    H152069   4.450   2.757   4.557 -0.0180  1.4928 -1.0902
10218TIP3    H252070   4.532   2.882   4.582  0.5401  1.2421 -1.6580
10219TIP3   OH252071   3.638   4.766   5.438 -0.0933  0.4733  0.6631
10219TIP3    H152072   3.694   4.811   5.375 -0.1642 -1.5755 -0.9585
10219TIP3    H252073   3.680   4.779   5.522  2.4902 -0.4870 -0.4364
10220TIP3   OH252074   0.602   2.483   1.323  0.1642 -0.2217  0.2477
10220TIP3    H152075   0.562   2.398   1.307  0.6371 -0.1476 -1.3748
10220TIP3    H252076   0.564   2.541   1.257  3.0585 -0.2063 -1.4839
10221TIP3   OH252077   1.891   4.265   0.738  0.2033  0.0775  0.4518
10221TIP3    H152078   1.807   4.261   0.691 -0.7366 -1.1437  2.1931
10221TIP3    H252079   1.887   4.194   0.801  2.7679 -0.2731  0.2678
10222TIP3   OH252080   1.921   5.029   5.692 -0.2813  0.0843  0.1581
10222TIP3    H152081   1.957   5.051   5.778  0.6503  2.0595 -0.7049
10222TIP3    H252082   1.826   5.028   5.705 -0.1205 -0.1921  1.3352
10223TIP3   OH252083   5.585   4.464  17.236  0.4423  0.2002 -0.5612
10223TIP3    H152084   5.537   4.536  17.194 -2.5316 -0.5424  1.3900
10223TIP3    H252085   5.641   4.507  17.301 -1.0274  0.8337  0.3225
10224TIP3   OH252086   1.496   6.091  16.256  0.6768  1.0465  0.3985
10224TIP3    H152087   1.503   6.157  16.325 -1.4346 -0.0656  1.7497
10224TIP3    H252088   1.507   6.007  16.302  0.2504  0.3374 -0.7763
10225TIP3   OH252089   6.362   5.021   4.844 -0.0918  0.5631 -0.2124
10225TIP3    H152090   6.387   5.033   4.935 -0.9438 -1.6633  0.3543
10225TIP3    H252091   6.390   5.101   4.800 -0.9728  2.2904  2.2723
10226TIP3   OH252092   1.445   6.727  14.085  0.1873  0.1767 -0.1072
10226TIP3    H152093   1.467   6.749  14.175 -0.3436 -1.7126  0.5132
10226TIP3    H252094   1.525   6.746  14.036  0.5857  0.9212  0.8065
10227TIP3   OH252095   1.481   0.812  13.498 -0.3265  0.9045  0.5990
10227TIP3    H152096   1.432   0.799  13.579 -1.2082  0.6760  0.0337
10227TIP3    H252097   1.525   0.729  13.482  0.3343  1.1403  1.1584
10228TIP3   OH252098   2.799   5.021  14.771 -0.0595 -0.2152 -0.4118
10228TIP3    H152099   2.857   4.963  14.821 -0.1934 -0.3222 -0.3796
10228TIP3    H252100   2.858   5.082  14.727  0.1410 -1.0287 -1.2739
10229TIP3   OH252101   4.079   6.477   1.306 -0.0044 -0.1888 -0.1206
10229TIP3    H152102   4.061   6.395   1.352  1.1893  0.2623  1.1919
10229TIP3    H252103   4.163   6.462   1.262  0.4462  0.4636  0.4999
10230TIP3   OH252104   1.913   1.669   1.549  0.3491  0.5261  0.0038
10230TIP3    H152105   1.977   1.614   1.595  0.4218  1.3152  0.8558
10230TIP3    H252106   1.922   1.644   1.457 -1.0624 -2.3617  0.6036
10231TIP3   OH252107   5.292   6.354  15.629 -1.3193 -0.0380 -0.7744
10231TIP3    H152108   5.215   6.404  15.600 -1.8776 -0.9825 -0.9585
10231TIP3    H252109   5.331   6.320  15.548 -2.4438 -2.0438 -0.5289
10232TIP3   OH252110   3.165   0.705  12.244 -0.0063 -0.6424  0.3383
10232TIP3    H152111   3.243   0.751  12.213  0.5232 -1.6946  0.0542
10232TIP3    H252112   3.184   0.612  12.226 -1.4514 -0.8754 -0.0097
10233TIP3   OH252113   3.344   3.178   3.095  0.3557  0.1501 -0.1888
10233TIP3    H152114   3.369   3.182   3.003  0.4329  0.5058 -0.1541
10233TIP3    H252115   3.363   3.088   3.121  2.9571  0.7477  0.1939
10234TIP3   OH252116   6.184   6.396  10.466  0.0636 -0.0672  0.0757
10234TIP3    H152117   6.090   6.384  10.450 -0.5679  0.6740  2.9609
10234TIP3    H252118   6.211   6.316  10.510  0.6119  0.0301 -0.0888
10235TIP3   OH252119   6.136   2.907  15.519 -0.2508  0.1727 -0.5805
10235TIP3    H152120   6.196   2.971  15.481 -1.9831  1.7427 -0.7526
10235TIP3    H252121   6.068   2.960  15.561 -2.5462 -1.5637 -2.0175
10236TIP3   OH252122   0.773   3.753  15.206 -0.1064  0.4023  0.1834
10236TIP3    H152123   0.739   3.724  15.290  0.5233 -0.2810  0.2098
10236TIP3    H252124   0.859   3.710  15.198 -0.8809 -0.9399 -1.5481
10237TIP3   OH252125   6.373   4.915   0.207  0.2531  0.1119 -0.3160
10237TIP3    H152126   6.413   4.941   0.290  0.4141 -3.0523  0.6533
10237TIP3    H252127   6.279   4.920   0.224  0.2712  0.6123 -0.3414
10238TIP3   OH252128   1.616   1.413   5.365 -0.3874  0.6170  0.6093
10238TIP3    H152129   1.694   1.448   5.322 -0.4045  0.3047  0.3283
10238TIP3    H252130   1.546   1.426   5.302 -0.7854  1.8908  1.2727
10239TIP3   OH252131   5.431   2.485  14.913 -0.0551 -0.4083  0.1840
10239TIP3    H152132   5.390   2.427  14.977 -1.2061  1.7041  1.4578
10239TIP3    H252133   5.513   2.442  14.890 -0.7864 -2.4292  1.1996
10240TIP3   OH252134   4.387   3.633   5.479  0.2130  0.6009 -0.5836
10240TIP3    H152135   4.404   3.643   5.572 -0.3369 -0.1518 -0.3946
10240TIP3    H252136   4.299   3.595   5.475  0.7004 -0.4447 -1.3707
10241TIP3   OH252137   4.695   0.325  12.301 -0.1456 -0.4652 -0.3275
10241TIP3    H152138   4.613   0.374  12.305 -0.1824 -0.4556 -1.1001
10241TIP3    H252139   4.758   0.386  12.262  0.6137  0.0236  1.5569
10242TIP3   OH252140   4.011   1.353  17.201 -0.2132 -0.2195 -0.2018
10242TIP3    H152141   4.081   1.302  17.160  1.8892  2.1189  0.3575
10242TIP3    H252142   4.006   1.434  17.150 -0.0959  1.1393  1.8508
10243TIP3   OH252143   4.953   5.678   4.559 -0.2953 -0.6052 -0.4536
10243TIP3    H152144   5.019   5.722   4.505 -0.9275  2.4842  1.1239
10243TIP3    H252145   4.979   5.699   4.649  0.5445 -5.3477  0.5269
10244TIP3   OH252146   1.515   0.215   2.648 -0.6708  0.1445 -0.0560
10244TIP3    H152147   1.487   0.205   2.739 -0.9910  0.8569 -0.0779
10244TIP3    H252148   1.532   0.125   2.618  0.1471 -0.0403  0.9307
10245TIP3   OH252149   2.283   3.674   6.072 -0.4986  0.4399  0.5273
10245TIP3    H152150   2.272   3.599   6.014 -1.4403  1.2963 -0.4180
10245TIP3    H252151   2.373   3.704   6.056 -0.6706  0.5163 -0.3121
10246TIP3   OH252152   1.401   5.750  13.195 -0.0076 -0.6933  0.0918
10246TIP3    H152153   1.495   5.747  13.179  0.0466 -2.1520  0.5559
10246TIP3    H252154   1.361   5.722  13.113  0.0309 -1.3597  0.2892
10247TIP3   OH252155   6.348   2.554  15.195 -0.2258  0.2013  1.1250
10247TIP3    H152156   6.314   2.633  15.153 -2.0249 -0.4226  1.3723
10247TIP3    H252157   6.362   2.579  15.286 -0.4610  0.3265  1.1275
10248TIP3   OH252158   6.657   5.352  11.599 -0.7617  0.1239  0.0858
10248TIP3    H152159   6.692   5.385  11.516  1.5487 -1.3765  0.3966
10248TIP3    H252160   6.695   5.409  11.666 -0.5989 -0.2085  0.2805
10249TIP3   OH252161   2.802   6.729   1.724  0.7065  0.3338 -0.0013
10249TIP3    H152162   2.823   6.820   1.742  0.6860  0.1249  1.0705
10249TIP3    H252163   2.879   6.696   1.677  1.3323  0.5015  0.9027
10250TIP3   OH252164   5.726   1.087  15.068  0.1265  0.1552  0.4154
10250TIP3    H152165   5.671   1.143  15.013  0.5917  1.8505  1.6240
10250TIP3    H252166   5.815   1.103  15.036  0.3650  0.9106  1.4428
10251TIP3   OH252167   0.555   0.204   1.688 -0.2471 -0.3845  0.5338
10251TIP3    H152168   0.642   0.183   1.721 -1.1660 -1.1534  2.5925
10251TIP3    H252169   0.519   0.120   1.659  0.0649  0.0877 -1.2684
10252TIP3   OH252170   4.191   4.808   3.880  0.1378  0.2318 -0.3781
10252TIP3    H152171   4.184   4.897   3.917  0.2533  0.0021  0.2044
10252TIP3    H252172   4.138   4.811   3.800 -0.9570  0.4599  0.3366
10253TIP3   OH252173   0.155   3.637  10.396  0.0324  0.0315 -0.1993
10253TIP3    H152174   0.138   3.712  10.453  2.5149  0.6401 -0.2197
10253TIP3    H252175   0.238   3.601  10.428  0.7317 -0.4669 -2.5018
10254TIP3   OH252176   3.860   1.630   1.367 -0.0790  0.1819 -0.5167
10254TIP3    H152177   3.782   1.581   1.392 -0.0585 -0.4347 -1.6262
10254TIP3    H252178   3.925   1.563   1.347  0.1817  0.6716 -1.3312
10255TIP3   OH252179   1.887   3.991  17.055  0.0290 -0.3524 -0.1636
10255TIP3    H152180   1.925   3.941  17.127  0.4849 -0.4689 -0.4877
10255TIP3    H252181   1.884   4.081  17.088 -0.0824 -0.4625  0.1266
10256TIP3   OH252182   1.273   3.523  15.368  0.3196  0.4044 -0.4363
10256TIP3    H152183   1.207   3.454  15.368  0.0094  0.6982 -1.4893
10256TIP3    H252184   1.356   3.477  15.356  0.4775 -0.1073  2.3652
10257TIP3   OH252185   2.773   3.715  17.140 -0.1970  0.2905 -0.4692
10257TIP3    H152186   2.687   3.733  17.178  0.1410  0.7147  0.1048
10257TIP3    H252187   2.771   3.756  17.054 -1.7358 -2.4873 -1.8378
10258TIP3   OH252188   4.657   3.973   5.433  0.2355  0.2935  0.5369
10258TIP3    H152189   4.698   3.889   5.451  0.4927  0.1641 -0.6210
10258TIP3    H252190   4.702   4.035   5.490 -0.3013 -0.4290  1.7712
10259TIP3   OH252191   3.003   4.092   3.247 -0.0200  0.4334  0.8434
10259TIP3    H152192   2.941   4.037   3.199  1.1654  1.2018 -1.6746
10259TIP3    H252193   3.064   4.029   3.286 -0.7344 -0.1954  0.9756
10260TIP3   OH252194   3.283   5.238   2.229 -0.7960 -0.4490 -0.0297
10260TIP3    H152195   3.354   5.266   2.287 -0.5158 -0.5069 -0.3444
10260TIP3    H252196   3.305   5.276   2.144 -1.2758 -0.2525 -0.0688
10261TIP3   OH252197   1.164   2.582  10.892 -0.0896  0.1689 -0.5971
10261TIP3    H152198   1.082   2.576  10.941 -0.1647  1.1356 -0.5878
10261TIP3    H252199   1.230   2.543  10.949 -0.0316  2.0118  0.6470
10262TIP3   OH252200   0.195   0.043   5.197  0.6411 -0.3303  0.2526
10262TIP3    H152201   0.128   0.031   5.130  0.5893 -0.8423  0.3923
10262TIP3    H252202   0.230   0.131   5.181  0.2401 -0.2342 -0.0917
10263TIP3   OH252203   6.428   6.762  13.652 -0.0899 -0.3329 -0.1769
10263TIP3    H152204   6.360   6.784  13.588  0.4322  0.2164 -0.5534
10263TIP3    H252205   6.389   6.783  13.737 -0.3329  0.1455 -0.4042
10264TIP3   OH252206   2.975   5.273  17.064 -0.0719 -0.0854  0.1225
10264TIP3    H152207   2.984   5.178  17.069 -0.3453 -0.1779 -0.9089
10264TIP3    H252208   2.985   5.293  16.971 -1.0024  0.7894  0.1947
10265TIP3   OH252209   1.325   3.893   2.685 -0.0520  0.0910  0.2319
10265TIP3    H152210   1.387   3.920   2.753 -1.8090  1.1280  1.4705
10265TIP3    H252211   1.273   3.823   2.726  0.2336 -0.7374 -0.7757
10266TIP3   OH252212   2.905   5.008   1.869  0.2550  0.1562 -0.0194
10266TIP3    H152213   2.908   4.951   1.946 -1.0100  2.0192  1.4705
10266TIP3    H252214   2.935   4.953   1.797  1.0053 -1.7781  1.7208
10267TIP3   OH252215   6.265   4.335   6.299  0.0475  0.1350 -0.0271
10267TIP3    H152216   6.205   4.273   6.340 -4.0957  1.7089 -3.4464
10267TIP3    H252217   6.321   4.281   6.244 -0.0349 -1.0518  1.0150
10268TIP3   OH252218   5.078   5.410  12.896 -0.4373 -0.3331  0.2923
10268TIP3    H152219   5.061   5.505  12.891  1.2339 -0.0550 -0.3228
10268TIP3    H252220   5.007   5.376  12.950  1.2325  1.8627  4.0413
10269TIP3   OH252221   5.028   5.311  11.179 -0.0237 -0.1464 -0.1342
10269TIP3    H152222   5.073   5.308  11.263 -1.9793  1.6077  1.0218
10269TIP3    H252223   5.089   5.268  11.118  1.3037 -1.6752  2.1824
10270TIP3   OH252224   0.023   3.407  13.694  0.0808 -0.5508 -0.2107
10270TIP3    H152225  -0.050   3.401  13.755  1.6109 -0.6890  1.6414
10270TIP3    H252226   0.028   3.500  13.672 -0.7837 -0.5760 -0.5244
10271TIP3   OH252227   6.510   4.787   4.732 -0.4008  0.3182 -0.2106
10271TIP3    H152228   6.454   4.847   4.783  0.6990  1.8428 -0.7535
10271TIP3    H252229   6.465   4.778   4.648 -1.7480 -1.4734  0.6692
10272TIP3   OH252230   3.263   1.650  11.321 -0.0738  0.0209 -0.1483
10272TIP3    H152231   3.228   1.562  11.333 -1.0755  0.4412  0.1471
10272TIP3    H252232   3.296   1.651  11.231  1.8835 -1.2895  0.5485
10273TIP3   OH252233   6.098   6.210   0.352 -0.5519  0.4074  0.0038
10273TIP3    H152234   6.143   6.251   0.278  0.6158 -0.6248  0.1139
10273TIP3    H252235   6.080   6.120   0.322 -1.4328  0.4418  0.4193
10274TIP3   OH252236   5.672   6.034  12.101  0.1451 -0.0192  0.1856
10274TIP3    H152237   5.590   6.056  12.058  0.4734  0.8499  0.0031
10274TIP3    H252238   5.663   5.942  12.125 -1.3668  0.4092  1.2961
10275TIP3   OH252239   3.550   5.589   5.296  0.5046  0.1320  0.0495
10275TIP3    H152240   3.527   5.628   5.212  1.5539  2.0847  0.6250
10275TIP3    H252241   3.476   5.608   5.353  1.2185  1.7825  0.4621
10276TIP3   OH252242   4.975   0.004  15.612 -0.4354 -0.3986 -0.2422
10276TIP3    H152243   5.030   0.010  15.534 -2.9937  0.4751 -2.0258
10276TIP3    H252244   4.971  -0.089  15.633 -0.6191 -0.7374 -1.7950
10277TIP3   OH252245   0.191   3.918   1.921  0.0665  0.7318 -0.3144
10277TIP3    H152246   0.199   4.005   1.881  0.0831  0.6199 -0.5558
10277TIP3    H252247   0.225   3.858   1.855 -1.3776  0.3946 -0.7730
10278TIP3   OH252248   2.846   1.076  13.759  0.2321  0.3236 -0.2108
10278TIP3    H152249   2.840   0.985  13.729 -1.3156  0.1504  0.6023
10278TIP3    H252250   2.827   1.128  13.681 -1.7980 -0.0987 -0.0117
10279TIP3   OH252251   2.055   1.431   0.447  0.1351  0.0704  0.1629
10279TIP3    H152252   2.058   1.456   0.539 -0.8463  0.1825  0.1715
10279TIP3    H252253   2.122   1.364   0.438  0.3380  0.1683  0.9297
10280TIP3   OH252254   4.677   3.890  12.125 -0.1719  0.1858 -0.0822
10280TIP3    H152255   4.631   3.954  12.070 -0.4366  2.0754  2.2593
10280TIP3    H252256   4.613   3.867  12.193  0.5077 -1.3038  0.0570
10281TIP3   OH252257   5.614   4.679  14.989 -0.3107  0.5967  0.3449
10281TIP3    H152258   5.604   4.764  14.948 -0.1029  0.6174  0.3351
10281TIP3    H252259   5.540   4.673  15.050 -0.2158  0.8659  0.4868
10282TIP3   OH252260   6.419   0.800   4.679  0.0141  0.1624  0.1534
10282TIP3    H152261   6.401   0.730   4.742 -2.3277 -0.1323 -0.7933
10282TIP3    H252262   6.413   0.757   4.594 -0.1245  1.2416 -0.3910
10283TIP3   OH252263   4.780   1.453  13.515  0.2260  0.2231 -0.7806
10283TIP3    H152264   4.831   1.379  13.481 -0.2206 -0.5864  0.2602
10283TIP3    H252265   4.696   1.448  13.469  0.6704  0.8747 -1.6691
10284TIP3   OH252266   3.982   5.328   2.173 -0.0944  0.1117 -0.4400
10284TIP3    H152267   3.961   5.386   2.246 -0.4874  0.3429 -0.7298
10284TIP3    H252268   4.078   5.318   2.176 -0.2252 -0.7723  0.7592
10285TIP3   OH252269   2.712   4.124  15.991 -0.1947  0.2390 -0.3156
10285TIP3    H152270   2.792   4.072  15.995 -0.6800 -0.7057 -2.2115
10285TIP3    H252271   2.675   4.117  16.079  1.3709  0.0011  0.3397
10286TIP3   OH252272   1.969   2.972  16.743  0.0705 -0.3870 -0.3441
10286TIP3    H152273   2.059   2.944  16.758  0.3298 -1.6607 -3.6922
10286TIP3    H252274   1.917   2.893  16.755 -0.4687  0.0767  0.4010
10287TIP3   OH252275   0.723   4.612  13.049  0.0851  0.7536  0.0798
10287TIP3    H152276   0.675   4.691  13.021 -1.7779 -0.5136 -0.4224
10287TIP3    H252277   0.658   4.561  13.098  1.7382  0.2832  1.8165
10288TIP3   OH252278   5.084   2.304  14.473 -0.4297  0.4431  0.3979
10288TIP3    H152279   5.137   2.262  14.405 -0.7880 -4.2948  2.8049
10288TIP3    H252280   5.136   2.295  14.553 -2.8741 -0.3110  1.9631
10289TIP3   OH252281   5.361   1.685   5.129 -0.2975  0.3837 -0.0301
10289TIP3    H152282   5.454   1.671   5.147 -0.4924 -0.8740  0.0259
10289TIP3    H252283   5.333   1.750   5.194 -0.2678 -1.8297  2.2847
10290TIP3   OH252284   3.109   3.464  11.052  0.4358  0.2417  0.2299
10290TIP3    H152285   3.059   3.488  10.974  1.6797  0.3877 -0.5252
10290TIP3    H252286   3.200   3.482  11.029  0.9720 -1.2084  1.1584
10291TIP3   OH252287   1.182   0.730  15.070  0.0389  0.4690 -0.5277
10291TIP3    H152288   1.183   0.691  15.157  2.9614  2.9071  0.6032
10291TIP3    H252289   1.108   0.791  15.073  0.2763  0.7271  0.3385
10292TIP3   OH252290   4.497   1.549  11.509  0.0175  0.4079  0.3237
10292TIP3    H152291   4.438   1.612  11.468  0.3054 -0.6515 -1.7935
10292TIP3    H252292   4.460   1.463  11.488  1.8456 -0.2430 -0.3513
10293TIP3   OH252293   4.010   5.519  16.818  0.1625  0.2643 -0.3927
10293TIP3    H152294   3.973   5.459  16.753 -0.4520 -0.8191  0.9305
10293TIP3    H252295   3.984   5.482  16.902  0.7361  1.7896  0.4723
10294TIP3   OH252296   1.553   3.483  13.486 -0.4952  0.2527  0.3578
10294TIP3    H152297   1.536   3.486  13.580 -0.8933 -1.9989  0.3716
10294TIP3    H252298   1.621   3.416  13.476  0.7894  1.6735 -0.8081
10295TIP3   OH252299   0.308   4.803   5.877  0.1024  0.2136  0.0847
10295TIP3    H152300   0.366   4.870   5.914  0.0587  0.6862 -0.6783
10295TIP3    H252301   0.325   4.725   5.928 -0.2951  0.9740  1.3974
10296TIP3   OH252302   1.559   2.347  14.973 -0.1544 -0.2346 -0.0178
10296TIP3    H152303   1.652   2.350  14.997 -0.3441 -1.0987  0.8426
10296TIP3    H252304   1.520   2.421  15.020  0.2004  0.4852 -0.8461
10297TIP3   OH252305   2.535   1.372   3.073 -0.3351  0.1260 -0.0380
10297TIP3    H152306   2.535   1.289   3.121  1.8249 -0.5890 -1.1764
10297TIP3    H252307   2.453   1.372   3.024 -1.0593 -0.6370  1.1681
10298TIP3   OH252308   6.266   2.324   4.053 -0.1522  0.4322 -0.0882
10298TIP3    H152309   6.261   2.397   3.992 -0.8188  1.5484  1.2765
10298TIP3    H252310   6.206   2.258   4.016 -0.4729  1.0513 -0.6871
10299TIP3   OH252311   6.444   3.245  11.824 -0.1203 -0.5026 -0.7749
10299TIP3    H152312   6.520   3.302  11.813 -0.3509 -0.0542 -0.0382
10299TIP3    H252313   6.470   3.184  11.893 -0.3734 -0.4408 -0.6257
10300TIP3   OH252314   6.393   2.382  16.230 -0.2758 -0.3470 -0.0311
10300TIP3    H152315   6.344   2.454  16.190 -0.7488 -1.1890 -1.0046
10300TIP3    H252316   6.333   2.344  16.294  0.5545  1.1325  1.6728
10301TIP3   OH252317   3.086   4.428  13.831  0.1004 -0.1166  0.0883
10301TIP3    H152318   3.176   4.445  13.804  0.5568 -1.6973  0.5325
10301TIP3    H252319   3.032   4.466  13.762  1.0472  2.5114  0.7637
10302TIP3   OH252320   4.883   5.207   0.711 -0.2701 -0.2638 -0.9839
10302TIP3    H152321   4.971   5.179   0.737 -1.4854 -2.0795  1.3608
10302TIP3    H252322   4.825   5.168   0.777 -2.8657  0.6588 -2.6517
10303TIP3   OH252323   0.675   0.084   5.364 -0.5179 -0.4171  0.2961
10303TIP3    H152324   0.611   0.042   5.307  0.1568  0.1018 -0.8539
10303TIP3    H252325   0.724   0.143   5.306 -0.6735  1.0731  1.6448
10304TIP3   OH252326   6.278   0.404  13.945  0.4114 -0.8237 -0.2398
10304TIP3    H152327   6.366   0.380  13.914  1.4735  1.2635  1.0451
10304TIP3    H252328   6.289   0.419  14.039 -1.3592 -0.6261 -0.0503
10305TIP3   OH252329   2.385   1.560   4.094 -0.4096  0.1977  0.0625
10305TIP3    H152330   2.316   1.494   4.100  0.4510 -0.7876 -0.7991
10305TIP3    H252331   2.343   1.641   4.123 -0.8739 -1.1313  3.2535
10306TIP3   OH252332   1.176   1.602   4.679  0.2642  0.3572  0.2282
10306TIP3    H152333   1.133   1.612   4.595 -1.5159  0.8415  1.1588
10306TIP3    H252334   1.153   1.682   4.727  0.1087 -0.5142  1.6422
10307TIP3   OH252335   0.457   0.374  15.559  0.1376  0.0336  0.5805
10307TIP3    H152336   0.414   0.409  15.637  0.2128  2.6681 -0.4985
10307TIP3    H252337   0.442   0.441  15.492  2.4601 -0.8807 -0.8932
10308TIP3   OH252338   3.257   1.481  13.085 -0.2355 -0.0410  0.1051
10308TIP3    H152339   3.331   1.491  13.145  0.0938 -0.9770 -0.1268
10308TIP3    H252340   3.267   1.393  13.050 -0.7574  0.2938 -0.8911
10309TIP3   OH252341   3.610   2.063  14.327  0.3357 -0.3027  0.2721
10309TIP3    H152342   3.522   2.065  14.366  0.4608  0.4348  0.5065
10309TIP3    H252343   3.670   2.070  14.401  0.6163 -1.7623  0.2014
10310TIP3   OH252344   2.961   6.536   1.062 -0.8989  0.6916  0.0356
10310TIP3    H152345   2.879   6.567   1.101 -0.0081 -0.0469  2.6224
10310TIP3    H252346   3.029   6.573   1.119  0.4811 -0.0030 -1.1416
10311TIP3   OH252347   1.753   4.714  17.198 -0.6074  0.1094 -0.6308
10311TIP3    H152348   1.808   4.637  17.209 -0.6288 -0.0043 -1.3060
10311TIP3    H252349   1.680   4.701  17.259 -0.4923 -0.2927 -0.5808
10312TIP3   OH252350   3.325   3.949   1.971  0.0462  0.2209  0.3995
10312TIP3    H152351   3.408   3.988   1.942 -0.1368  0.6358  0.4313
10312TIP3    H252352   3.304   3.886   1.903  1.9134 -2.0633  1.8622
10313TIP3   OH252353   1.382   1.523  13.226 -0.1391 -0.1845 -0.0534
10313TIP3    H152354   1.378   1.431  13.202  0.9175 -0.5890  1.2438
10313TIP3    H252355   1.296   1.542  13.264  0.5430 -1.3727  2.1690
10314TIP3   OH252356   2.333   2.980   5.628 -0.3208  0.5060 -0.2119
10314TIP3    H152357   2.408   2.920   5.638  0.1913  1.0835 -0.5392
10314TIP3    H252358   2.370   3.056   5.584 -0.6036  1.8024  1.7578
10315TIP3   OH252359   0.400   1.966  11.388  0.4773  0.0065  0.0302
10315TIP3    H152360   0.335   1.969  11.317 -2.5200  2.3482  2.7256
10315TIP3    H252361   0.472   2.021  11.356 -1.0819  1.5040 -1.0161
10316TIP3   OH252362   4.993   4.785  10.856  0.0745  0.5126  0.4170
10316TIP3    H152363   4.963   4.694  10.853 -0.0674  0.5673  0.0438
10316TIP3    H252364   5.044   4.796  10.776 -0.0248  0.7991  0.3897
10317TIP3   OH252365   4.688   1.436  17.197  0.3574  0.4651  0.2395
10317TIP3    H152366   4.734   1.352  17.197 -2.2937 -1.0909 -1.4785
10317TIP3    H252367   4.663   1.450  17.288 -0.8885 -1.6677  0.2647
10318TIP3   OH252368   4.496   2.119  16.895 -0.4595  0.1159 -0.8610
10318TIP3    H152369   4.497   2.161  16.809  2.8732 -0.4042 -1.1387
10318TIP3    H252370   4.566   2.054  16.891 -1.3686 -1.0907  1.6819
10319TIP3   OH252371   3.356   1.995  15.656 -0.0883  0.2071 -0.4004
10319TIP3    H152372   3.326   1.913  15.618 -0.9347  0.8817 -1.1848
10319TIP3    H252373   3.377   1.973  15.747  0.9290 -1.1594 -0.9508
10320TIP3   OH252374   3.624   2.006   3.382 -0.5926  0.2171 -0.6464
10320TIP3    H152375   3.680   2.010   3.305  1.3886 -1.5349  0.6605
10320TIP3    H252376   3.633   1.916   3.414 -0.3569  1.2542  2.3794
10321TIP3   OH252377   5.800   5.714   0.502 -0.4134 -0.1263 -0.2532
10321TIP3    H152378   5.746   5.672   0.569 -0.6234 -0.1134 -0.4143
10321TIP3    H252379   5.817   5.801   0.536 -0.4636 -0.1431 -0.1860
10322TIP3   OH252380   2.330   4.071   4.845  0.1616  0.3107  0.1771
10322TIP3    H152381   2.240   4.039   4.851 -1.0315  2.9503 -2.2148
10322TIP3    H252382   2.360   4.039   4.760  0.8295  0.9534  0.1708
10323TIP3   OH252383   0.222   5.667  16.314 -0.1277 -0.3178  0.0513
10323TIP3    H152384   0.267   5.747  16.288 -0.5184 -1.0752 -3.2553
10323TIP3    H252385   0.291   5.601  16.322 -0.1629 -0.4598 -0.7462
10324TIP3   OH252386   1.338   1.503  15.608  0.0383  0.0795 -0.0035
10324TIP3    H152387   1.273   1.520  15.676  0.7621  2.2024  0.1764
10324TIP3    H252388   1.395   1.579  15.610  1.9675 -1.3081 -0.8303
10325TIP3   OH252389   4.142   6.568  15.626 -0.2715 -0.2773  0.1058
10325TIP3    H152390   4.135   6.478  15.595 -1.7229 -0.1310 -0.0145
10325TIP3    H252391   4.200   6.611  15.563 -0.1098 -0.9466 -0.2088
10326TIP3   OH252392   1.447   3.653  11.167 -0.1726  0.1244  0.4390
10326TIP3    H152393   1.529   3.624  11.128  1.0308  2.0211  1.4719
10326TIP3    H252394   1.454   3.748  11.172 -1.8984  0.2294  1.6953
10327TIP3   OH252395   1.643   5.134   5.357 -0.0651  0.1800  0.0863
10327TIP3    H152396   1.682   5.047   5.367 -2.6270 -0.7953  2.1433
10327TIP3    H252397   1.571   5.121   5.295 -0.8505  0.6949  0.8815
10328TIP3   OH252398   3.379   2.207  15.419 -0.1682 -0.2616  0.3869
10328TIP3    H152399   3.377   2.159  15.501  0.9596  1.6629  1.5736
10328TIP3    H252400   3.446   2.163  15.366 -0.4370 -1.0996  0.7459
10329TIP3   OH252401   6.395   1.373  16.231 -0.2193 -0.1140  0.2949
10329TIP3    H152402   6.475   1.389  16.181  0.7024 -0.5138  1.5999
10329TIP3    H252403   6.329   1.428  16.189  0.9735  0.9595 -0.2156
10330TIP3   OH252404   0.538   3.115   5.143 -0.8501  0.3298  0.2811
10330TIP3    H152405   0.480   3.049   5.106 -0.5170 -0.0875  0.4949
10330TIP3    H252406   0.502   3.133   5.230  0.4937 -1.4506  1.2581
10331TIP3   OH252407   1.599   1.805  15.135 -0.4544 -0.2618  0.2390
10331TIP3    H152408   1.623   1.854  15.213 -0.0144 -0.5890  0.3144
10331TIP3    H252409   1.639   1.853  15.063  1.7015 -1.6217  0.5011
10332TIP3   OH252410   2.663   3.949  16.599  0.1504  0.2145 -0.5186
10332TIP3    H152411   2.591   4.006  16.572  1.0269  1.0176 -1.1737
10332TIP3    H252412   2.742   3.999  16.579  0.8494  0.6785  3.1550
10333TIP3   OH252413   3.204   5.783   0.802  0.8124 -0.4864 -0.0482
10333TIP3    H152414   3.146   5.718   0.763  0.9062  0.2126 -1.3754
10333TIP3    H252415   3.150   5.862   0.811  1.9414  0.6562 -2.7588
10334TIP3   OH252416   5.186   5.987   3.970  0.2358  0.4922  0.5707
10334TIP3    H152417   5.116   5.922   3.964 -0.6679  1.1813  3.0981
10334TIP3    H252418   5.262   5.945   3.929 -1.5614 -0.3075 -2.1123
10335TIP3   OH252419   5.071   5.948   5.899 -0.0052  0.4469  0.2688
10335TIP3    H152420   5.082   5.860   5.935 -0.6780  0.0943 -0.3786
10335TIP3    H252421   4.977   5.962   5.899  0.0310  0.7013 -0.7401
10336TIP3   OH252422   5.800   0.056  14.738  0.4631  0.4980 -0.2441
10336TIP3    H152423   5.832   0.145  14.723 -1.2494  1.2254  0.3825
10336TIP3    H252424   5.740   0.039  14.666 -1.5966  1.0271  1.2941
10337TIP3   OH252425   5.969   6.303   5.470  0.2102 -0.0919  0.5480
10337TIP3    H152426   5.931   6.289   5.383  1.1426  0.9718 -0.0565
10337TIP3    H252427   5.957   6.220   5.516  0.0120 -0.7748 -0.7193
10338TIP3   OH252428   6.743   1.913  10.552 -0.0928  0.0079 -0.4964
10338TIP3    H152429   6.807   1.975  10.589  1.0014  0.1813 -2.6311
10338TIP3    H252430   6.667   1.967  10.531 -0.5944 -0.0337  1.1406
10339TIP3   OH252431   5.255   1.493  14.068 -0.0065  0.0638 -0.6757
10339TIP3    H152432   5.288   1.465  14.154  1.3286 -0.8973 -1.4637
10339TIP3    H252433   5.222   1.412  14.028  0.1562  0.3451 -1.3859
10340TIP3   OH252434   0.623   5.311   0.355  0.1049 -0.0611 -0.5003
10340TIP3    H152435   0.558   5.327   0.287 -0.9568 -2.0058  0.0167
10340TIP3    H252436   0.598   5.367   0.427 -0.6312 -0.3243 -0.5493
10341TIP3   OH252437   0.916   0.610  14.668  0.3755 -0.2327 -0.2496
10341TIP3    H152438   0.917   0.687  14.612 -2.0159  0.8044  1.0417
10341TIP3    H252439   0.894   0.644  14.755  0.6003 -2.2019  0.6035
10342TIP3   OH252440   1.826   0.419  15.912 -0.4873  0.2193 -0.0691
10342TIP3    H152441   1.904   0.422  15.856 -1.1061 -1.5156 -1.0260
10342TIP3    H252442   1.803   0.511  15.924  0.9151  0.7011 -0.8871
10343TIP3   OH252443   3.206   5.633  16.387 -0.4531  0.1302 -0.4762
10343TIP3    H152444   3.242   5.719  16.406  1.0261 -0.2205 -1.5220
10343TIP3    H252445   3.230   5.580  16.463 -2.5288  0.9377  0.7830
10344TIP3   OH252446   2.566   1.025  13.849 -0.1884 -0.3088 -0.0503
10344TIP3    H152447   2.517   1.104  13.824 -0.8771 -1.0835 -1.2051
10344TIP3    H252448   2.658   1.052  13.845 -0.4260  0.5010 -0.2047
10345TIP3   OH252449   0.837   5.450   5.363  0.5883  0.3038  0.1967
10345TIP3    H152450   0.853   5.392   5.437 -0.0385  0.1204  0.1989
10345TIP3    H252451   0.743   5.441   5.346  0.8004  0.0146 -0.8934
10346TIP3   OH252452   5.402   4.756   1.231 -0.0426 -0.6721  0.6462
10346TIP3    H152453   5.389   4.720   1.143 -0.5328  0.8221  0.0919
10346TIP3    H252454   5.316   4.748   1.272 -0.3674  0.5737  0.2393
10347TIP3   OH252455   0.190   1.467  11.838  0.6391 -0.3667 -0.0821
10347TIP3    H152456   0.134   1.438  11.767  1.6416  0.0414 -1.0524
10347TIP3    H252457   0.225   1.386  11.876  0.9697 -0.5434 -0.7654
10348TIP3   OH252458   1.559   6.527   4.949 -0.0141 -0.2816  0.3878
10348TIP3    H152459   1.646   6.512   4.986  1.4888  0.6390 -2.5476
10348TIP3    H252460   1.559   6.621   4.928 -1.3135 -0.5077 -0.6475
10349TIP3   OH252461   2.163   3.232   4.106  0.2975 -0.0446 -0.6204
10349TIP3    H152462   2.088   3.182   4.137 -0.3877  1.6314  0.5308
10349TIP3    H252463   2.192   3.186   4.028 -0.6529 -1.8860  0.0674
10350TIP3   OH252464   4.513   1.907  14.852  0.5528 -0.2673  0.1662
10350TIP3    H152465   4.509   1.877  14.943  1.4344 -0.0375  0.2883
10350TIP3    H252466   4.580   1.976  14.853 -1.0150  1.3026 -0.2112
10351TIP3   OH252467   2.480   0.088  12.350 -0.2013  0.4008 -0.0344
10351TIP3    H152468   2.417   0.160  12.352 -0.6874 -0.0173 -0.1337
10351TIP3    H252469   2.511   0.086  12.259 -0.5327  0.1922 -0.1446
10352TIP3   OH252470   5.545   5.585   2.500  0.0905 -0.0324  0.7542
10352TIP3    H152471   5.577   5.675   2.493  2.0021 -0.8507 -1.9576
10352TIP3    H252472   5.621   5.534   2.526 -0.9331 -0.9340  2.0822
10353TIP3   OH252473   1.283   5.329  17.118 -0.6775  0.3194 -0.2864
10353TIP3    H152474   1.363   5.358  17.162 -2.1209  0.6295  2.2464
10353TIP3    H252475   1.237   5.277  17.184 -2.4781  0.0052 -1.7605
10354TIP3   OH252476   0.030   2.766  12.573 -0.1367  0.7183 -0.1685
10354TIP3    H152477   0.089   2.781  12.646  0.9581 -1.4398 -0.5719
10354TIP3    H252478   0.083   2.718  12.509 -1.8248  0.3072 -1.2849
10355TIP3   OH252479   5.973   6.771   1.987 -0.0670 -0.4623 -0.0249
10355TIP3    H152480   5.974   6.676   2.004  0.1812 -0.4959 -0.2405
10355TIP3    H252481   5.882   6.789   1.961 -0.0678 -0.6695 -0.1646
10356TIP3   OH252482   0.846   5.185  14.816  0.2000 -0.4036  0.4029
10356TIP3    H152483   0.752   5.169  14.811 -0.1682  1.0487  2.4168
10356TIP3    H252484   0.874   5.192  14.724 -1.2840 -2.7354 -0.2764
10357TIP3   OH252485   3.375   3.462   4.940 -0.1305 -0.5689 -0.4330
10357TIP3    H152486   3.387   3.542   4.991  1.9875 -1.2001  0.1037
10357TIP3    H252487   3.344   3.397   5.003 -0.1545 -0.6327 -0.5098
10358TIP3   OH252488   0.975   6.347  13.724  0.0407  0.2022  0.5122
10358TIP3    H152489   0.945   6.271  13.675  0.8147 -0.4088  0.9712
10358TIP3    H252490   1.027   6.397  13.662  0.1894 -0.0513  0.4322
10359TIP3   OH252491   2.993   1.004   4.622  0.0459 -0.3420  0.8485
10359TIP3    H152492   2.994   0.978   4.714 -0.5336 -1.2119  0.6136
10359TIP3    H252493   2.934   0.942   4.580 -0.9094  0.9987  0.1701
10360TIP3   OH252494   3.726   1.448   6.908  0.3337 -0.5116  0.4019
10360TIP3    H152495   3.661   1.402   6.855  1.0185 -0.4151 -0.5301
10360TIP3    H252496   3.808   1.438   6.860  0.5121  1.6512  0.1956
10361TIP3   OH252497   2.417   5.375  11.661 -0.1963  0.0348  0.5740
10361TIP3    H152498   2.427   5.437  11.733 -1.4529  0.1538  0.6584
10361TIP3    H252499   2.493   5.391  11.605  0.2393  0.6566  1.3369
10362TIP3   OH252500   2.168   4.502  14.276 -0.3351  0.4379  0.7640
10362TIP3    H152501   2.204   4.463  14.197  0.2501  2.4267  0.0036
10362TIP3    H252502   2.133   4.429  14.326  2.0197 -1.1960  0.0794
10363TIP3   OH252503   6.737   4.780   1.726  0.1786 -0.6240 -0.0179
10363TIP3    H152504   6.793   4.841   1.679  1.4065 -0.6966  1.3188
10363TIP3    H252505   6.648   4.813   1.713  0.7892  1.1971  0.3230
10364TIP3   OH252506   3.629   1.680  16.147  0.5135  0.2472 -0.6160
10364TIP3    H152507   3.638   1.775  16.158  0.1317  0.4058 -1.6266
10364TIP3    H252508   3.557   1.656  16.204  0.2108  0.6619 -0.8198
10365TIP3   OH252509   2.842   5.137  11.210 -0.2369 -0.6210 -0.3822
10365TIP3    H152510   2.766   5.097  11.168 -0.9621 -1.3230  1.5118
10365TIP3    H252511   2.918   5.092  11.171 -0.9582 -2.4976  0.3052
10366TIP3   OH252512   1.639   3.575  16.983  0.3504 -0.3190 -0.5374
10366TIP3    H152513   1.587   3.652  16.960 -1.5956 -0.9080  1.6424
10366TIP3    H252514   1.606   3.505  16.926 -0.8849 -0.5373  0.4081
10367TIP3   OH252515   6.402   0.273   0.834  0.2114 -0.0411 -0.2342
10367TIP3    H152516   6.424   0.305   0.746 -0.7829  0.2895 -0.3666
10367TIP3    H252517   6.459   0.323   0.892  0.5518  0.0690 -0.6557
10368TIP3   OH252518   6.749   4.717   4.607 -0.3828 -0.0166  0.0933
10368TIP3    H152519   6.762   4.810   4.591  0.3092 -0.1274 -0.0026
10368TIP3    H252520   6.674   4.713   4.667  0.8542  0.7065  1.7346
10369TIP3   OH252521   1.285   1.234   4.328 -0.1180 -0.5640 -0.0224
10369TIP3    H152522   1.336   1.311   4.303 -0.0589 -1.5385 -3.1138
10369TIP3    H252523   1.350   1.171   4.356 -0.1201  0.2943  1.9518
10370TIP3   OH252524   5.657   6.556  15.556 -0.2405  0.9974  0.3278
10370TIP3    H152525   5.589   6.503  15.513  0.9130  0.6856 -1.1398
10370TIP3    H252526   5.709   6.493  15.605 -0.5542  1.1439  0.8543
10371TIP3   OH252527   4.221   5.103  16.992  0.0048  0.4114  0.4908
10371TIP3    H152528   4.161   5.153  17.049 -0.9014 -0.6232  0.4636
10371TIP3    H252529   4.259   5.169  16.934 -0.8118  1.1518  0.7751
10372TIP3   OH252530   6.415   5.029   5.648 -0.2497  0.4996  0.0217
10372TIP3    H152531   6.387   5.116   5.618  1.5292  1.4147  0.9713
10372TIP3    H252532   6.472   5.046   5.723 -0.0146 -1.5050  0.3348
10373TIP3   OH252533   6.005   1.672   2.207 -0.0335 -0.1321 -0.4530
10373TIP3    H152534   5.981   1.627   2.126 -0.5429  0.6171 -0.7210
10373TIP3    H252535   5.927   1.722   2.231  0.4373  0.4018 -0.0156
10374TIP3   OH252536   0.798   6.097  13.294 -0.5741  0.2237 -0.2001
10374TIP3    H152537   0.708   6.087  13.325 -0.0503  0.2804  1.4111
10374TIP3    H252538   0.793   6.164  13.226 -1.8353 -0.2140 -0.5479
10375TIP3   OH252539   5.831   0.706  16.108 -0.3835 -0.1573 -0.1447
10375TIP3    H152540   5.808   0.614  16.097 -1.8772  0.1370  0.3658
10375TIP3    H252541   5.768   0.754  16.054 -0.6490  0.6462  0.8439
10376TIP3   OH252542   3.258   1.605   0.837  0.2911 -0.2537  0.3853
10376TIP3    H152543   3.318   1.667   0.877  1.9316 -1.3786 -0.2732
10376TIP3    H252544   3.271   1.615   0.743  1.0249 -1.9872  0.2762
10377TIP3   OH252545   5.779   5.496  17.015 -0.4617  0.8872  0.2197
10377TIP3    H152546   5.814   5.558  16.951  1.4025 -0.8092 -0.4274
10377TIP3    H252547   5.740   5.427  16.962  1.6095 -0.8237  0.8759
10378TIP3   OH252548   2.809   3.146   4.973 -0.0876 -0.1544  0.0218
10378TIP3    H152549   2.850   3.105   4.897 -0.6638 -0.4920 -0.1041
10378TIP3    H252550   2.863   3.224   4.989 -0.3116  0.2351 -1.0761
10379TIP3   OH252551   5.074   4.387  16.930 -0.0907 -0.1014 -0.4071
10379TIP3    H152552   5.155   4.353  16.969 -0.0796  0.8038  0.3927
10379TIP3    H252553   5.078   4.359  16.839  1.0521 -0.2039 -0.3351
10380TIP3   OH252554   3.406   0.997  12.997  0.1790  0.1801  0.8539
10380TIP3    H152555   3.440   1.022  13.083  0.7320  0.5574  0.5282
10380TIP3    H252556   3.484   0.976  12.946 -0.1401  0.0738  0.4042
10381TIP3   OH252557   1.754   1.633   3.229 -0.5219 -0.3702  0.2223
10381TIP3    H152558   1.745   1.539   3.210 -0.6113 -1.0455  3.3122
10381TIP3    H252559   1.848   1.647   3.238 -0.5716 -0.4337  0.8965
10382TIP3   OH252560   2.057   4.390   4.182 -0.1917 -0.0978  0.2031
10382TIP3    H152561   2.038   4.474   4.224 -1.0188 -0.6762  0.9868
10382TIP3    H252562   2.144   4.402   4.143 -1.0034  1.6630 -1.1041
10383TIP3   OH252563   0.671   4.042  11.004  0.1975 -0.2182 -0.1080
10383TIP3    H152564   0.713   3.972  10.953  0.3034  0.8946 -1.5904
10383TIP3    H252565   0.676   4.119  10.947  0.9872  1.2564  1.9021
10384TIP3   OH252566   5.596   6.601  14.859 -0.1048  0.0946  0.3523
10384TIP3    H152567   5.683   6.626  14.891 -0.3221  1.6708 -0.2270
10384TIP3    H252568   5.551   6.685  14.845 -0.7394 -0.6284 -2.0541
10385TIP3   OH252569   3.999   1.853  14.966 -0.5037 -0.0632  0.8349
10385TIP3    H152570   4.010   1.788  14.897 -2.9728 -1.0473  1.3068
10385TIP3    H252571   4.030   1.935  14.928  0.7901 -1.1287 -0.4503
10386TIP3   OH252572   0.420   5.438  12.867 -0.2326 -0.1154 -0.1903
10386TIP3    H152573   0.436   5.388  12.786 -2.6488  1.0819 -1.4638
10386TIP3    H252574   0.409   5.529  12.837 -1.4272  0.3028  1.4644
10387TIP3   OH252575   5.761   5.190   2.757  0.3655  0.7545 -0.2446
10387TIP3    H152576   5.704   5.115   2.746 -0.6283  1.6433 -1.2469
10387TIP3    H252577   5.806   5.174   2.840 -1.5406  0.1939  0.6993
10388TIP3   OH252578   5.049   3.350   3.119 -0.1608  0.4790  0.3073
10388TIP3    H152579   5.114   3.331   3.187 -1.0672 -0.0481  1.0319
10388TIP3    H252580   4.971   3.303   3.147 -0.6197  0.4691 -0.9726
10389TIP3   OH252581   2.503   2.896   2.265 -0.2390 -0.3487 -0.0070
10389TIP3    H152582   2.505   2.801   2.258 -0.1396 -0.3546  0.0840
10389TIP3    H252583   2.574   2.926   2.207  0.3823 -0.3824  0.7215
10390TIP3   OH252584   0.673   5.362   3.779  0.0524  0.1283  0.6201
10390TIP3    H152585   0.733   5.308   3.831 -1.7323 -1.9267  0.6205
10390TIP3    H252586   0.671   5.446   3.824 -1.0840 -1.4551  3.6475
10391TIP3   OH252587   2.702   3.250  12.857  0.3438 -0.0342 -0.0632
10391TIP3    H152588   2.788   3.288  12.840  0.3110 -0.4492 -1.1936
10391TIP3    H252589   2.653   3.261  12.775 -0.9963  1.0112  0.8627
10392TIP3   OH252590   3.152   0.628   2.862 -0.6313 -0.9093  0.5853
10392TIP3    H152591   3.184   0.539   2.846 -0.0079 -0.4561 -0.8429
10392TIP3    H252592   3.108   0.653   2.781  0.9009  0.7831  0.2165
10393TIP3   OH252593   5.387   5.860  13.719 -0.1876 -0.0461  0.2632
10393TIP3    H152594   5.296   5.861  13.691 -0.1311 -0.1997  0.0701
10393TIP3    H252595   5.406   5.768  13.737 -0.8091  0.2872  2.7738
10394TIP3   OH252596   0.001   3.697  14.741 -0.2733 -0.2298  0.6251
10394TIP3    H152597  -0.078   3.673  14.789 -0.1138 -1.0790  0.4862
10394TIP3    H252598  -0.008   3.652  14.657 -1.0911  2.1680 -0.6112
10395TIP3   OH252599   6.231   0.381  11.977 -1.0752  0.1817 -0.2320
10395TIP3    H152600   6.271   0.297  12.000  1.4109  1.2348 -0.5413
10395TIP3    H252601   6.218   0.426  12.060  0.5618  0.7698 -0.2813
10396TIP3   OH252602   0.427   1.669  14.004  0.3808  0.3475  0.3280
10396TIP3    H152603   0.389   1.674  14.092 -1.8806 -0.6461 -0.5537
10396TIP3    H252604   0.372   1.727  13.951 -0.9852 -2.3855 -1.3395
10397TIP3   OH252605   6.330   5.785  13.600  0.4564 -0.2979  0.4722
10397TIP3    H152606   6.235   5.786  13.603  0.3940  1.4197 -0.8670
10397TIP3    H252607   6.356   5.871  13.633  1.3638  0.6895 -2.6492
10398TIP3   OH252608   3.255   1.073  16.704 -0.2970  0.0012 -0.0463
10398TIP3    H152609   3.239   1.121  16.623  0.7972  0.3649 -0.0597
10398TIP3    H252610   3.235   0.981  16.683  0.0126  0.0928 -0.7370
10399TIP3   OH252611   0.558   6.778  12.298 -0.1388  0.2985  0.4566
10399TIP3    H152612   0.603   6.830  12.364  0.5752 -2.2349  2.0087
10399TIP3    H252613   0.627   6.751  12.237 -0.1999 -0.4186  0.7076
10400TIP3   OH252614   4.767   2.032  11.004  0.4975  0.1603 -0.8146
10400TIP3    H152615   4.829   1.989  11.063  1.2837  1.7773 -0.4446
10400TIP3    H252616   4.711   1.961  10.973  0.7612 -0.8857  1.0199
10401TIP3   OH252617   1.553   2.817  16.666 -0.5280 -0.1542  0.1872
10401TIP3    H152618   1.543   2.840  16.758 -2.7588 -0.9130  0.1594
10401TIP3    H252619   1.484   2.866  16.621  0.8396  0.5961 -1.1847
10402TIP3   OH252620   0.561   6.440   3.816  0.4076  0.1981 -0.3942
10402TIP3    H152621   0.529   6.445   3.906  0.6704  0.3126 -0.3085
10402TIP3    H252622   0.564   6.346   3.797 -0.7096  0.2143 -0.6587
10403TIP3   OH252623   2.506   5.036   4.706 -0.0391  0.6600 -0.1370
10403TIP3    H152624   2.444   5.096   4.747 -0.3963  0.0048  0.3019
10403TIP3    H252625   2.592   5.074   4.723 -0.1787  0.3343  1.3381
10404TIP3   OH252626   4.505   0.502  12.061 -0.1768 -0.1703 -0.2380
10404TIP3    H152627   4.512   0.540  12.149 -0.0471  0.8936 -0.6927
10404TIP3    H252628   4.441   0.557  12.017  0.3167 -0.2435 -1.0438
10405TIP3   OH252629   2.401   6.019   1.941 -0.0156  0.6409 -0.6032
10405TIP3    H152630   2.397   6.081   2.014  1.0242 -0.6854  0.5889
10405TIP3    H252631   2.477   5.964   1.960 -2.0868 -2.3220 -0.5759
10406TIP3   OH252632   2.287   5.857   0.848 -0.1186  0.0731  0.1679
10406TIP3    H152633   2.240   5.775   0.867  0.9495 -0.7338 -0.6067
10406TIP3    H252634   2.223   5.911   0.802 -1.5845  0.6175  2.7622
10407TIP3   OH252635   1.874   1.090  15.664  0.7978 -0.1865  0.1001
10407TIP3    H152636   1.834   1.043  15.737 -0.0205  1.0173  0.4398
10407TIP3    H252637   1.939   1.147  15.704  2.7847 -2.0164 -0.4339
10408TIP3   OH252638   2.436   4.998  14.214  0.6639  0.1848 -0.3588
10408TIP3    H152639   2.522   4.968  14.244 -0.4364 -2.8662 -0.1486
10408TIP3    H252640   2.415   5.071  14.272  1.8237 -0.9135  1.4911
10409TIP3   OH252641   3.782   5.353  14.531 -0.1098 -0.5027 -0.0290
10409TIP3    H152642   3.847   5.291  14.565 -0.9287 -0.8694  0.8995
10409TIP3    H252643   3.818   5.439  14.553  1.0252 -0.6385 -1.3114
10410TIP3   OH252644   0.408   6.311  11.625 -0.2117 -0.2840  0.3615
10410TIP3    H152645   0.337   6.337  11.684  0.0190  2.3830 -0.4725
10410TIP3    H252646   0.364   6.267  11.552 -0.9262  0.4248  0.3566
10411TIP3   OH252647   0.423   0.295   1.186 -0.3387  0.1530  0.6163
10411TIP3    H152648   0.501   0.250   1.218  0.5429  0.4786 -1.0307
10411TIP3    H252649   0.351   0.257   1.237  0.3357 -3.3140 -0.8422
10412TIP3   OH252650   1.572   2.216  17.169  0.0671  0.4475 -0.2630
10412TIP3    H152651   1.615   2.147  17.118 -0.4854  0.0685 -0.2099
10412TIP3    H252652   1.482   2.187  17.179 -0.6489  2.0252 -1.8009
10413TIP3   OH252653   0.818   4.506   4.778  0.4911  0.1954  0.3920
10413TIP3    H152654   0.772   4.536   4.857 -0.3879  1.6824 -0.6641
10413TIP3    H252655   0.838   4.587   4.730  0.2495 -0.7489 -1.3307
10414TIP3   OH252656   3.053   1.212  16.433  0.2812  0.5462  0.1610
10414TIP3    H152657   3.110   1.287  16.417 -0.1953  1.0564  0.8075
10414TIP3    H252658   3.058   1.160  16.352  1.0554  0.9762 -0.0740
10415TIP3   OH252659   6.329   0.805  11.027  0.2503 -0.0389 -0.4698
10415TIP3    H152660   6.358   0.895  11.014  0.8690 -0.4352 -1.8814
10415TIP3    H252661   6.408   0.757  11.051  0.2804 -0.5742 -1.6039
10416TIP3   OH252662   2.395   2.658   3.265  0.5027  0.4247  0.2145
10416TIP3    H152663   2.363   2.674   3.177  0.6938 -1.5306 -0.2337
10416TIP3    H252664   2.326   2.607   3.307  1.3229 -0.4892  0.4826
10417TIP3   OH252665   0.170   5.332   2.752 -0.3146  0.1513 -0.0492
10417TIP3    H152666   0.220   5.392   2.697 -0.9535  0.6730 -0.0606
10417TIP3    H252667   0.080   5.340   2.721 -0.4760 -0.4812  0.2471
10418TIP3   OH252668   3.572   6.088  14.409 -0.2299  0.2298 -0.3265
10418TIP3    H152669   3.564   6.184  14.410  2.6849  0.4969  1.3400
10418TIP3    H252670   3.629   6.070  14.334 -1.1250 -0.2372 -0.8950
10419TIP3   OH252671   4.820   1.184   2.093 -0.5178  0.6769  0.2892
10419TIP3    H152672   4.767   1.259   2.122  0.4191  1.2989  0.4279
10419TIP3    H252673   4.905   1.223   2.071 -0.4228 -0.1748 -0.8325
10420TIP3   OH252674   5.803   2.156  12.563 -0.4091 -0.2978  0.0235
10420TIP3    H152675   5.776   2.235  12.517  1.1950 -0.9082 -2.0381
10420TIP3    H252676   5.728   2.097  12.556 -1.5508  0.9633  1.4367
10421TIP3   OH252677   5.709   4.604  14.722  0.1161 -0.4094  0.1573
10421TIP3    H152678   5.639   4.613  14.786 -2.9834  0.5277 -3.1722
10421TIP3    H252679   5.737   4.513  14.729 -0.6244 -0.4927  2.3273
10422TIP3   OH252680   0.152   5.177  13.252 -0.0884  0.5413  0.3856
10422TIP3    H152681   0.199   5.218  13.179 -1.3295  0.3562 -0.5276
10422TIP3    H252682   0.066   5.219  13.253 -0.7103 -0.7125  0.6154
10423TIP3   OH252683   6.037   5.920   2.631 -0.3046 -0.2551  0.3818
10423TIP3    H152684   5.998   5.842   2.591  1.3897 -1.0634  0.2254
10423TIP3    H252685   6.129   5.895   2.644  0.2934  1.7887  0.1544
10424TIP3   OH252686   2.679   1.712  12.574 -0.2705 -0.5627 -0.4210
10424TIP3    H152687   2.595   1.754  12.589  0.1119 -0.6782  2.3583
10424TIP3    H252688   2.658   1.630  12.529 -1.6677 -0.6230  0.3288
10425TIP3   OH252689   5.980   2.489   1.803  0.6817 -0.3018 -0.2671
10425TIP3    H152690   5.984   2.397   1.830 -0.2128  0.1541  1.4909
10425TIP3    H252691   5.899   2.496   1.752  0.9834 -0.5827 -0.7875
10426TIP3   OH252692   3.776   0.403   2.241  0.7498  0.7737 -0.2844
10426TIP3    H152693   3.838   0.433   2.174  1.8530  0.7614  0.7125
10426TIP3    H252694   3.831   0.380   2.316 -0.1691 -2.5252 -0.5492
10427TIP3   OH252695   5.813   3.445  15.163 -0.4721  0.0526  0.7348
10427TIP3    H152696   5.874   3.428  15.235  0.9797  1.9386 -0.0236
10427TIP3    H252697   5.764   3.363  15.154 -0.0877 -0.5037  3.2940
10428TIP3   OH252698   3.793   1.628  16.377 -0.6558 -0.4753 -0.2225
10428TIP3    H152699   3.744   1.631  16.294  0.1477 -1.1250 -0.7223
10428TIP3    H252700   3.805   1.720  16.401 -0.2690 -0.2610 -1.1990
10429TIP3   OH252701   3.835   0.662  11.869 -0.2121 -0.2067 -0.0448
10429TIP3    H152702   3.856   0.664  11.962 -1.2760 -1.4839  0.2441
10429TIP3    H252703   3.767   0.728  11.858 -0.8509 -0.7964  0.2981
10430TIP3   OH252704   0.342   3.975  14.048 -0.0666  0.1548  0.3466
10430TIP3    H152705   0.290   3.987  13.968  2.1078 -0.6940 -1.2483
10430TIP3    H252706   0.360   4.064  14.079 -1.4267  0.4764  0.2450
10431TIP3   OH252707   2.729   3.833  11.206 -0.0981 -0.3122 -0.4617
10431TIP3    H152708   2.801   3.831  11.269 -0.1063 -0.0593 -0.4456
10431TIP3    H252709   2.747   3.758  11.148 -0.4604 -0.9477  0.2470
10432TIP3   OH252710   4.656   6.624  16.253  0.0758 -0.3608  0.6748
10432TIP3    H152711   4.675   6.716  16.272 -1.3125 -0.6218  3.6024
10432TIP3    H252712   4.741   6.581  16.256  0.7133  0.7564 -0.5310
10433TIP3   OH252713   0.444   1.552  15.433 -0.3221 -0.2886 -1.0221
10433TIP3    H152714   0.538   1.572  15.432  0.0263 -1.8063 -1.2149
10433TIP3    H252715   0.409   1.595  15.356  0.2225  0.2816 -0.9556
10434TIP3   OH252716   0.333   4.361  13.811  0.2833  0.4213 -0.0375
10434TIP3    H152717   0.273   4.432  13.792  0.5041  0.9560  1.2340
10434TIP3    H252718   0.363   4.377  13.900 -0.0741 -1.5601  0.4629
10435TIP3   OH252719   5.672   5.229   4.166  0.2289 -0.1011  0.1623
10435TIP3    H152720   5.720   5.150   4.144 -0.7872 -0.6629 -0.0842
10435TIP3    H252721   5.627   5.207   4.248 -1.1305 -0.2595 -0.6133
10436TIP3   OH252722   3.704   0.817   5.399 -0.2540 -0.0425 -0.0664
10436TIP3    H152723   3.723   0.729   5.365 -1.7870 -0.3621 -0.1137
10436TIP3    H252724   3.695   0.805   5.494 -0.7512  0.0098 -0.1063
10437TIP3   OH252725   4.850   5.655  12.326  0.1911 -0.4593  0.4018
10437TIP3    H152726   4.944   5.664  12.308  0.5591 -3.0050  0.8331
10437TIP3    H252727   4.844   5.577  12.382 -2.2747 -0.8446 -0.3486
10438TIP3   OH252728   4.946   6.252   3.395 -0.3894 -0.1664 -0.5762
10438TIP3    H152729   5.028   6.232   3.440 -0.2784 -0.2006 -0.7930
10438TIP3    H252730   4.923   6.171   3.349  0.9262  0.6912 -2.8027
10439TIP3   OH252731   3.556   1.290   1.246  0.2197  0.0749 -0.9758
10439TIP3    H152732   3.626   1.303   1.182  0.3785  0.1162 -0.7940
10439TIP3    H252733   3.491   1.238   1.200 -0.4684  1.6039 -1.7411
10440TIP3   OH252734   3.679   1.245  16.321  0.3132  0.3615  0.1638
10440TIP3    H152735   3.688   1.285  16.407  1.6622 -0.2970  0.3422
10440TIP3    H252736   3.738   1.295  16.265  1.5529 -0.9651  0.2555
10441TIP3   OH252737   3.435   1.746   2.019  0.3609  0.2739  0.6034
10441TIP3    H152738   3.470   1.660   2.044  0.0054 -0.1604 -0.3370
10441TIP3    H252739   3.340   1.732   2.014  0.2181  0.9584  1.3254
10442TIP3   OH252740   2.978   6.726  11.236  0.2736 -0.5978 -0.6821
10442TIP3    H152741   2.899   6.676  11.217  0.3401 -0.5711 -1.0415
10442TIP3    H252742   2.965   6.760  11.324  0.5852 -1.9228 -0.1177
10443TIP3   OH252743   2.951   4.477   2.778 -0.4589 -0.1340  0.8221
10443TIP3    H152744   3.022   4.538   2.797 -0.6310  0.4037 -0.2055
10443TIP3    H252745   2.933   4.433   2.861 -0.5255  1.4180  1.6378
10444TIP3   OH252746   4.703   2.711  11.382  0.1558  0.4191 -0.2932
10444TIP3    H152747   4.752   2.644  11.335  0.1002  0.5050 -0.4725
10444TIP3    H252748   4.645   2.748  11.317 -1.3893 -0.8647  0.3230
10445TIP3   OH252749   5.009   0.852  15.099 -0.7096  0.9163  0.0453
10445TIP3    H152750   5.058   0.932  15.077 -1.2599  1.3797  0.4803
10445TIP3    H252751   4.997   0.807  15.016  1.9245 -0.0571  0.1404
10446TIP3   OH252752   2.171   0.478  12.903 -0.5203  0.5966 -0.2402
10446TIP3    H152753   2.255   0.446  12.936 -0.8303 -0.8194 -0.7917
10446TIP3    H252754   2.194   0.534  12.829 -0.1529 -1.9418 -2.1169
10447TIP3   OH252755   5.300   5.031   1.798 -0.5390 -0.6004  0.1771
10447TIP3    H152756   5.382   5.079   1.810 -1.4464  0.8499  0.5991
10447TIP3    H252757   5.249   5.048   1.877 -0.9285 -2.1616  0.2803
10448TIP3   OH252758   3.215   5.012   2.371 -0.1238  0.0957 -0.4529
10448TIP3    H152759   3.295   4.960   2.364  0.0013  0.5261 -2.4637
10448TIP3    H252760   3.231   5.088   2.316 -1.3302  0.9583  0.3648
10449TIP3   OH252761   5.380   3.071   5.079  0.3604  0.0092 -0.4023
10449TIP3    H152762   5.414   3.038   5.162  2.8403  0.0836 -1.3227
10449TIP3    H252763   5.380   3.166   5.089 -0.2359 -0.0176 -0.1558
10450TIP3   OH252764   5.015   0.942  16.752 -0.2105  0.3174 -0.3180
10450TIP3    H152765   5.019   1.019  16.695 -0.9723  0.7768  0.2383
10450TIP3    H252766   4.968   0.973  16.830 -1.1027 -0.8839 -0.3735
10451TIP3   OH252767   0.768   1.942   5.778  0.3076 -0.1149 -0.7371
10451TIP3    H152768   0.735   2.025   5.743  1.5221  0.1297 -1.3282
10451TIP3    H252769   0.710   1.875   5.741 -0.7159  0.4673 -0.2051
10452TIP3   OH252770   0.231   5.406   4.393 -0.3969  0.3275 -0.7220
10452TIP3    H152771   0.184   5.324   4.374 -0.3458  0.0759  0.2174
10452TIP3    H252772   0.164   5.474   4.386 -0.6142  0.1160 -0.7172
10453TIP3   OH252773   5.560   4.181  12.180  0.1235  0.6216 -0.3979
10453TIP3    H152774   5.599   4.239  12.115  0.2149  2.4865  1.2669
10453TIP3    H252775   5.493   4.233  12.223 -2.0973 -1.5714 -1.0713
10454TIP3   OH252776   4.429   0.206  12.470 -0.2476  0.1438  0.1795
10454TIP3    H152777   4.419   0.296  12.438  0.5860  0.0549 -0.3691
10454TIP3    H252778   4.465   0.158  12.395  1.1060 -0.2308  1.0538
10455TIP3   OH252779   0.613   3.293   3.219  0.3183 -0.4228  0.1982
10455TIP3    H152780   0.689   3.281   3.277 -0.1904  1.5099  1.3045
10455TIP3    H252781   0.649   3.288   3.131  1.9863  1.9430  0.7137
10456TIP3   OH252782   6.167   5.257   1.850  0.1570 -0.1620 -0.2489
10456TIP3    H152783   6.202   5.265   1.761 -1.9660 -0.6625 -1.1642
10456TIP3    H252784   6.078   5.225   1.837 -0.4685  0.6066  2.0407
10457TIP3   OH252785   5.526   2.059   3.280  0.0750  0.5884 -0.1656
10457TIP3    H152786   5.470   2.131   3.310 -1.0002  0.3373 -1.4973
10457TIP3    H252787   5.477   2.020   3.207  1.9836  0.3146 -1.3140
10458TIP3   OH252788   5.122   3.293   1.245  0.0661  0.1462  0.4804
10458TIP3    H152789   5.205   3.296   1.197  0.9016  1.1213  1.9725
10458TIP3    H252790   5.061   3.344   1.191 -0.2434 -2.5408 -1.8352
10459TIP3   OH252791   4.291   1.332   3.432 -0.3091 -0.2178  0.0415
10459TIP3    H152792   4.196   1.320   3.431 -0.6474  2.2599 -0.2726
10459TIP3    H252793   4.311   1.370   3.347  0.9888 -0.8906  0.0440
10460TIP3   OH252794   5.166   0.888  11.187 -0.2355  0.0287  0.1331
10460TIP3    H152795   5.200   0.800  11.200  0.2015  0.3698  1.3648
10460TIP3    H252796   5.240   0.937  11.149 -0.3691 -0.0408 -0.2215
10461TIP3   OH252797   0.053   4.838  15.294  0.6655 -0.0863  0.1249
10461TIP3    H152798   0.025   4.927  15.313 -2.8705 -0.7372 -1.6246
10461TIP3    H252799   0.132   4.848  15.241 -0.0318  2.0097 -0.5398
10462TIP3   OH252800   5.087   4.240  16.675  0.1379  0.1555  0.0572
10462TIP3    H152801   5.180   4.225  16.661 -0.2136 -0.3237 -1.9182
10462TIP3    H252802   5.064   4.310  16.614 -0.7113  0.5635  0.8250
10463TIP3   OH252803   3.460   1.965   5.467 -0.0712  0.1396 -0.2391
10463TIP3    H152804   3.377   2.010   5.455 -1.9475 -2.7045  1.4088
10463TIP3    H252805   3.462   1.899   5.398  0.7723  0.1511 -0.2274
10464TIP3   OH252806   1.129   3.544  12.780 -0.6793 -0.1461 -0.4696
10464TIP3    H152807   1.212   3.528  12.825 -0.4238 -0.4727 -1.0428
10464TIP3    H252808   1.078   3.598  12.840 -0.2667 -0.4140  0.1175
10465TIP3   OH252809   0.026   1.834  11.462 -0.0030  0.2502  0.3482
10465TIP3    H152810  -0.021   1.907  11.503  0.9184  0.1523  1.6091
10465TIP3    H252811   0.020   1.763  11.527  0.2748 -0.3581 -0.2908
10466TIP3   OH252812   6.630   6.373  15.012  0.5293  0.3824 -0.2790
10466TIP3    H152813   6.553   6.317  15.001 -0.0935  1.1214  0.2668
10466TIP3    H252814   6.703   6.322  14.975 -0.0925 -0.6282 -0.1203
10467TIP3   OH252815   6.613   0.836   6.241  0.3861 -0.0072 -0.1713
10467TIP3    H152816   6.702   0.836   6.276 -0.0573 -0.1111  0.9683
10467TIP3    H252817   6.602   0.749   6.203  1.2066  0.4352 -1.4607
10468TIP3   OH252818   0.504   2.962  15.767  0.3632 -0.6475 -0.0300
10468TIP3    H152819   0.498   3.052  15.735 -2.8190 -0.2777  1.3886
10468TIP3    H252820   0.578   2.963  15.828 -0.8712  1.5707  1.5222
10469TIP3   OH252821   1.349   3.498   0.570 -0.1600  0.0807 -0.1301
10469TIP3    H152822   1.313   3.420   0.527  1.0704 -1.0811  0.8882
10469TIP3    H252823   1.388   3.464   0.651  0.4362  1.7565  0.2934
10470TIP3   OH252824   4.618   2.998  11.729  0.2872 -0.2469 -0.7244
10470TIP3    H152825   4.526   3.024  11.740  0.5546 -0.2420  1.7306
10470TIP3    H252826   4.614   2.905  11.705 -0.3711 -0.1843 -0.8638
10471TIP3   OH252827   2.214   0.652  14.737 -0.9875  0.1904  0.4922
10471TIP3    H152828   2.261   0.719  14.787  1.0287 -0.2809 -0.7169
10471TIP3    H252829   2.159   0.608  14.802  0.1388  0.8621  1.9252
10472TIP3   OH252830   0.152   3.841   1.092 -0.1426 -0.1718 -0.7747
10472TIP3    H152831   0.128   3.882   1.175  2.0134  0.0514 -0.2366
10472TIP3    H252832   0.239   3.876   1.071  0.7989 -2.7273 -1.4357
10473TIP3   OH252833   3.204   4.359   4.958 -0.1817 -0.2788 -0.1088
10473TIP3    H152834   3.163   4.301   4.893  0.1995  0.1465 -0.7317
10473TIP3    H252835   3.221   4.302   5.033 -0.4665 -0.8178 -0.4471
10474TIP3   OH252836   4.099   5.909  16.075 -0.0455 -0.2302  0.5339
10474TIP3    H152837   4.150   5.979  16.034 -0.3253 -0.0765  0.4436
10474TIP3    H252838   4.019   5.952  16.106  0.3459 -0.2636  1.6229
10475TIP3   OH252839   3.250   6.129  12.166  0.5836 -0.1766 -0.0095
10475TIP3    H152840   3.272   6.039  12.190 -0.6824 -0.5363 -0.2084
10475TIP3    H252841   3.232   6.124  12.072  0.3415  0.2543  0.0163
10476TIP3   OH252842   4.855   2.888  12.880  0.3596 -0.4626  0.6336
10476TIP3    H152843   4.908   2.847  12.813 -1.6771 -0.0448 -1.2748
10476TIP3    H252844   4.820   2.815  12.931  1.1057 -0.8196  0.6465
10477TIP3   OH252845   1.825   1.660   2.350  0.0234 -0.5402  0.2470
10477TIP3    H152846   1.764   1.734   2.354 -1.1731 -1.6077  2.0845
10477TIP3    H252847   1.868   1.670   2.265 -1.3563  1.2922 -0.2738
10478TIP3   OH252848   0.554   6.075   2.918  0.1633  0.0566 -0.0658
10478TIP3    H152849   0.648   6.083   2.930  0.4538 -2.6723 -0.3098
10478TIP3    H252850   0.539   6.106   2.829  0.9603 -0.3880 -0.3603
10479TIP3   OH252851   0.852   3.123  12.440  0.3777 -0.0136  0.3901
10479TIP3    H152852   0.907   3.129  12.518  1.0315 -0.9771  0.0226
10479TIP3    H252853   0.806   3.039  12.449 -0.7060  0.5755  0.4736
10480TIP3   OH252854   2.134   4.677  14.539 -0.4192 -0.3340  0.5383
10480TIP3    H152855   2.201   4.734  14.577 -0.2165 -0.4826  0.4037
10480TIP3    H252856   2.136   4.698  14.445 -3.4790  2.7564  1.0585
10481TIP3   OH252857   5.664   2.394  11.555  0.3932  0.5809 -0.8195
10481TIP3    H152858   5.707   2.464  11.603  2.9119 -1.1890 -0.3707
10481TIP3    H252859   5.662   2.424  11.464 -0.5368  2.1401 -0.2866
10482TIP3   OH252860   3.393   3.134  16.063 -0.3128  0.5705  0.7751
10482TIP3    H152861   3.473   3.086  16.041  0.5365  2.6218 -0.7636
10482TIP3    H252862   3.364   3.095  16.146  1.0228 -1.7109  0.2208
10483TIP3   OH252863   5.010   5.018   2.707 -0.3183 -0.0630  0.4222
10483TIP3    H152864   5.041   4.929   2.727 -2.0577 -0.4641  1.4378
10483TIP3    H252865   4.967   5.010   2.622  0.0049 -0.0711  0.2588
10484TIP3   OH252866   3.666   0.386   0.814 -0.0079 -0.1315 -0.0797
10484TIP3    H152867   3.586   0.438   0.802  2.0228  2.4565 -3.2847
10484TIP3    H252868   3.710   0.428   0.889 -0.7897 -0.4557  0.5689
10485TIP3   OH252869   2.743   6.584  14.157 -0.0533  0.3194  0.4330
10485TIP3    H152870   2.721   6.518  14.223 -1.1391  0.3496  0.1029
10485TIP3    H252871   2.787   6.535  14.087  3.1675  0.6064  2.1532
10486TIP3   OH252872   1.402   5.731  15.844 -0.1187 -0.1473 -0.5692
10486TIP3    H152873   1.345   5.660  15.813 -1.9101  0.6658  0.8143
10486TIP3    H252874   1.373   5.808  15.796  0.3841  0.1054 -0.4710
10487TIP3   OH252875   1.581   2.273   1.443  0.1387 -0.4914  0.2055
10487TIP3    H152876   1.521   2.296   1.373  0.4664 -1.2590 -0.3377
10487TIP3    H252877   1.647   2.343   1.442  0.9448 -1.2348 -1.2125
10488TIP3   OH252878   0.059   3.321   2.566 -0.3742  0.0919 -0.7591
10488TIP3    H152879   0.089   3.239   2.526 -1.3228 -0.6489  0.0196
10488TIP3    H252880   0.035   3.296   2.655 -1.3574  1.0730 -0.7452
10489TIP3   OH252881   6.443   2.824   5.752  0.1363 -0.7091  0.0880
10489TIP3    H152882   6.364   2.777   5.779  0.1335  0.2913  1.8591
10489TIP3    H252883   6.412   2.912   5.730  0.4441 -0.9332 -1.2840
10490TIP3   OH252884   1.063   0.793  10.483  0.2533 -0.4767 -0.1599
10490TIP3    H152885   1.034   0.725  10.544 -1.3057 -0.1948 -0.5706
10490TIP3    H252886   1.015   0.871  10.511 -1.5709 -0.6653 -2.5858
10491TIP3   OH252887   6.607   2.600  17.185 -0.3670 -0.2223 -0.3385
10491TIP3    H152888   6.591   2.554  17.103 -2.1531  2.7192 -1.7114
10491TIP3    H252889   6.702   2.601  17.194 -0.1956 -1.3800 -1.8822
10492TIP3   OH252890   2.454   4.199  14.853 -0.6667  0.1873  0.3269
10492TIP3    H152891   2.375   4.215  14.904 -0.5030 -1.0176  0.9804
10492TIP3    H252892   2.455   4.269  14.787 -1.7760  0.7526  0.8997
10493TIP3   OH252893   2.220   4.347  11.285  0.0967 -0.3381  0.0939
10493TIP3    H152894   2.177   4.331  11.201 -1.0585  2.0041  0.1916
10493TIP3    H252895   2.189   4.276  11.341  0.3927 -1.5655 -1.2712
10494TIP3   OH252896   4.145   1.195   5.353 -0.0584  0.3705  0.6695
10494TIP3    H152897   4.149   1.155   5.266 -0.1571  1.1303  0.3096
10494TIP3    H252898   4.060   1.238   5.355 -0.1564  0.1512  1.2388
10495TIP3   OH252899   0.610   0.166   3.917  0.8942 -0.7056  0.2746
10495TIP3    H152900   0.633   0.146   3.827 -0.3166  0.3898 -0.3102
10495TIP3    H252901   0.518   0.142   3.924  0.6182  0.4541  0.8178
10496TIP3   OH252902   4.948   4.410   2.926  0.2833 -0.8551  0.3752
10496TIP3    H152903   4.956   4.463   2.847 -0.7550 -1.1247  0.0786
10496TIP3    H252904   4.897   4.334   2.898 -1.1448 -0.3653  1.5876
10497TIP3   OH252905   3.460   5.161   3.601 -0.1718 -0.3908 -0.2075
10497TIP3    H152906   3.545   5.182   3.561 -1.6566  2.0593 -2.1922
10497TIP3    H252907   3.459   5.211   3.682 -0.2851  0.6890 -0.8681
10498TIP3   OH252908   5.298   3.972  16.972  0.0591  0.2804  0.3548
10498TIP3    H152909   5.250   4.005  17.048  0.1432  0.7022  0.2215
10498TIP3    H252910   5.369   4.034  16.959  0.9651 -0.6311  0.8664
10499TIP3   OH252911   1.323   3.149   2.765 -0.8431 -0.0817 -0.4892
10499TIP3    H152912   1.381   3.142   2.688 -1.8597 -1.3455 -1.1682
10499TIP3    H252913   1.354   3.079   2.823  1.3272  2.2489  1.2514
10500TIP3   OH252914   2.474   2.285   3.733  0.3641  0.1258  0.1821
10500TIP3    H152915   2.551   2.229   3.717 -0.9061 -1.2196 -1.4410
10500TIP3    H252916   2.445   2.261   3.821  0.2920 -1.2527 -0.2010
10501TIP3   OH252917   1.474   3.613   0.295 -0.2975  0.2002  0.0677
10501TIP3    H152918   1.493   3.599   0.388 -0.7232 -2.0665 -0.1504
10501TIP3    H252919   1.379   3.619   0.292 -0.2443  0.8990 -0.1438
10502TIP3   OH252920   4.906   1.278  13.308 -0.1034 -0.4415  0.1556
10502TIP3    H152921   4.901   1.241  13.220 -2.5873 -0.9224  0.4467
10502TIP3    H252922   4.989   1.248  13.343  0.3718 -1.2106 -1.6075
10503TIP3   OH252923   1.072   5.250   0.709 -0.0551 -0.0171  0.0748
10503TIP3    H152924   1.114   5.169   0.736 -1.3149 -1.0663 -1.0389
10503TIP3    H252925   0.999   5.261   0.770  0.1372  0.3061  0.2483
10504TIP3   OH252926   4.438   3.684   1.045 -0.3602  0.0326  0.2434
10504TIP3    H152927   4.372   3.745   1.079 -0.6487  0.0061 -0.2706
10504TIP3    H252928   4.451   3.710   0.954 -0.8037 -0.9295 -0.1052
10505TIP3   OH252929   1.598   1.767   6.634 -0.6694 -0.3523  0.0199
10505TIP3    H152930   1.541   1.839   6.608 -0.1260  1.0391  2.5691
10505TIP3    H252931   1.541   1.690   6.636 -1.7080  0.3926 -0.6346
10506TIP3   OH252932   1.770   0.967  15.924 -0.8524  0.5283  0.1983
10506TIP3    H152933   1.816   1.020  15.989 -1.9409  1.2724  0.3843
10506TIP3    H252934   1.684   0.951  15.963 -0.6904 -1.0106 -0.0547
10507TIP3   OH252935   5.135   2.659   4.200 -0.1557 -0.4186 -0.5592
10507TIP3    H152936   5.119   2.743   4.156 -0.3430 -1.1426 -1.9012
10507TIP3    H252937   5.136   2.595   4.129  0.1293 -1.5384  0.4455
10508TIP3   OH252938   6.276   4.756   3.673 -0.3503 -0.5817  0.0235
10508TIP3    H152939   6.216   4.690   3.708 -0.4185 -0.6558 -0.2301
10508TIP3    H252940   6.234   4.839   3.692  0.0214 -0.5871  0.8734
10509TIP3   OH252941   1.089   5.338   5.928  0.2353 -0.1210  0.3516
10509TIP3    H152942   1.001   5.304   5.911  1.1774 -2.2553 -0.4162
10509TIP3    H252943   1.101   5.326   6.022 -0.5424  0.8494  0.5912
10510TIP3   OH252944   4.617   0.018   0.661 -0.6342 -0.3555  0.0241
10510TIP3    H152945   4.553   0.025   0.589 -0.5570 -0.9862 -0.1093
10510TIP3    H252946   4.600  -0.068   0.700 -0.4946 -0.1252  0.5905
10511TIP3   OH252947   3.304   2.302   0.690  0.5131 -0.1018  0.3866
10511TIP3    H152948   3.231   2.240   0.685 -0.5002  1.1222 -0.4634
10511TIP3    H252949   3.273   2.371   0.749  1.1419  0.2162  0.3531
10512TIP3   OH252950   1.429   4.796  15.226 -0.2514  0.1767 -0.5310
10512TIP3    H152951   1.467   4.859  15.287 -0.3180  0.7167 -1.0431
10512TIP3    H252952   1.385   4.732  15.282 -0.1718  0.5757 -0.0065
10513TIP3   OH252953   2.974   0.081  12.449 -0.5043 -0.2932 -0.5824
10513TIP3    H152954   2.928  -0.001  12.469 -0.6656 -0.1566 -0.3862
10513TIP3    H252955   2.994   0.118  12.535 -0.0158 -0.3565 -0.6635
10514TIP3   OH252956   4.114   2.069  16.582 -0.1268 -0.6672  0.1177
10514TIP3    H152957   4.190   2.092  16.528 -0.9652  1.3157 -0.2734
10514TIP3    H252958   4.141   1.991  16.630  1.2053 -1.5496 -1.9920
10515TIP3   OH252959   4.614   5.734   1.573 -0.1423  0.7739 -0.2558
10515TIP3    H152960   4.702   5.717   1.607  0.4809  0.0122 -2.1544
10515TIP3    H252961   4.621   5.714   1.479 -3.0896 -2.2518  0.0735
10516TIP3   OH252962   4.970   1.113  16.179 -0.5607  0.2434 -0.3988
10516TIP3    H152963   4.968   1.034  16.233  0.9184  1.1517  1.0489
10516TIP3    H252964   4.974   1.081  16.089 -1.9936 -1.3096  0.0612
10517TIP3   OH252965   5.730   6.326   0.903 -0.0489 -0.0008 -0.0764
10517TIP3    H152966   5.712   6.367   0.818 -1.1531 -0.5434 -0.1088
10517TIP3    H252967   5.825   6.335   0.914  0.1057  0.0720 -1.3742
10518TIP3   OH252968   2.265   5.644   4.675  0.0254 -0.0374  0.3108
10518TIP3    H152969   2.314   5.577   4.629  0.6464 -0.2190  1.2171
10518TIP3    H252970   2.246   5.710   4.608  0.6718 -0.4208 -0.2600
10519TIP3   OH252971   5.204   5.449  11.666 -0.6767 -0.5551  0.3061
10519TIP3    H152972   5.199   5.445  11.762  0.2465  1.6269  0.4715
10519TIP3    H252973   5.292   5.419  11.645  0.0700  1.5672  0.3430
10520TIP3   OH252974   0.433   4.741   1.972 -0.1121 -0.1885  0.2428
10520TIP3    H152975   0.456   4.821   2.019 -0.4123 -0.1738  0.3665
10520TIP3    H252976   0.343   4.756   1.941 -0.0146 -0.3061 -0.0982
10521TIP3   OH252977   5.538   3.277  14.308  0.3773 -0.0228  0.7785
10521TIP3    H152978   5.541   3.329  14.228  0.3052 -1.1183  0.0562
10521TIP3    H252979   5.564   3.189  14.281 -0.1042 -0.5119  1.8639
10522TIP3   OH252980   1.974   1.761   4.430  0.0777 -0.0657 -0.4971
10522TIP3    H152981   1.950   1.836   4.484 -1.5426 -0.1250 -1.1217
10522TIP3    H252982   1.895   1.708   4.425  0.3608 -0.3313 -2.4778
10523TIP3   OH252983   3.965   3.489  12.809 -0.2247  0.3680  0.7519
10523TIP3    H152984   3.961   3.400  12.844 -0.1526  0.4177  0.8880
10523TIP3    H252985   4.018   3.537  12.872  0.6617  0.2439  0.1152
10524TIP3   OH252986   6.492   3.811   4.858  0.7423 -0.1169  0.0444
10524TIP3    H152987   6.557   3.881   4.862  0.0659  0.4649  1.4652
10524TIP3    H252988   6.408   3.857   4.865  0.1897 -0.8890 -1.3630
10525TIP3   OH252989   4.338   4.797   2.778 -0.1736 -0.0117  0.1592
10525TIP3    H152990   4.411   4.783   2.838  0.2366  0.8534 -0.1272
10525TIP3    H252991   4.370   4.767   2.693 -0.6264 -0.8947  0.2936
10526TIP3   OH252992   0.966   5.762  16.017  0.5697 -0.2346  0.0551
10526TIP3    H152993   0.967   5.815  16.097 -0.3351 -0.6015  0.3089
10526TIP3    H252994   0.894   5.701  16.029  2.3457 -2.3355  0.2668
10527TIP3   OH252995   0.585   3.085  16.980  0.0720  0.0466 -0.1283
10527TIP3    H152996   0.551   2.995  16.981  2.2057 -0.7935  1.0472
10527TIP3    H252997   0.606   3.101  16.888  1.4406 -1.3875 -0.0946
10528TIP3   OH252998   0.933   3.905  16.049 -0.1737  0.3049 -0.6698
10528TIP3    H152999   0.877   3.978  16.023 -0.2113  0.5819  0.1681
10528TIP3    H253000   0.933   3.908  16.144  0.8033 -0.0505 -0.6551
10529TIP3   OH253001   6.153   4.618  10.838 -0.4895  0.1839  0.3652
10529TIP3    H153002   6.109   4.556  10.780 -1.0137 -0.4177  1.4081
10529TIP3    H253003   6.082   4.661  10.886  0.0368 -0.4790  1.7367
10530TIP3   OH253004   2.919   1.673   5.755  0.1713  0.4509  0.1443
10530TIP3    H153005   2.877   1.722   5.826  1.0470  3.6677 -1.4629
10530TIP3    H253006   3.001   1.642   5.793 -0.5708 -0.1612  1.3006
10531TIP3   OH253007   4.678   0.413  15.275 -0.3178  0.0606 -0.4622
10531TIP3    H153008   4.726   0.359  15.338 -1.3692 -1.2076 -0.7251
10531TIP3    H253009   4.676   0.500  15.315 -1.8676 -0.9560  1.7678
10532TIP3   OH253010   6.332   1.022  16.637  0.6310 -0.4567 -0.5021
10532TIP3    H153011   6.348   1.090  16.572  1.3412 -0.1795 -0.0425
10532TIP3    H253012   6.240   0.999  16.625  0.3382  0.7161 -0.5391
10533TIP3   OH253013   1.502   5.769   2.654 -0.1892 -0.0912  0.3431
10533TIP3    H153014   1.572   5.824   2.690 -0.0120 -1.0999  1.5633
10533TIP3    H253015   1.548   5.698   2.610 -0.4204  0.6857 -1.1951
10534TIP3   OH253016   0.424   2.924   0.151 -0.2323 -0.7964  0.5707
10534TIP3    H153017   0.447   2.912   0.243  1.7788 -2.9370 -0.1697
10534TIP3    H253018   0.485   2.991   0.119 -1.9759  1.1172  1.1459
10535TIP3   OH253019   0.168   4.066  12.524 -0.5419 -0.2018 -0.0169
10535TIP3    H153020   0.135   3.976  12.529 -2.7105  0.4776 -1.2917
10535TIP3    H253021   0.173   4.085  12.430 -0.6728  1.2028  0.2399
10536TIP3   OH253022   1.547   0.882  17.137 -0.0182 -0.0185  0.3535
10536TIP3    H153023   1.530   0.923  17.222  0.5911  0.3006  0.3302
10536TIP3    H253024   1.642   0.888  17.126 -0.1717  0.6862 -0.7163
10537TIP3   OH253025   4.330   0.294   2.612  0.1357 -0.2592 -0.6181
10537TIP3    H153026   4.272   0.238   2.664 -0.5073 -1.1871 -2.2741
10537TIP3    H253027   4.416   0.251   2.617 -0.1083 -0.8025 -0.9707
10538TIP3   OH253028   6.057   4.531   2.096 -0.7128 -0.1714 -0.2005
10538TIP3    H153029   6.004   4.462   2.057 -2.8538  1.8310 -0.8616
10538TIP3    H253030   6.118   4.484   2.153 -0.2576 -2.8144 -2.7670
10539TIP3   OH253031   5.905   3.345   4.763 -0.1727  0.7263 -0.2387
10539TIP3    H153032   5.936   3.259   4.792  1.8474  1.2700 -0.7468
10539TIP3    H253033   5.837   3.368   4.826  0.7460 -0.2968  1.1580
10540TIP3   OH253034   5.089   1.271   1.948 -0.3500  0.0476  0.0524
10540TIP3    H153035   5.129   1.281   1.862  0.0496 -0.7920  0.1407
10540TIP3    H253036   5.136   1.334   2.004 -0.9835  0.9908 -0.4558
10541TIP3   OH253037   5.678   5.965   6.080  0.0606 -0.1611 -0.6488
10541TIP3    H153038   5.705   5.895   6.140  0.3120 -0.3863 -1.0218
10541TIP3    H253039   5.696   5.929   5.993 -2.3668 -0.7193 -0.9626
10542TIP3   OH253040   4.748   6.140   2.710 -0.1035  0.0419  0.6095
10542TIP3    H153041   4.700   6.223   2.708 -0.4233 -0.1430 -3.2974
10542TIP3    H253042   4.702   6.087   2.775 -0.8557  2.3415  2.0108
10543TIP3   OH253043   6.427   3.776  14.756 -0.2677  0.2458 -0.2822
10543TIP3    H153044   6.484   3.851  14.738 -0.9313  0.4839 -1.4222
10543TIP3    H253045   6.450   3.749  14.845  1.6996  0.2665 -0.7634
10544TIP3   OH253046   1.561   6.427  17.074 -0.0546  0.3807  0.2042
10544TIP3    H153047   1.497   6.435  17.004 -0.5001  2.6396  0.8341
10544TIP3    H253048   1.513   6.385  17.146 -0.2530  0.2017 -0.0328
10545TIP3   OH253049   1.123   4.981  12.359  0.1179  0.2090 -0.6973
10545TIP3    H153050   1.202   5.025  12.327  0.4485  0.7246  0.8038
10545TIP3    H253051   1.123   4.897  12.313  1.6204  0.1454 -0.6093
10546TIP3   OH253052   3.902   2.829  15.670  0.4436  0.5219  0.3350
10546TIP3    H153053   3.951   2.898  15.625 -0.6982  1.3264  0.2895
10546TIP3    H253054   3.814   2.865  15.679 -0.7162 -1.7535 -1.4787
10547TIP3   OH253055   2.359   1.532  13.484  0.9113  0.3404  0.4560
10547TIP3    H153056   2.412   1.459  13.516  1.1344  0.3963  0.2161
10547TIP3    H253057   2.317   1.499  13.405 -0.2619 -0.0560  1.2327
10548TIP3   OH253058   5.856   6.531  16.559 -0.2308  0.1259 -0.2133
10548TIP3    H153059   5.936   6.502  16.602  1.1132  0.0847 -2.6693
10548TIP3    H253060   5.810   6.583  16.626 -0.2836 -3.4105  2.6312
10549TIP3   OH253061   0.440   4.614   5.684 -0.0525  0.2445 -0.0490
10549TIP3    H153062   0.431   4.604   5.778  0.3528 -2.2467 -0.2612
10549TIP3    H253063   0.531   4.638   5.670  0.0428 -0.0260  0.1257
10550TIP3   OH253064   3.841   2.605  15.222  0.2878  0.6164  0.0777
10550TIP3    H153065   3.753   2.634  15.197 -0.5798 -1.1518  0.9626
10550TIP3    H253066   3.829   2.514  15.247  2.8426 -0.3786 -2.1408
10551TIP3   OH253067   4.576   0.105  11.720  0.2732  0.1588  0.1860
10551TIP3    H153068   4.533   0.029  11.759 -0.1473  0.5055  0.3997
10551TIP3    H253069   4.519   0.178  11.741  0.8246  0.5772  0.2280
10552TIP3   OH253070   6.288   1.463  15.784 -1.0421 -0.2597  0.1215
10552TIP3    H153071   6.301   1.493  15.694 -0.7975  0.8537  0.5200
10552TIP3    H253072   6.241   1.535  15.827  2.4921  1.0658  1.9993
10553TIP3   OH253073   2.510   1.468   0.476 -0.0818  0.2177  0.2433
10553TIP3    H153074   2.520   1.563   0.479  0.9273  0.1681 -1.0963
10553TIP3    H253075   2.448   1.448   0.546 -1.4308  2.0061 -0.3997
10554TIP3   OH253076   0.450   6.004  13.800 -0.3304 -0.4823  0.7766
10554TIP3    H153077   0.545   5.993  13.803 -0.4602 -1.5299  1.2759
10554TIP3    H253078   0.428   6.042  13.885 -0.4644 -1.1252  1.0314
10555TIP3   OH253079   1.410   1.292  15.989 -0.2941 -0.4359 -0.2751
10555TIP3    H153080   1.503   1.297  15.968 -0.4234  0.0860 -0.7366
10555TIP3    H253081   1.369   1.258  15.910 -0.3931 -1.4769  0.2240
10556TIP3   OH253082   3.606   5.111   5.578 -0.1963 -0.3681  0.3190
10556TIP3    H153083   3.655   5.190   5.599 -0.0479 -0.4741  0.3719
10556TIP3    H253084   3.611   5.104   5.483 -1.7015  0.6545  0.1382
10557TIP3   OH253085   4.118   2.688   3.180 -0.4275  0.3570 -0.5044
10557TIP3    H153086   4.153   2.603   3.208  0.9618  0.7935 -0.9119
10557TIP3    H253087   4.166   2.753   3.231 -2.6259  0.8682  1.0179
10558TIP3   OH253088   3.284   0.144  13.085 -0.4659 -0.1444  0.1069
10558TIP3    H153089   3.270   0.163  13.178  2.2249  1.3463  0.2807
10558TIP3    H253090   3.225   0.071  13.066 -1.6016  0.0033  2.7949
10559TIP3   OH253091   5.647   4.441   3.096  0.4546 -0.1436  0.1978
10559TIP3    H153092   5.636   4.532   3.068  1.1243 -0.5786 -1.5744
10559TIP3    H253093   5.739   4.421   3.076 -0.1831 -1.7778 -1.2377
10560TIP3   OH253094   2.105   5.329  10.591 -1.0262 -0.3320  0.4289
10560TIP3    H153095   2.079   5.372  10.510  1.3958  2.2472  0.9369
10560TIP3    H253096   2.104   5.399  10.657 -0.1560 -1.7591  2.0160
10561TIP3   OH253097   3.085   4.421  11.836  0.5359  0.1448  0.5466
10561TIP3    H153098   3.019   4.455  11.775  0.5859 -0.9676 -0.1438
10561TIP3    H253099   3.115   4.498  11.885 -0.1407  0.9053 -0.2230
10562TIP3   OH253100   3.944   5.162  15.079  0.1213 -0.9180 -0.1002
10562TIP3    H153101   3.936   5.072  15.048 -0.4038 -1.9354  2.8483
10562TIP3    H253102   3.925   5.157  15.173  1.7593  1.9970  0.4448
10563TIP3   OH253103   1.008   5.432  11.113 -0.0054 -0.1108 -0.9122
10563TIP3    H153104   1.032   5.488  11.039 -0.2050  0.2123 -0.7304
10563TIP3    H253105   0.936   5.378  11.079 -0.4377  0.3916 -0.7944
10564TIP3   OH253106   4.565   6.678  13.575  0.0262 -0.1999 -0.1233
10564TIP3    H153107   4.570   6.742  13.646  2.1137  0.8621 -1.1563
10564TIP3    H253108   4.520   6.723  13.504 -0.5283 -0.6696 -0.0752
10565TIP3   OH253109   6.205   2.035  14.303  0.2327 -0.3781  0.0400
10565TIP3    H153110   6.258   2.083  14.240  0.2883  0.5943  0.8114
10565TIP3    H253111   6.153   2.103  14.346 -1.0138 -1.2217 -0.1146
10566TIP3   OH253112   3.214   5.496  14.881 -0.3187  0.6712  0.2228
10566TIP3    H153113   3.167   5.564  14.833 -0.9437  0.5529  0.6655
10566TIP3    H253114   3.201   5.517  14.973 -0.7950 -0.2313  0.3691
10567TIP3   OH253115   5.322   0.604  13.551 -0.0218  0.1657 -0.3125
10567TIP3    H153116   5.344   0.577  13.461 -1.0607 -0.0678 -0.5012
10567TIP3    H253117   5.227   0.617  13.549  0.0224  0.6078  0.6392
10568TIP3   OH253118   2.102   0.756   3.898  0.0881  0.0078  0.0159
10568TIP3    H153119   2.182   0.768   3.949 -1.0596 -1.9895  2.3612
10568TIP3    H253120   2.133   0.726   3.812  1.9082  0.7459  0.3761
10569TIP3   OH253121   0.732   2.406   5.660 -0.1852  0.5014  0.8230
10569TIP3    H153122   0.706   2.451   5.579 -0.6372  0.3606  0.8856
10569TIP3    H253123   0.705   2.466   5.730 -3.6123 -1.1858  1.0512
10570TIP3   OH253124   5.387   4.293  11.352  0.0838 -0.1690  0.5955
10570TIP3    H153125   5.376   4.373  11.403  1.5509  0.4639 -0.0603
10570TIP3    H253126   5.432   4.233  11.410  0.5229  0.0790  0.5132
10571TIP3   OH253127   6.555   0.354  12.348  0.0332 -0.5381  0.2045
10571TIP3    H153128   6.469   0.332  12.386 -0.4700  0.6707 -0.2138
10571TIP3    H253129   6.601   0.271  12.343 -2.5478 -1.8415 -3.1558
10572TIP3   OH253130   4.025   2.233  16.763 -0.6024  0.0891 -0.8705
10572TIP3    H153131   4.064   2.171  16.702  0.2265 -0.4082  0.1473
10572TIP3    H253132   4.084   2.232  16.839 -1.4271  0.9509 -0.2158
10573TIP3   OH253133   1.545   5.738  16.245  0.5366  0.2192  0.0971
10573TIP3    H153134   1.605   5.790  16.298  1.6119 -0.6643 -0.2505
10573TIP3    H253135   1.523   5.663  16.299  0.9944 -0.2657 -0.3811
10574TIP3   OH253136   3.355   4.860  12.322 -0.1582  0.3315  0.1497
10574TIP3    H153137   3.432   4.808  12.303 -0.3684  0.3831 -0.8392
10574TIP3    H253138   3.283   4.815  12.277 -0.8004  0.0142  1.4456
10575TIP3   OH253139   5.672   1.589  17.204 -0.0816  0.7946 -0.2462
10575TIP3    H153140   5.684   1.683  17.222  0.9464  1.0904 -2.3254
10575TIP3    H253141   5.750   1.547  17.240 -0.5663  0.7018  0.7337
10576TIP3   OH253142   3.362   2.924   2.009 -0.2728 -0.2151 -0.1310
10576TIP3    H153143   3.403   2.876   1.937 -2.1671 -1.7969 -0.2091
10576TIP3    H253144   3.381   2.873   2.087 -1.4937 -0.5967 -0.0741
10577TIP3   OH253145   5.786   0.456  17.164 -0.1051  0.4444  1.0247
10577TIP3    H153146   5.875   0.484  17.145 -0.0706 -1.1425 -1.3438
10577TIP3    H253147   5.732   0.497  17.096 -0.9110 -0.1341  1.3006
10578TIP3   OH253148   1.856   6.089  12.249  0.2424 -0.5234  0.3051
10578TIP3    H153149   1.805   6.069  12.171 -1.2358  0.7576  0.9370
10578TIP3    H253150   1.849   6.183  12.259  0.8750 -0.6156  1.6760
10579TIP3   OH253151   3.695   1.848  15.132 -0.5685 -0.5935 -0.2471
10579TIP3    H153152   3.771   1.887  15.175 -1.7233  0.2399  1.0441
10579TIP3    H253153   3.669   1.913  15.066 -0.9193 -0.3394  0.1456
10580TIP3   OH253154   5.507   1.964  16.737 -0.7051  0.3052  0.4129
10580TIP3    H153155   5.473   2.035  16.792  0.2921  0.9639  0.1696
10580TIP3    H253156   5.430   1.909  16.720 -1.3569  0.9875  1.1018
10581TIP3   OH253157   0.002   1.487   3.489  0.0415  0.5831  0.3444
10581TIP3    H153158   0.077   1.456   3.438 -0.1287 -0.9448  1.0112
10581TIP3    H253159   0.038   1.502   3.577 -0.1619  1.0812  0.3460
10582TIP3   OH253160   6.702   5.978   0.153 -0.0440  0.1708  0.4530
10582TIP3    H153161   6.703   5.956   0.060 -1.6622  0.6621  0.3026
10582TIP3    H253162   6.616   5.949   0.183  0.6037 -0.3119  1.8909
10583TIP3   OH253163   4.274   6.146  17.120 -0.5360 -0.4360  0.0790
10583TIP3    H153164   4.242   6.225  17.163 -0.5329 -0.9107  0.9651
10583TIP3    H253165   4.195   6.092  17.108 -1.0538  0.9773 -3.3083
10584TIP3   OH253166   0.237   2.047   2.656  0.5139  0.1492 -0.2440
10584TIP3    H153167   0.290   1.974   2.688 -1.2363 -1.1828 -0.2962
10584TIP3    H253168   0.156   2.041   2.706  0.4894  2.2907  0.0024
10585TIP3   OH253169   1.042   3.174  11.115  0.1362 -0.4690  0.2451
10585TIP3    H153170   1.074   3.250  11.164  0.0671 -0.9760  1.0992
10585TIP3    H253171   1.039   3.203  11.024  0.7104  0.3472  0.4821
10586TIP3   OH253172   4.482   3.689   3.396 -0.4433 -0.0690 -0.4550
10586TIP3    H153173   4.394   3.695   3.432 -0.0780 -2.3570  0.9113
10586TIP3    H253174   4.521   3.614   3.441  1.4896 -0.3572 -2.5235
10587TIP3   OH253175   0.227   1.820  15.093 -0.2314  0.2647  0.2189
10587TIP3    H153176   0.216   1.913  15.075 -1.9286  0.1681  0.6642
10587TIP3    H253177   0.210   1.777  15.009 -1.1757  0.2477  0.4199
10588TIP3   OH253178   6.416   2.695   3.290 -0.0498 -0.2189 -0.0038
10588TIP3    H153179   6.460   2.612   3.270  0.7097 -0.3050  1.8742
10588TIP3    H253180   6.444   2.755   3.221 -0.8835 -1.6033 -1.5930
10589TIP3   OH253181   6.144   0.932  12.034  0.0401 -0.0492 -0.0292
10589TIP3    H153182   6.107   1.002  12.089  1.1053 -0.5830  1.4201
10589TIP3    H253183   6.227   0.968  12.003 -0.1316 -0.1001 -0.5520
10590TIP3   OH253184   2.084   0.191   5.966  0.1222  0.3877  0.0600
10590TIP3    H153185   2.144   0.258   5.935  2.9560 -2.2897 -0.4779
10590TIP3    H253186   2.112   0.173   6.056 -0.7011  0.0268  0.2523
10591TIP3   OH253187   3.860   6.010  16.174 -0.2328 -0.1507  0.3168
10591TIP3    H153188   3.797   6.051  16.115  0.1340  0.4239  0.3208
10591TIP3    H253189   3.867   6.070  16.248 -0.0911 -0.4802  0.5762
10592TIP3   OH253190   4.528   0.410   4.684  0.2113 -0.0281 -0.1618
10592TIP3    H153191   4.510   0.441   4.596  0.0440 -0.8999 -0.4368
10592TIP3    H253192   4.514   0.316   4.680  0.5010 -0.1153  0.7198
10593TIP3   OH253193   4.031   4.430  15.917 -0.3824  0.5112  0.2998
10593TIP3    H153194   4.111   4.459  15.962  0.6085 -0.5297 -0.7727
10593TIP3    H253195   3.999   4.356  15.969  0.8936 -0.8424 -0.7999
10594TIP3   OH253196   2.166   3.152  10.913  0.0089  0.0889  0.6079
10594TIP3    H153197   2.080   3.134  10.873  0.8046 -0.5060 -0.8694
10594TIP3    H253198   2.227   3.097  10.863  1.3110  0.8270  1.3826
10595TIP3   OH253199   1.816   2.866   5.822  0.6016  0.4505 -0.0076
10595TIP3    H153200   1.895   2.853   5.769  0.6942  0.5276  0.1121
10595TIP3    H253201   1.750   2.811   5.780  0.8355  0.0497  0.1527
10596TIP3   OH253202   5.036   4.522  16.108  0.3072 -0.2561  0.0184
10596TIP3    H153203   5.066   4.453  16.049  2.7551  0.6393  0.1949
10596TIP3    H253204   4.944   4.535  16.084  0.3601 -2.1852 -1.3482
10597TIP3   OH253205   0.914   2.527   2.089  0.3031  0.1117  0.7607
10597TIP3    H153206   0.977   2.519   2.161  2.1253  0.1018 -0.8097
10597TIP3    H253207   0.964   2.566   2.017 -0.9765 -1.6708 -1.1461
10598TIP3   OH253208   6.526   4.165  14.076 -0.4129 -0.3656 -0.3310
10598TIP3    H153209   6.453   4.173  14.015 -0.8563 -0.3374  0.1988
10598TIP3    H253210   6.518   4.242  14.133 -0.2667 -0.6233  0.0404
10599TIP3   OH253211   2.826   4.002  13.209  0.3452  0.0508  0.4268
10599TIP3    H153212   2.777   4.064  13.155  0.9283 -0.0123 -0.1758
10599TIP3    H253213   2.758   3.956  13.258 -0.4025 -1.5236 -1.9786
10600TIP3   OH253214   2.943   0.425   0.894 -0.7827  0.4292  0.2379
10600TIP3    H153215   2.914   0.344   0.853  0.4126  0.1171  0.0108
10600TIP3    H253216   2.942   0.406   0.988  0.3449 -0.1259  0.1382
10601TIP3   OH253217   1.800   3.533  15.864  0.5996 -0.0168  0.0754
10601TIP3    H153218   1.799   3.479  15.785 -1.9504  1.3995 -0.9145
10601TIP3    H253219   1.852   3.610  15.840 -0.9601  0.8581 -0.5689
10602TIP3   OH253220   1.970   4.389   2.281 -0.1331 -0.2287  0.0806
10602TIP3    H153221   1.886   4.364   2.320 -0.1052 -0.6527 -0.1318
10602TIP3    H253222   1.947   4.447   2.209 -0.2659 -0.6553 -0.2219
10603TIP3   OH253223   5.791   4.823   2.793  0.0108 -0.5146 -0.3293
10603TIP3    H153224   5.779   4.797   2.702  1.6314  0.7348 -0.9154
10603TIP3    H253225   5.802   4.918   2.790 -1.2149 -0.3049  1.3145
10604TIP3   OH253226   6.554   3.894   0.843  0.4961 -0.2409 -0.2463
10604TIP3    H153227   6.505   3.818   0.810 -1.9514  1.1991  0.0128
10604TIP3    H253228   6.548   3.959   0.773 -0.1239  0.8811  0.8543
10605TIP3   OH253229   2.413   4.444   1.471 -0.6170  0.6189  0.5372
10605TIP3    H153230   2.346   4.512   1.482 -1.2319  0.1762 -0.3689
10605TIP3    H253231   2.408   4.392   1.551 -1.8920  0.1332  0.1545
10606TIP3   OH253232   0.157   3.312  15.576 -0.1353  0.1774  0.0544
10606TIP3    H153233   0.176   3.405  15.593  0.5122  0.4024 -1.7625
10606TIP3    H253234   0.193   3.266  15.651 -1.4981  1.4946  1.5412
10607TIP3   OH253235   0.461   5.530  16.463 -0.3691  0.2913  0.4714
10607TIP3    H153236   0.434   5.450  16.509 -0.2999 -0.2188 -0.3705
10607TIP3    H253237   0.523   5.500  16.397  1.7108  1.3561  1.8842
10608TIP3   OH253238   0.132   5.227  12.784  0.2033  0.0285 -0.8047
10608TIP3    H153239   0.181   5.244  12.865 -1.3692 -1.9187  0.6104
10608TIP3    H253240   0.066   5.296  12.780 -2.1914 -2.0398  1.6452
10609TIP3   OH253241   3.237   1.778  16.596 -0.2280 -0.4925  0.2706
10609TIP3    H153242   3.315   1.822  16.562 -0.7928  0.2400 -0.0990
10609TIP3    H253243   3.258   1.685  16.592  0.5449 -0.3063 -0.0338
10610TIP3   OH253244   2.886   4.313   0.246  0.4340 -0.5656 -0.6989
10610TIP3    H153245   2.803   4.309   0.199  1.5884  0.6532 -2.9696
10610TIP3    H253246   2.904   4.406   0.257  0.4535 -0.8185  1.7764
10611TIP3   OH253247   2.464   0.530  16.865 -0.5152  0.2169  0.4648
10611TIP3    H153248   2.542   0.571  16.828  1.3332 -2.8794  0.6884
10611TIP3    H253249   2.464   0.556  16.957 -0.1146  0.7863  0.3080
10612TIP3   OH253250   3.945   3.246  13.770 -0.2973 -0.3557  0.0599
10612TIP3    H153251   3.902   3.282  13.693 -0.7125  0.0448  0.4775
10612TIP3    H253252   4.037   3.240  13.745 -0.4512 -0.3740 -0.5175
10613TIP3   OH253253   3.839   0.206  13.953  0.5675 -0.6316  0.1573
10613TIP3    H153254   3.777   0.138  13.925  0.1215 -0.3569  0.4644
10613TIP3    H253255   3.925   0.173  13.926 -0.0176  0.6173 -3.5762
10614TIP3   OH253256   2.736   2.023   0.429  0.1908 -0.3969 -0.5452
10614TIP3    H153257   2.742   2.111   0.391 -0.3757  0.4086  1.1713
10614TIP3    H253258   2.662   1.982   0.384  0.7976 -0.1897 -1.7345
10615TIP3   OH253259   0.906   1.321  13.398 -0.1063  0.4039  0.4266
10615TIP3    H153260   0.865   1.235  13.389  0.2208  0.3682 -0.8538
10615TIP3    H253261   0.994   1.302  13.431 -0.5380  0.3563  1.5556
10616TIP3   OH253262   2.873   0.764   1.557  0.3219  0.0922 -0.0953
10616TIP3    H153263   2.842   0.676   1.579  0.1829 -0.0455 -0.8221
10616TIP3    H253264   2.875   0.765   1.461  1.5967  0.4470 -0.0681
10617TIP3   OH253265   3.684   5.466   4.061  0.5728  0.3200 -0.1855
10617TIP3    H153266   3.774   5.438   4.074  0.1521  0.1707  2.8154
10617TIP3    H253267   3.676   5.547   4.111 -1.3030 -0.4034  0.7500
10618TIP3   OH253268   2.022   4.600   2.769  0.1084 -0.5378  0.0716
10618TIP3    H153269   1.991   4.509   2.761  0.8556 -0.7953  0.0965
10618TIP3    H253270   2.039   4.610   2.863 -0.1264 -0.3237  0.0895
10619TIP3   OH253271   5.141   0.983  14.525  0.4514  0.7504  0.1482
10619TIP3    H153272   5.180   1.041  14.590 -0.3211  0.4273  0.8969
10619TIP3    H253273   5.061   0.951  14.565  1.1861 -1.3463  0.0187
10620TIP3   OH253274   4.143   1.454   6.163 -0.2109  0.0031  0.5132
10620TIP3    H153275   4.094   1.377   6.192 -1.3182  0.1864 -0.8198
10620TIP3    H253276   4.113   1.525   6.220  0.8061 -0.5213  1.7387
10621TIP3   OH253277   1.182   5.942  12.809 -0.0669  0.1934  0.4689
10621TIP3    H153278   1.221   6.008  12.865  0.8571  0.9157 -1.0158
10621TIP3    H253279   1.117   5.989  12.757  2.2563  0.4468 -2.3055
10622TIP3   OH253280   4.759   1.775   4.828 -0.0912 -0.3046  0.1571
10622TIP3    H153281   4.822   1.703   4.831  0.0672 -0.1803 -0.2904
10622TIP3    H253282   4.811   1.853   4.847  0.0800 -0.0750 -1.2202
10623TIP3   OH253283   6.741   5.806  14.888  0.3601  0.0537  0.7813
10623TIP3    H153284   6.702   5.879  14.840  0.7542  0.2112  0.6993
10623TIP3    H253285   6.784   5.754  14.821  0.3008 -0.1147  0.8741
10624TIP3   OH253286   1.430   3.737  12.169 -0.2468 -0.0539 -0.2859
10624TIP3    H153287   1.451   3.648  12.199  1.9798  0.2801 -0.8032
10624TIP3    H253288   1.429   3.789  12.250  0.1196 -0.2214 -0.1737
10625TIP3   OH253289   3.598   0.036  15.590 -0.2497 -0.1663  0.2880
10625TIP3    H153290   3.586   0.027  15.685 -1.4664 -0.9570  0.0699
10625TIP3    H253291   3.610  -0.053  15.559  0.0161  0.0821 -0.3277
10626TIP3   OH253292   4.128   3.365   4.238 -0.4667  0.0049 -0.5189
10626TIP3    H153293   4.100   3.433   4.299 -1.0725 -2.2038  1.7865
10626TIP3    H253294   4.054   3.353   4.179 -0.6716  0.8055 -0.4205
10627TIP3   OH253295   3.775   2.371   1.301 -0.1025  0.3650 -0.1072
10627TIP3    H153296   3.824   2.289   1.294  0.9818  0.8624  1.3394
10627TIP3    H253297   3.685   2.345   1.319  0.4024 -0.4927  1.2062
10628TIP3   OH253298   6.079   2.073  12.468  0.4269 -0.5194  0.1288
10628TIP3    H153299   5.989   2.085  12.499  0.2883 -0.3200 -0.3497
10628TIP3    H253300   6.085   2.126  12.389  1.2079  0.1100  0.6060
10629TIP3   OH253301   2.628   6.772  12.566  0.1421 -0.6673 -0.0954
10629TIP3    H153302   2.645   6.838  12.632 -1.8905 -0.6451  0.4302
10629TIP3    H253303   2.569   6.815  12.503  0.0863 -1.4583 -0.5954
10630TIP3   OH253304   6.748   2.324  11.923 -0.2387  0.3714  0.3643
10630TIP3    H153305   6.814   2.285  11.980  1.9875  0.2738 -2.2162
10630TIP3    H253306   6.701   2.250  11.884 -0.7356  0.4172  0.8658
10631TIP3   OH253307   1.372   0.317   2.178 -0.2339 -0.5861  0.2419
10631TIP3    H153308   1.401   0.300   2.267 -0.0101  0.0976  0.3052
10631TIP3    H253309   1.285   0.276   2.172  0.0846 -1.3038  0.5277
10632TIP3   OH253310   5.638   2.621   2.577  0.0160 -0.4052 -0.0215
10632TIP3    H153311   5.689   2.628   2.658  0.2209 -0.0556 -0.1810
10632TIP3    H253312   5.591   2.704   2.571  0.2502 -0.3016 -0.4302
10633TIP3   OH253313   3.976   2.122   0.917  0.1561  0.3500 -0.0846
10633TIP3    H153314   3.993   2.182   0.845 -1.7432 -0.7919 -1.5287
10633TIP3    H253315   3.899   2.073   0.890 -2.1091  1.5155  3.7367
10634TIP3   OH253316   5.195   3.469   0.757  0.3110 -0.4285 -0.2680
10634TIP3    H153317   5.254   3.394   0.760  0.5934 -0.1769  0.7994
10634TIP3    H253318   5.188   3.491   0.664 -0.2705 -2.1546 -0.6363
10635TIP3   OH253319   0.833   5.954   3.109 -0.4442  0.3855  0.5702
10635TIP3    H153320   0.853   6.038   3.070 -0.2067 -0.3892 -0.9926
10635TIP3    H253321   0.842   5.891   3.038 -0.2783 -1.0086  1.7995
10636TIP3   OH253322   1.255   1.718   1.770  0.1099  1.0645  1.0568
10636TIP3    H153323   1.267   1.812   1.765 -2.6076  1.3969  0.1117
10636TIP3    H253324   1.194   1.705   1.843  0.1411  0.0840  0.9210
10637TIP3   OH253325   6.728   2.050  17.041 -0.0970 -0.0087 -0.2702
10637TIP3    H153326   6.744   2.142  17.021 -0.2895  0.6280  2.3390
10637TIP3    H253327   6.814   2.009  17.034  0.2184  0.6328 -0.2036
10638TIP3   OH253328   5.175   3.849  11.581  0.0464 -0.7782  0.3307
10638TIP3    H153329   5.081   3.832  11.584  0.3706 -3.0759 -0.7214
10638TIP3    H253330   5.200   3.866  11.672 -1.3325 -0.4241  0.6532
10639TIP3   OH253331   2.528   5.773   3.248  0.1329 -0.1896  0.4404
10639TIP3    H153332   2.605   5.729   3.283  1.5700  0.7545 -1.4132
10639TIP3    H253333   2.559   5.862   3.228 -2.0001  0.8639  1.6467
10640TIP3   OH253334   4.830   4.980  13.013  0.7367  0.0203  0.0705
10640TIP3    H153335   4.764   5.016  12.954  0.4996  0.7864  0.8065
10640TIP3    H253336   4.823   4.885  13.001  1.2050  0.1879 -1.6970
10641TIP3   OH253337   1.103   3.283   3.736 -0.3205 -0.0044  0.2230
10641TIP3    H153338   1.031   3.338   3.767  0.1640  0.7108  0.0793
10641TIP3    H253339   1.139   3.331   3.661  0.8276  0.0404  0.7987
10642TIP3   OH253340   2.760   6.137   4.319 -0.3955 -0.0405 -0.0208
10642TIP3    H153341   2.698   6.166   4.251  0.8648  1.4711 -0.5550
10642TIP3    H253342   2.733   6.184   4.398 -1.6120 -1.4887  0.4366
10643TIP3   OH253343   4.191   4.751   0.945 -0.3607 -0.0792  0.0340
10643TIP3    H153344   4.255   4.680   0.935  1.4705  1.4500  0.6677
10643TIP3    H253345   4.240   4.831   0.924 -2.0480  1.1321  0.6288
10644TIP3   OH253346   5.802   0.895   3.408 -0.5247  0.1335  0.2529
10644TIP3    H153347   5.751   0.957   3.459  1.2815 -0.1176  2.4216
10644TIP3    H253348   5.740   0.826   3.385 -1.6278  0.8288  1.1319
10645TIP3   OH253349   1.522   1.012   2.066 -0.2059  0.0005 -0.4944
10645TIP3    H153350   1.442   0.971   2.100 -1.3780  1.1751 -1.7699
10645TIP3    H253351   1.555   1.063   2.139  0.8200 -2.5298  0.8568
10646TIP3   OH253352   4.813   3.593  13.396 -0.8903 -0.2321 -0.3086
10646TIP3    H153353   4.888   3.607  13.338 -1.3406 -1.6304 -1.2597
10646TIP3    H253354   4.745   3.653  13.362 -0.1230  1.2829  0.7629
10647TIP3   OH253355   0.983   0.902  11.440  0.1217 -0.3992 -0.3268
10647TIP3    H153356   0.984   0.912  11.345  3.2561  0.2545 -0.3027
10647TIP3    H253357   0.993   0.991  11.473  1.2002 -0.8255  0.5359
10648TIP3   OH253358   6.130   3.989  12.418  0.3183 -0.2569  0.1966
10648TIP3    H153359   6.069   3.916  12.428  0.3386 -0.2093  0.6685
10648TIP3    H253360   6.178   3.970  12.338 -1.3031  0.3992 -0.9645
10649TIP3   OH253361   0.319   3.949  15.627  0.0896 -0.3944 -0.1186
10649TIP3    H153362   0.238   3.899  15.618  0.6908 -1.2630 -0.8759
10649TIP3    H253363   0.294   4.039  15.609 -0.3570 -0.9335 -2.3502
10650TIP3   OH253364   2.258   2.813   0.423 -0.1925 -0.2549 -0.1806
10650TIP3    H153365   2.184   2.754   0.436  0.7748 -1.6900 -1.0415
10650TIP3    H253366   2.218   2.900   0.416 -1.9025 -1.1113 -1.6116
10651TIP3   OH253367   0.591   0.730   2.327 -0.1046  0.1791 -0.1883
10651TIP3    H153368   0.642   0.677   2.388 -0.3946  1.3453  1.1103
10651TIP3    H253369   0.624   0.707   2.241  0.7362 -1.0628  0.4574
10652TIP3   OH253370   5.716   0.135  15.693 -0.0748 -0.4199  0.1491
10652TIP3    H153371   5.633   0.088  15.681  0.6830 -1.8806  0.5447
10652TIP3    H253372   5.730   0.136  15.788  0.1040  0.2844  0.1192
10653TIP3   OH253373   6.147   3.071  14.578 -0.3691  0.3577  0.0487
10653TIP3    H153374   6.064   3.026  14.593 -0.5202  1.0125  1.2128
10653TIP3    H253375   6.130   3.162  14.602  0.9058  0.3316  1.1192
10654TIP3   OH253376   0.304   1.979  12.373  0.1042 -0.2323 -0.6051
10654TIP3    H153377   0.269   1.968  12.285 -3.9662 -1.0572  1.0266
10654TIP3    H253378   0.310   1.890  12.408 -1.3001  0.2735  1.0106
10655TIP3   OH253379   5.659   1.295   4.060 -0.4665  0.1790  0.3969
10655TIP3    H153380   5.658   1.339   3.975 -0.7454  0.4653  0.5458
10655TIP3    H253381   5.726   1.341   4.111  0.2513 -0.4970  0.0723
10656TIP3   OH253382   5.643   1.920   5.411 -0.2100 -0.8679  0.7317
10656TIP3    H153383   5.589   1.998   5.421  1.4036  0.4193 -0.2698
10656TIP3    H253384   5.679   1.926   5.323  2.5932 -0.9600  1.7936
10657TIP3   OH253385   0.555   0.113  12.895  0.4735  0.0095  0.0868
10657TIP3    H153386   0.469   0.137  12.928  0.4314  0.2512 -0.1969
10657TIP3    H253387   0.616   0.138  12.965  0.4322  0.9642 -0.2116
10658TIP3   OH253388   3.012   4.816  16.104  0.5688  0.8519  0.4062
10658TIP3    H153389   2.965   4.764  16.038  1.1822 -1.6063  1.8324
10658TIP3    H253390   3.086   4.853  16.056  1.4516 -1.5390 -0.1738
10659TIP3   OH253391   5.376   3.983   4.573  0.7786 -0.0417 -0.1070
10659TIP3    H153392   5.453   3.961   4.626  1.7723  0.5022 -1.3052
10659TIP3    H253393   5.395   4.070   4.538 -1.1850  0.8781  1.0402
10660TIP3   OH253394   3.673   2.140  16.570  0.2853 -0.5987  0.6807
10660TIP3    H153395   3.598   2.136  16.511  0.5605 -2.4900  0.4210
10660TIP3    H253396   3.641   2.187  16.646 -0.1129  1.7687 -0.9112
10661TIP3   OH253397   0.691   6.348   2.792 -0.4784  0.6551  0.3074
10661TIP3    H153398   0.708   6.441   2.805 -0.4845  0.6192  0.5798
10661TIP3    H253399   0.626   6.345   2.722 -0.4144  0.8531  0.2410
10662TIP3   OH253400   0.855   2.273  15.820 -0.2990 -0.5968 -0.3822
10662TIP3    H153401   0.823   2.358  15.852 -0.6127 -0.2718 -1.5489
10662TIP3    H253402   0.886   2.290  15.731  0.2172 -1.5775 -0.3962
10663TIP3   OH253403   2.518   5.125  16.715 -0.0877  0.6147 -0.6837
10663TIP3    H153404   2.521   5.209  16.670  2.4587 -0.5951 -2.8900
10663TIP3    H253405   2.600   5.121  16.764 -0.7026 -0.1053  0.3000
10664TIP3   OH253406   5.548   6.309  16.905  0.1260  0.2547 -0.0482
10664TIP3    H153407   5.530   6.296  16.998 -2.3279 -0.7675 -0.6273
10664TIP3    H253408   5.502   6.391  16.883 -0.4795 -0.2371 -0.6454
10665TIP3   OH253409   6.175   0.606  13.103  0.4753 -0.1288  0.1746
10665TIP3    H153410   6.086   0.576  13.085  0.5649 -0.2207 -0.1209
10665TIP3    H253411   6.215   0.616  13.016  0.6332  0.2748  0.2896
10666TIP3   OH253412   0.855   3.261  11.467  0.0571 -0.2953 -0.3358
10666TIP3    H153413   0.786   3.291  11.526 -0.8072  1.4530 -2.1676
10666TIP3    H253414   0.808   3.227  11.391  1.2073  1.3945 -1.8297
10667TIP3   OH253415   4.927   2.963  12.106  0.1320  0.1270  0.3942
10667TIP3    H153416   4.833   2.980  12.109  0.6309  3.1670  0.0085
10667TIP3    H253417   4.954   2.991  12.018  0.9255 -3.5793 -0.6505
10668TIP3   OH253418   2.743   4.289  12.069  0.5236 -0.3296  0.2556
10668TIP3    H153419   2.807   4.260  12.135  0.0341 -0.4505  0.6817
10668TIP3    H253420   2.755   4.384  12.064 -0.1161 -0.1890  1.2444
10669TIP3   OH253421   0.782   0.235   2.274  0.0321 -0.1037  0.2229
10669TIP3    H153422   0.812   0.269   2.358  0.4845 -0.2449  0.1228
10669TIP3    H253423   0.772   0.141   2.289  1.6574 -0.3829 -0.3094
10670TIP3   OH253424   5.759   2.859   1.031 -0.0049 -0.2480  0.3477
10670TIP3    H153425   5.750   2.766   1.052 -1.0817 -0.6179 -1.5878
10670TIP3    H253426   5.691   2.876   0.965  1.3115  1.4727 -0.6316
10671TIP3   OH253427   1.356   3.472  10.868  0.1835 -0.1803 -0.8300
10671TIP3    H153428   1.307   3.481  10.786  0.7621  0.3665 -1.1093
10671TIP3    H253429   1.447   3.462  10.841  0.0609 -2.9324 -0.3969
10672TIP3   OH253430   2.064   3.800   4.523 -0.0788 -0.7240  0.2578
10672TIP3    H153431   2.128   3.729   4.519  0.3655 -0.3154  0.1092
10672TIP3    H253432   2.116   3.880   4.510 -0.7872 -0.4680 -1.0496
10673TIP3   OH253433   3.068   2.939  14.635  0.2068 -0.4384 -0.3078
10673TIP3    H153434   3.124   2.994  14.581 -0.0660 -0.0479 -0.1904
10673TIP3    H253435   3.121   2.861  14.652  1.3611  0.6392  1.1812
10674TIP3   OH253436   4.653   4.422   2.287  0.3151 -0.3235  0.4698
10674TIP3    H153437   4.630   4.330   2.273  0.2408 -0.1767 -0.4299
10674TIP3    H253438   4.569   4.468   2.287  0.1989 -0.4807  2.8452
10675TIP3   OH253439   4.351   3.333  13.161  0.3409  0.1583 -0.1265
10675TIP3    H153440   4.360   3.379  13.078 -0.8106  0.6044 -0.0195
10675TIP3    H253441   4.260   3.303  13.162  0.1250  0.8096  1.3011
10676TIP3   OH253442   5.039   6.298   2.602 -0.4642 -0.1983 -0.1468
10676TIP3    H153443   5.104   6.354   2.644  1.1246 -0.1193 -2.5950
10676TIP3    H253444   5.011   6.238   2.670  0.6306  1.1280  1.5086
10677TIP3   OH253445   4.808   4.717   3.500  0.4355  0.0408  0.2497
10677TIP3    H153446   4.719   4.751   3.490  0.1142 -0.6583  0.7150
10677TIP3    H253447   4.820   4.658   3.425  1.1126  1.4079 -0.7469
10678TIP3   OH253448   2.765   3.086  10.604  0.0727  0.1481  0.0244
10678TIP3    H153449   2.704   3.159  10.595 -1.8732 -1.5198 -0.6545
10678TIP3    H253450   2.710   3.013  10.634  1.4975 -1.7211 -1.8250
10679TIP3   OH253451   5.060   4.848   5.499  0.2262  0.3071 -0.0999
10679TIP3    H153452   5.147   4.825   5.533  0.7382 -1.5879 -2.5720
10679TIP3    H253453   5.001   4.782   5.537  0.0407  0.9509  0.7331
10680TIP3   OH253454   2.727   0.488  11.203  0.3378 -0.6161 -0.3434
10680TIP3    H153455   2.756   0.451  11.119  2.1508 -1.3217  0.5598
10680TIP3    H253456   2.639   0.452  11.216 -0.3350  0.2339 -2.3706
10681TIP3   OH253457   6.181   5.436   5.772  0.6278 -0.1026 -0.1319
10681TIP3    H153458   6.221   5.421   5.858 -3.2480 -1.5015  1.5597
10681TIP3    H253459   6.189   5.353   5.727 -0.3762 -0.4043  0.2345
10682TIP3   OH253460   2.124   2.141   6.713 -0.0822 -0.3063  0.5494
10682TIP3    H153461   2.114   2.081   6.787 -0.0064 -1.0752 -0.0557
10682TIP3    H253462   2.207   2.185   6.729  0.5135 -1.3160  0.3387
10683TIP3   OH253463   5.405   5.024   5.331  0.3323  0.0831 -0.5122
10683TIP3    H153464   5.416   5.059   5.420  0.7624  0.5532 -0.7454
10683TIP3    H253465   5.325   5.067   5.299  0.3810  0.1964 -0.4837
10684TIP3   OH253466   5.804   0.618  16.788  0.1118  0.3034 -0.5816
10684TIP3    H153467   5.775   0.550  16.728 -0.0359  1.8608 -2.3123
10684TIP3    H253468   5.730   0.630  16.848 -0.0894 -0.6122 -0.6392
10685TIP3   OH253469   0.919   1.217  11.251  0.7951 -0.5041 -0.4241
10685TIP3    H153470   0.903   1.125  11.231  1.4144 -1.1516  1.9162
10685TIP3    H253471   0.832   1.257  11.247  0.4658 -1.2536 -1.0740
10686TIP3   OH253472   5.230   2.633  13.201 -0.4037 -0.6632  0.3834
10686TIP3    H153473   5.218   2.661  13.110 -1.0569  0.9316  0.9435
10686TIP3    H253474   5.148   2.590  13.225 -0.3244 -0.8605  0.3009
10687TIP3   OH253475   4.390   1.426  12.780  0.0548  0.2977 -0.3392
10687TIP3    H153476   4.296   1.424  12.763  0.3836  0.2341 -2.3323
10687TIP3    H253477   4.400   1.388  12.867 -1.9198  2.1232  0.7066
10688TIP3   OH253478   1.449   5.856   0.310  0.2029 -0.2925  0.6689
10688TIP3    H153479   1.542   5.842   0.328  0.5569  1.9384  0.7594
10688TIP3    H253480   1.448   5.921   0.239 -1.2663 -2.4854 -1.4167
10689TIP3   OH253481   5.246   2.816   4.999  0.2279  0.5653  0.0698
10689TIP3    H153482   5.258   2.905   5.031  0.7957  0.6054 -0.2508
10689TIP3    H253483   5.322   2.767   5.030 -0.0414  0.2090  0.1793
10690TIP3   OH253484   2.145   1.062  16.765 -0.4372 -0.2658 -0.0569
10690TIP3    H153485   2.160   0.991  16.702  1.2125 -0.1018  0.1362
10690TIP3    H253486   2.092   1.126  16.716 -0.9651 -1.1029 -0.5920
10691TIP3   OH253487   2.030   1.626   5.518  0.4412 -0.0623 -0.0409
10691TIP3    H153488   1.990   1.609   5.433  2.1188 -1.4110 -0.5907
10691TIP3    H253489   2.025   1.721   5.529  1.4470  0.2658 -2.2597
10692TIP3   OH253490   2.404   4.746  11.357  0.6547 -0.0844  0.3444
10692TIP3    H153491   2.435   4.761  11.447 -0.6186 -1.6490  1.0777
10692TIP3    H253492   2.476   4.700  11.314  1.7138  1.6576  0.2092
10693TIP3   OH253493   6.256   1.099  13.710  0.0166  0.1717  0.5707
10693TIP3    H153494   6.295   1.186  13.702  0.5631 -0.1914 -1.0543
10693TIP3    H253495   6.319   1.041  13.666 -1.0146 -0.8266  0.3862
10694TIP3   OH253496   2.097   5.927   0.673 -0.1219 -0.3123  0.2288
10694TIP3    H153497   2.034   5.856   0.662 -1.1399  0.6294 -0.0480
10694TIP3    H253498   2.134   5.941   0.585 -0.7502  0.2639  0.0540
10695TIP3   OH253499   4.582   2.203   5.186  0.1138  0.1806 -0.1103
10695TIP3    H153500   4.651   2.267   5.203 -0.6162  0.6884  1.0403
10695TIP3    H253501   4.576   2.153   5.267 -0.0421 -0.6534 -0.6360
10696TIP3   OH253502   4.527   4.766   2.962 -0.6272 -0.4397 -0.3167
10696TIP3    H153503   4.580   4.687   2.969 -0.9217 -0.5414  1.0059
10696TIP3    H253504   4.584   4.836   2.993 -1.2507 -0.5497  1.1053
10697TIP3   OH253505   3.749   6.043   4.883  0.6730  0.5972  0.1778
10697TIP3    H153506   3.708   6.050   4.969  1.5722 -0.6579  0.7235
10697TIP3    H253507   3.843   6.039   4.902  0.9433  1.4915 -0.9398
10698TIP3   OH253508   1.720   3.196  13.014  0.1079 -0.5925 -0.7135
10698TIP3    H153509   1.760   3.235  12.937  0.3087  0.2785 -0.1789
10698TIP3    H253510   1.727   3.102  13.000  2.0859 -0.4608 -0.7636
10699TIP3   OH253511   2.124   1.583  12.893 -0.1060  0.1720 -0.2428
10699TIP3    H153512   2.048   1.591  12.835 -1.4554 -1.5584  1.2194
10699TIP3    H253513   2.129   1.667  12.938 -1.2464  0.2558 -0.2609
10700TIP3   OH253514   0.380   4.485  14.038 -0.0259 -0.0892 -0.4507
10700TIP3    H153515   0.358   4.579  14.039  1.8519  0.3733 -0.4827
10700TIP3    H253516   0.369   4.457  14.129 -2.0540 -0.2090 -0.7125
10701TIP3   OH253517   1.022   5.086   1.187 -0.0803  0.3524  0.5006
10701TIP3    H153518   1.045   5.017   1.250  1.4428  0.3790 -0.0203
10701TIP3    H253519   0.940   5.056   1.149  0.3837 -1.0177  0.5329
10702TIP3   OH253520   2.616   1.135   1.816 -0.4111  0.0178  0.1279
10702TIP3    H153521   2.632   1.077   1.741  1.2429 -0.6715  0.9864
10702TIP3    H253522   2.687   1.115   1.877  0.1394  2.8966  0.4788
10703TIP3   OH253523   6.314   0.341  13.171 -0.1163 -0.6973  0.7563
10703TIP3    H153524   6.230   0.303  13.148  0.1158 -0.3252 -0.7318
10703TIP3    H253525   6.294   0.431  13.195  0.1789  0.1433 -2.0904
10704TIP3   OH253526   0.889   6.316  16.529  0.0884  0.4105 -0.4093
10704TIP3    H153527   0.931   6.270  16.602 -0.1687  1.3063  0.3162
10704TIP3    H253528   0.799   6.331  16.559 -0.3829 -0.3818 -1.4385
10705TIP3   OH253529   2.748   3.105   2.089  0.1361  0.5215  0.0373
10705TIP3    H153530   2.759   3.121   2.182 -0.2144 -0.4134  0.2474
10705TIP3    H253531   2.835   3.079   2.058 -0.0856 -0.7557  0.4403
10706TIP3   OH253532   4.371   5.681   0.804 -0.3658 -0.4655 -0.0349
10706TIP3    H153533   4.323   5.637   0.733  0.0419  0.9215 -1.1967
10706TIP3    H253534   4.413   5.755   0.761 -2.3348  2.0193  2.2304
10707TIP3   OH253535   3.564   2.504   3.669 -0.1348 -0.3555  0.0115
10707TIP3    H153536   3.647   2.494   3.622 -0.5231 -0.3874 -0.6828
10707TIP3    H253537   3.517   2.572   3.621 -1.8978 -2.6412 -1.6414
10708TIP3   OH253538   0.211   0.260  16.855  0.3401 -0.1939  0.2595
10708TIP3    H153539   0.252   0.203  16.920  2.2811  0.3910 -0.4179
10708TIP3    H253540   0.176   0.333  16.906  0.0587 -0.7492  0.8617
10709TIP3   OH253541   5.176   3.014  10.922 -0.1700 -0.2371 -0.7698
10709TIP3    H153542   5.140   2.928  10.946 -2.2168  0.7084 -0.3876
10709TIP3    H253543   5.117   3.048  10.856  0.4063  1.0576 -0.6417
10710TIP3   OH253544   4.415   2.742  13.250  0.1768  0.1009  0.0488
10710TIP3    H153545   4.493   2.702  13.287  0.8980  0.4111 -1.1122
10710TIP3    H253546   4.426   2.735  13.155 -0.8716  0.7751 -0.1399
10711TIP3   OH253547   5.200   1.243   4.894 -0.3132  0.2902 -0.0742
10711TIP3    H153548   5.260   1.307   4.931  0.3691 -1.0697  1.2109
10711TIP3    H253549   5.248   1.205   4.820 -0.5036  0.8548 -0.4926
10712TIP3   OH253550   5.116   1.155  12.667 -0.6646  0.3247 -0.3710
10712TIP3    H153551   5.021   1.164  12.676 -0.8164 -0.8931 -0.6549
10712TIP3    H253552   5.133   1.170  12.574 -0.5633  0.7030 -0.2897
10713TIP3   OH253553   2.920   1.929  12.961 -0.0559 -0.1440  0.1448
10713TIP3    H153554   2.952   1.853  13.009 -0.1141 -0.5424 -0.4385
10713TIP3    H253555   2.988   1.995  12.973 -0.4792  0.0556  1.4941
10714TIP3   OH253556   3.365   5.599  16.972  0.1189  0.6241  0.2359
10714TIP3    H153557   3.351   5.687  16.938 -1.2762 -0.6243 -2.5024
10714TIP3    H253558   3.279   5.568  16.998  0.6793  0.2284  1.7268
10715TIP3   OH253559   1.868   6.339  14.415 -0.0512  1.1307 -0.1282
10715TIP3    H153560   1.847   6.275  14.347  0.2987  0.0486  0.7565
10715TIP3    H253561   1.832   6.421  14.383 -1.4706  0.2664 -0.7896
10716TIP3   OH253562   4.752   1.061  12.022 -0.4417 -0.0655  0.5545
10716TIP3    H153563   4.668   1.061  12.068 -0.2220  0.6432  0.9603
10716TIP3    H253564   4.760   0.972  11.988 -2.5868  0.5917 -1.7670
10717TIP3   OH253565   5.277   0.889  15.062  0.3640 -0.1356 -0.3328
10717TIP3    H153566   5.296   0.931  15.145 -1.1043  1.8300 -0.9481
10717TIP3    H253567   5.268   0.796  15.083  0.7201  0.2483  1.5627
10718TIP3   OH253568   0.239   1.817   6.335 -0.2304  0.6743 -0.0048
10718TIP3    H153569   0.253   1.885   6.401 -1.8368  1.0114  0.0024
10718TIP3    H253570   0.317   1.821   6.280  1.8744 -0.6647  2.7573
10719TIP3   OH253571   5.950   3.173   0.532 -0.5439  0.2461  0.4435
10719TIP3    H153572   5.904   3.254   0.509 -1.3128 -1.0744 -2.9016
10719TIP3    H253573   5.900   3.136   0.604 -2.2503  0.9882 -0.3433
10720TIP3   OH253574   1.775   2.970   2.066 -0.4030 -0.1809 -0.5342
10720TIP3    H153575   1.695   2.954   2.116 -0.6680 -1.5746 -1.4018
10720TIP3    H253576   1.830   3.022   2.125 -0.5583 -2.1168  1.3415
10721TIP3   OH253577   0.588   1.327   2.021  0.5132 -0.4098  0.1810
10721TIP3    H153578   0.517   1.266   2.042 -0.9704  0.7049 -1.3563
10721TIP3    H253579   0.629   1.347   2.105 -0.0202 -2.2637  0.9012
10722TIP3   OH253580   3.293   5.305   1.955  0.6704 -0.2804  0.2360
10722TIP3    H153581   3.338   5.388   1.943 -1.0305  0.4497 -1.2699
10722TIP3    H253582   3.329   5.248   1.886  0.1272 -0.0559 -0.2339
10723TIP3   OH253583   1.993   3.097  12.420  0.2748  0.0295 -0.4584
10723TIP3    H153584   1.972   3.104  12.513  0.5568 -0.0679 -0.3880
10723TIP3    H253585   1.968   3.008  12.396 -0.3953  0.2567 -0.6276
10724TIP3   OH253586   3.783   4.980  11.930 -0.3406  0.4842 -0.2936
10724TIP3    H153587   3.760   4.957  11.840 -1.2019  0.6220 -0.1113
10724TIP3    H253588   3.701   5.009  11.969  0.3639  2.0268  0.0585
10725TIP3   OH253589   3.329   0.788  11.971  0.1217 -0.2328  0.7339
10725TIP3    H153590   3.396   0.746  11.917  0.7398 -0.0013  1.3053
10725TIP3    H253591   3.364   0.782  12.060 -0.1209  0.8326  0.9058
10726TIP3   OH253592   2.686   4.277   3.002  0.1737 -0.1189 -0.3558
10726TIP3    H153593   2.768   4.252   2.960  0.2086 -1.2655  0.3660
10726TIP3    H253594   2.689   4.372   3.007  0.9445 -0.0909 -1.3726
10727TIP3   OH253595   2.378   2.712  13.646 -0.2085  0.7222 -0.3568
10727TIP3    H153596   2.435   2.636  13.636 -0.8991  0.2617 -0.8760
10727TIP3    H253597   2.387   2.737  13.738  2.0598  1.6420 -0.8107
10728TIP3   OH253598   4.393   6.605   2.601  0.2624  0.3145  0.2396
10728TIP3    H153599   4.441   6.524   2.579  0.7076  0.0899  1.9489
10728TIP3    H253600   4.390   6.605   2.697 -0.3024  2.0091  0.2265
10729TIP3   OH253601   1.205   0.200   3.768  0.2603 -0.0103 -0.1130
10729TIP3    H153602   1.300   0.193   3.779  0.6960  1.0317 -2.8448
10729TIP3    H253603   1.169   0.146   3.838  2.8584 -0.0280  1.2662
10730TIP3   OH253604   2.165   6.708   5.545 -0.4108  0.1741  0.0529
10730TIP3    H153605   2.209   6.744   5.622  1.6585 -0.9662 -0.5722
10730TIP3    H253606   2.079   6.681   5.578  0.7343 -1.0732  2.2063
10731TIP3   OH253607   4.449   5.837  12.768  0.3070 -0.2175 -0.1783
10731TIP3    H153608   4.528   5.870  12.811  0.0324  0.8640 -0.4854
10731TIP3    H253609   4.378   5.862  12.827 -0.0707  1.2639 -1.2395
10732TIP3   OH253610   0.213   3.565  15.296 -0.4031 -0.1786 -0.2320
10732TIP3    H153611   0.211   3.657  15.268  1.0912  0.1257  0.5767
10732TIP3    H253612   0.241   3.517  15.218 -0.0610  0.2011 -0.3474
10733TIP3   OH253613   3.176   1.244  13.440  0.1130 -0.4149 -0.4742
10733TIP3    H153614   3.246   1.230  13.505  1.5266  0.4544 -1.7783
10733TIP3    H253615   3.144   1.156  13.421  0.6978 -0.8063  0.3211
10734TIP3   OH253616   3.940   0.705   1.200  0.1503 -0.3874  0.3271
10734TIP3    H153617   3.996   0.690   1.124  0.5733 -0.2159  0.6032
10734TIP3    H253618   3.856   0.734   1.163  0.2368 -0.6575 -0.0864
10735TIP3   OH253619   6.773   5.016  13.593  0.2291  0.5925  0.5766
10735TIP3    H153620   6.704   4.953  13.617  1.7962 -2.7012 -2.9551
10735TIP3    H253621   6.731   5.076  13.532  0.1296 -0.5754 -0.5126
10736TIP3   OH253622   5.256   2.594   5.429 -0.3162  0.0609  0.0088
10736TIP3    H153623   5.271   2.668   5.370  0.3926 -0.9095 -1.0356
10736TIP3    H253624   5.280   2.628   5.516  0.5271  0.8808 -0.5332
10737TIP3   OH253625   4.288   4.147   5.106 -0.1888  0.1061 -0.8991
10737TIP3    H153626   4.351   4.097   5.158 -2.6678 -0.9136  1.2554
10737TIP3    H253627   4.275   4.228   5.156 -0.8022  0.1733 -1.1611
10738TIP3   OH253628   4.674   5.118  12.426 -0.9606  0.3231  0.1451
10738TIP3    H153629   4.769   5.113  12.436 -1.0210  0.8965  1.0063
10738TIP3    H253630   4.640   5.050  12.484 -1.0956  0.2643  0.0001
10739TIP3   OH253631   5.875   2.518   4.168  0.1112  0.1742  0.3138
10739TIP3    H153632   5.895   2.525   4.075 -0.4594  2.4356  0.3264
10739TIP3    H253633   5.950   2.472   4.206  1.7039  1.7667 -0.8193
10740TIP3   OH253634   4.601   4.460   3.310  0.1845 -0.5673  0.0533
10740TIP3    H153635   4.649   4.442   3.229  0.1969 -0.6385  0.0774
10740TIP3    H253636   4.575   4.552   3.302  0.3640 -0.5145  0.0612
10741TIP3   OH253637   1.943   6.520   1.524  0.2849  0.1824  0.1170
10741TIP3    H153638   2.023   6.528   1.577 -0.5774  0.6042  1.3680
10741TIP3    H253639   1.890   6.595   1.549 -0.5902 -0.1804 -0.6062
10742TIP3   OH253640   3.221   6.588   6.273  0.1722 -0.3220  0.3759
10742TIP3    H153641   3.294   6.595   6.212 -1.3036  0.5367 -1.3421
10742TIP3    H253642   3.242   6.651   6.343 -0.4442  2.3247 -1.7473
10743TIP3   OH253643   1.711   3.801   2.044 -0.0431 -0.8400 -0.4106
10743TIP3    H153644   1.751   3.884   2.072  0.0615 -0.8350 -0.5773
10743TIP3    H253645   1.751   3.735   2.101  0.0589 -0.8101 -0.4469
10744TIP3   OH253646   1.285   3.811  15.407  0.3188  0.4009 -0.0812
10744TIP3    H153647   1.276   3.719  15.381 -3.6183  0.4285  0.9217
10744TIP3    H253648   1.271   3.810  15.501  1.0619  1.9415  0.0488
10745TIP3   OH253649   6.675   5.011  10.815 -0.0132 -0.3350  0.4634
10745TIP3    H153650   6.612   5.083  10.809  0.4995  0.1032  0.3817
10745TIP3    H253651   6.637   4.941  10.762  0.3077  0.4600 -0.8335
10746TIP3   OH253652   3.849   5.634  14.517 -0.1070  0.1029 -0.2105
10746TIP3    H153653   3.787   5.638  14.444 -0.6897 -1.4668  0.1685
10746TIP3    H253654   3.925   5.684  14.487 -1.8406  2.7101 -0.3752
10747TIP3   OH253655   1.760   4.524   1.257  0.2216  0.0474  0.2980
10747TIP3    H153656   1.683   4.468   1.250 -0.3760  0.9460 -0.3340
10747TIP3    H253657   1.804   4.494   1.337 -0.7816 -0.4594  0.6638
10748TIP3   OH253658   3.203   5.327   3.913 -0.1740 -0.4533  0.2637
10748TIP3    H153659   3.194   5.235   3.890 -1.3401 -0.2842  0.0420
10748TIP3    H253660   3.118   5.365   3.894 -0.9990 -0.1739  4.1231
10749TIP3   OH253661   3.432   2.900   2.394  0.1323  0.3889  0.3528
10749TIP3    H153662   3.484   2.901   2.474  1.3623 -1.5190 -0.3931
10749TIP3    H253663   3.349   2.940   2.419  0.4852 -0.2011  2.5971
10750TIP3   OH253664   6.516   4.967  14.232 -0.1614 -0.1968  0.1574
10750TIP3    H153665   6.463   5.046  14.244  0.4040  0.3865 -1.1301
10750TIP3    H253666   6.584   4.974  14.299 -0.3226  0.2310  0.2805
10751TIP3   OH253667   0.751   0.679   2.113 -0.3869 -0.4212  0.3878
10751TIP3    H153668   0.767   0.772   2.097 -1.3981 -0.2069  0.6088
10751TIP3    H253669   0.797   0.634   2.042 -2.3608  0.3709 -1.4503
10752TIP3   OH253670   2.327   1.162   1.134 -0.1318 -0.2191  0.0336
10752TIP3    H153671   2.297   1.243   1.091 -0.5484 -0.1939  0.3624
10752TIP3    H253672   2.295   1.092   1.077 -0.4585 -0.1773  0.1611
10753TIP3   OH253673   2.236   6.750  16.241  0.0505  0.8172 -0.1643
10753TIP3    H153674   2.273   6.732  16.327  0.4346  1.5695 -0.1683
10753TIP3    H253675   2.256   6.671  16.190 -1.5177 -0.2678  0.8539
10754TIP3   OH253676   3.255   0.692  13.253 -0.1875 -0.0153  0.3199
10754TIP3    H153677   3.322   0.653  13.196  0.7541 -0.7594  1.8942
10754TIP3    H253678   3.177   0.698  13.198  0.1482 -2.5060 -0.5121
10755TIP3   OH253679   0.542   5.557  12.579  0.2447  0.1182 -0.3273
10755TIP3    H153680   0.541   5.463  12.595  0.6136  0.4781  2.0328
10755TIP3    H253681   0.568   5.566  12.487 -1.0166 -2.0932 -0.9381
10756TIP3   OH253682   2.248   2.153   0.382 -0.1001  0.6190 -0.2621
10756TIP3    H153683   2.273   2.115   0.298 -0.2928  1.0105 -0.4987
10756TIP3    H253684   2.189   2.088   0.421  0.4455  0.1763 -0.1692
10757TIP3   OH253685   5.366   6.396   1.692 -0.4595  0.1073  0.0101
10757TIP3    H153686   5.373   6.452   1.615  0.0037 -0.6789 -0.5269
10757TIP3    H253687   5.274   6.398   1.715 -0.2937  1.8713  0.5882
10758TIP3   OH253688   3.789   2.108  16.915 -0.2640  0.2975  0.0887
10758TIP3    H153689   3.836   2.147  16.841 -1.6547 -0.0550 -1.0012
10758TIP3    H253690   3.847   2.122  16.990  0.7283  1.5435 -0.8814
10759TIP3   OH253691   2.344   5.191   1.722 -0.0339 -0.4636  0.4510
10759TIP3    H153692   2.434   5.211   1.747 -1.0318  2.1679  2.1237
10759TIP3    H253693   2.295   5.270   1.743 -2.7549 -1.8477 -0.4424
10760TIP3   OH253694   0.258   0.797   5.167  0.0484  0.4261 -0.1034
10760TIP3    H153695   0.279   0.857   5.095 -2.6797  1.5772  0.0055
10760TIP3    H253696   0.177   0.832   5.204  0.5161 -1.1271  2.4669
10761TIP3   OH253697   5.954   0.156   6.497 -0.2097 -0.3591 -0.1092
10761TIP3    H153698   5.921   0.076   6.540 -0.1214 -0.3771 -0.0754
10761TIP3    H253699   5.963   0.219   6.568 -0.2216 -0.3374 -0.1268
10762TIP3   OH253700   4.582   1.287   2.484  0.4975  0.4144  0.4358
10762TIP3    H153701   4.657   1.232   2.462 -1.0434 -1.6972  0.2403
10762TIP3    H253702   4.543   1.308   2.399 -0.1681 -0.0313  0.6258
10763TIP3   OH253703   5.335   1.481  16.472  0.3498  0.3241  0.1154
10763TIP3    H153704   5.332   1.576  16.456  0.1739  0.2179 -0.4884
10763TIP3    H253705   5.420   1.454  16.439  0.6305  0.3606  0.7991
10764TIP3   OH253706   5.150   4.267  12.072  0.3732  0.1133  0.3657
10764TIP3    H153707   5.114   4.314  12.148 -0.8154 -3.7000  2.2796
10764TIP3    H253708   5.082   4.275  12.005  0.1304  0.9935  0.7027
10765TIP3   OH253709   4.264   3.319   5.288  0.3798 -0.1638 -0.3246
10765TIP3    H153710   4.239   3.361   5.371  2.1569 -3.3074  1.9179
10765TIP3    H253711   4.184   3.273   5.260 -0.2115  0.8515 -0.3407
10766TIP3   OH253712   4.334   1.772  11.877 -0.2701 -0.2407  0.2711
10766TIP3    H153713   4.290   1.815  11.803  3.0914  1.3612 -0.8971
10766TIP3    H253714   4.406   1.724  11.838 -0.5392 -2.2890  2.2046
10767TIP3   OH253715   3.357   2.823  14.964 -0.0020 -0.5025 -0.2365
10767TIP3    H153716   3.340   2.730  14.945  1.2509 -0.6194 -0.8950
10767TIP3    H253717   3.273   2.866  14.949 -0.7398 -1.6110  0.6182
10768TIP3   OH253718   5.882   6.053  15.434  0.3043  0.2335 -0.3639
10768TIP3    H153719   5.959   6.072  15.381  0.4350 -1.7017 -0.8948
10768TIP3    H253720   5.913   5.989  15.499 -1.0359 -1.2624 -1.1604
10769TIP3   OH253721   1.623   1.824   2.470 -0.4720 -0.4730  0.2343
10769TIP3    H153722   1.537   1.811   2.431 -1.5781  1.1570  2.1197
10769TIP3    H253723   1.673   1.869   2.401 -2.3214  2.1197  0.5061
10770TIP3   OH253724   3.399   1.667  16.293 -0.4971 -0.3644  0.8456
10770TIP3    H153725   3.313   1.648  16.254 -0.2208 -1.0482  0.5623
10770TIP3    H253726   3.394   1.760  16.316 -0.8519 -0.0692 -0.3630
10771TIP3   OH253727   4.100   4.932  13.103  0.3429 -0.2592  0.4778
10771TIP3    H153728   4.057   4.877  13.168 -2.7836  0.0761 -1.1793
10771TIP3    H253729   4.109   4.875  13.026 -2.7899  1.4035 -1.1991
10772TIP3   OH253730   3.585   2.021  13.700 -0.1880 -0.7026  0.1109
10772TIP3    H153731   3.623   1.933  13.705 -0.9943 -1.2082 -2.0238
10772TIP3    H253732   3.515   2.020  13.765  1.1810 -0.9143  1.6096
10773TIP3   OH253733   1.223   2.875   4.736 -0.1328  0.2357  0.5335
10773TIP3    H153734   1.137   2.859   4.775  0.5729 -0.6711  1.7539
10773TIP3    H253735   1.282   2.820   4.786  1.2344  1.1990 -0.0027
10774TIP3   OH253736   2.572   3.137  15.836 -0.8082 -0.1061  0.6213
10774TIP3    H153737   2.486   3.114  15.803 -0.9002 -0.7934  1.3452
10774TIP3    H253738   2.632   3.116  15.764 -1.2339  0.3070  0.1482
10775TIP3   OH253739   1.207   2.318   0.292  0.1974 -0.3887  0.6137
10775TIP3    H153740   1.205   2.387   0.225 -0.4170 -0.6710  0.3383
10775TIP3    H253741   1.122   2.276   0.286  0.6194 -1.2727  0.6843
10776TIP3   OH253742   5.698   5.732  11.614  0.0004  0.5088 -0.6867
10776TIP3    H153743   5.613   5.761  11.582 -0.2842 -1.0385 -1.3407
10776TIP3    H253744   5.745   5.703  11.536 -0.1030 -1.7621  0.0679
10777TIP3   OH253745   1.301   3.489   6.555  0.3649  0.0010 -0.7436
10777TIP3    H153746   1.232   3.495   6.489 -0.4187  0.3747  0.0900
10777TIP3    H253747   1.309   3.578   6.589  0.7240 -0.2012 -0.2950
10778TIP3   OH253748   1.045   1.107  17.029 -0.6159 -0.0605 -0.2245
10778TIP3    H153749   0.974   1.168  17.049 -0.5051  0.0053 -0.0245
10778TIP3    H253750   1.125   1.160  17.034 -0.4424 -0.3999  0.8063
10779TIP3   OH253751   0.823   1.408   4.541  0.1990  0.5770 -0.0462
10779TIP3    H153752   0.775   1.327   4.555  0.3303  0.1470 -1.9189
10779TIP3    H253753   0.908   1.380   4.507  0.0368  1.4864 -1.2605
10780TIP3   OH253754   2.055   4.810  14.305 -0.6801 -0.5857 -0.7432
10780TIP3    H153755   2.021   4.872  14.369 -1.1747 -2.2170  0.6001
10780TIP3    H253756   1.995   4.818  14.231 -2.0024 -0.9680  0.2596
10781TIP3   OH253757   6.329   2.968   5.256  0.1708  0.0894 -0.0302
10781TIP3    H153758   6.242   2.967   5.215 -1.5985 -1.3329  3.5124
10781TIP3    H253759   6.368   2.883   5.233 -0.3204 -0.2092  0.2337
10782TIP3   OH253760   1.847   0.719  12.398  0.1477 -0.5911 -0.0969
10782TIP3    H153761   1.796   0.643  12.426 -1.7748 -0.9215 -4.1243
10782TIP3    H253762   1.813   0.792  12.450 -2.1357 -1.4444 -0.3576
10783TIP3   OH253763   1.988   6.229   2.046  0.1860  0.3407 -0.0279
10783TIP3    H153764   1.954   6.154   2.096 -0.2932  0.6914  0.1763
10783TIP3    H253765   1.912   6.286   2.035  0.5448  0.7796 -0.2218
10784TIP3   OH253766   1.166   1.207   5.664  0.3467  0.0189 -0.5765
10784TIP3    H153767   1.196   1.142   5.728 -2.4063 -1.5331 -0.7664
10784TIP3    H253768   1.145   1.284   5.716  0.8147 -0.2600  0.0342
10785TIP3   OH253769   5.680   2.389  16.047  0.5465 -0.0869 -0.3124
10785TIP3    H153770   5.639   2.310  16.080  0.8227 -0.2377 -0.3320
10785TIP3    H253771   5.666   2.386  15.952  1.5778 -0.7034 -0.4546
10786TIP3   OH253772   4.088   3.435  16.570  0.6750  0.4719  0.5298
10786TIP3    H153773   4.165   3.490  16.553  0.8493 -0.1270 -0.6242
10786TIP3    H253774   4.091   3.420  16.665  3.5588 -1.8170  0.1701
10787TIP3   OH253775   2.215   0.001  15.356 -0.2615 -0.0882  0.0164
10787TIP3    H153776   2.251  -0.062  15.293  0.3129  0.6030 -0.3506
10787TIP3    H253777   2.265   0.081  15.341  1.0895 -0.4062  2.5287
10788TIP3   OH253778   5.553   2.089   4.365 -0.5686  0.1101 -0.1099
10788TIP3    H153779   5.619   2.047   4.310 -0.4994 -0.4159  0.3590
10788TIP3    H253780   5.500   2.141   4.305 -0.9957 -1.0832 -0.7861
10789TIP3   OH253781   0.679   4.804   2.203 -0.7863  0.2874  0.2985
10789TIP3    H153782   0.748   4.852   2.248  2.2264 -1.6183 -2.0937
10789TIP3    H253783   0.687   4.831   2.111 -0.6714 -2.7792 -0.6586
10790TIP3   OH253784   1.255   2.196   5.900  0.0475 -0.0093  0.2368
10790TIP3    H153785   1.321   2.262   5.882 -1.5466  1.3543 -0.7682
10790TIP3    H253786   1.291   2.115   5.864  2.5068  0.0222  2.4547
10791TIP3   OH253787   5.713   3.101   1.263 -0.1128  0.5245 -0.3331
10791TIP3    H153788   5.802   3.078   1.291 -0.8968 -0.0582  1.8375
10791TIP3    H253789   5.694   3.182   1.311 -1.6635 -0.7420  1.2664
10792TIP3   OH253790   4.793   0.790  12.241  0.3429 -0.1018  0.3612
10792TIP3    H153791   4.752   0.877  12.242 -1.0628 -0.7354  4.0083
10792TIP3    H253792   4.880   0.804  12.277  0.0354 -0.2068  1.1638
10793TIP3   OH253793   1.247   2.239   2.998 -0.6634  0.1112  1.2512
10793TIP3    H153794   1.202   2.192   3.069 -2.5979 -1.1030 -0.7259
10793TIP3    H253795   1.293   2.171   2.949 -1.3652  0.5858 -0.1028
10794TIP3   OH253796   4.064   4.067  16.380 -0.0911  0.0630 -0.0493
10794TIP3    H153797   4.145   4.117  16.389 -0.9886  1.5842 -0.0983
10794TIP3    H253798   4.055   4.020  16.462  1.0218 -0.4029 -0.1820
10795TIP3   OH253799   5.911   3.220   2.116  0.0943 -0.1997  0.3686
10795TIP3    H153800   5.973   3.173   2.060 -1.9139  0.3520 -2.4179
10795TIP3    H253801   5.877   3.154   2.176  2.1581 -0.8265  0.9180
10796TIP3   OH253802   0.827   6.763   4.374 -0.0065  0.3876 -0.0908
10796TIP3    H153803   0.807   6.747   4.282  0.4826  0.6279 -0.2412
10796TIP3    H253804   0.843   6.676   4.411 -1.0143  0.2194 -0.0383
10797TIP3   OH253805   2.720   3.188  11.970  0.2196  0.0569 -0.0943
10797TIP3    H153806   2.718   3.281  11.992  0.7440  0.0644 -0.0636
10797TIP3    H253807   2.633   3.169  11.935 -0.5731  0.0914  1.7667
10798TIP3   OH253808   1.316   0.178   6.117  0.0134  0.5885 -0.1420
10798TIP3    H153809   1.301   0.090   6.153 -0.5063  0.9113  0.4327
10798TIP3    H253810   1.310   0.236   6.193  0.0429  1.1595 -0.5766
10799TIP3   OH253811   5.146   5.915  12.365 -0.0851  0.1469 -0.3003
10799TIP3    H153812   5.232   5.942  12.333  0.1212 -1.0495 -0.7609
10799TIP3    H253813   5.137   5.824  12.338 -0.9322 -0.1509  0.9552
10800TIP3   OH253814   2.896   1.694   2.708  0.2396  0.4869  0.2286
10800TIP3    H153815   2.940   1.655   2.633  2.8365  2.1894  0.7988
10800TIP3    H253816   2.808   1.656   2.707  0.4894 -0.1170 -3.1656
10801TIP3   OH253817   6.487   0.395   4.030  0.2694  0.0073 -0.2679
10801TIP3    H153818   6.565   0.411   3.977  0.2276 -1.2606 -0.7397
10801TIP3    H253819   6.439   0.327   3.981 -0.7176  0.1886  0.4325
10802TIP3   OH253820   3.876   4.599   0.467  0.3446  0.0989  0.1065
10802TIP3    H153821   3.824   4.674   0.436  0.0531  0.3171  1.0755
10802TIP3    H253822   3.836   4.577   0.551 -0.7871 -2.3912 -1.0594
10803TIP3   OH253823   0.949   2.685   6.239 -0.1404 -0.5695  0.1798
10803TIP3    H153824   0.958   2.596   6.206 -2.5770  0.0099 -2.1356
10803TIP3    H253825   1.010   2.736   6.186 -0.0847 -0.5282  0.2825
10804TIP3   OH253826   5.321   3.801   4.357 -0.0112 -0.5333  0.2253
10804TIP3    H153827   5.410   3.764   4.357  1.3869  2.4510 -3.4328
10804TIP3    H253828   5.317   3.854   4.436  2.2119  0.7585 -0.4646
10805TIP3   OH253829   5.234   5.619   4.385  0.6279  0.1423  0.4651
10805TIP3    H153830   5.251   5.527   4.362  0.5766 -0.2721  2.0851
10805TIP3    H253831   5.274   5.630   4.471 -0.0162  1.4502  0.6014
10806TIP3   OH253832   2.042   1.115   6.244 -0.0108  0.0357  0.3313
10806TIP3    H153833   2.002   1.043   6.292  0.2656  0.5676  1.3782
10806TIP3    H253834   2.107   1.152   6.304  0.3501  0.7131 -0.4503
10807TIP3   OH253835   5.122   6.175  15.049  0.0014  0.5293  0.8641
10807TIP3    H153836   5.165   6.158  14.965 -0.1747 -0.6055  0.9942
10807TIP3    H253837   5.190   6.158  15.115 -0.1357  0.4766  0.9924
10808TIP3   OH253838   4.747   1.706  16.638  0.4955  0.0546 -0.0547
10808TIP3    H153839   4.801   1.654  16.698 -0.0145 -1.0578 -0.5483
10808TIP3    H253840   4.804   1.724  16.564  0.6450  0.1283  0.0774
10809TIP3   OH253841   5.974   1.874   4.399 -0.2296  0.4689  0.1974
10809TIP3    H153842   5.976   1.970   4.395  0.7981  0.4285 -0.3589
10809TIP3    H253843   6.030   1.853   4.473 -0.7463  0.3019  0.5453
10810TIP3   OH253844   2.824   2.540   5.089 -0.1120  0.1296 -0.4729
10810TIP3    H153845   2.742   2.579   5.120  0.2230  0.3219  0.1821
10810TIP3    H253846   2.815   2.447   5.106 -0.4848  0.0562 -1.0628
10811TIP3   OH253847   3.002   0.585  11.896  0.1562  0.7266  0.3545
10811TIP3    H153848   2.908   0.574  11.883  0.5460 -0.0713 -1.9276
10811TIP3    H253849   3.030   0.503  11.936  0.0268  0.6705  0.3309
10812TIP3   OH253850   0.425   3.742  17.098 -0.6514  0.4976 -0.2166
10812TIP3    H153851   0.454   3.819  17.049 -0.6237 -0.3497 -1.5334
10812TIP3    H253852   0.338   3.723  17.064 -0.5920 -0.1595 -0.0085
10813TIP3   OH253853   0.926   2.305  11.902  0.2946 -0.6032 -0.1388
10813TIP3    H153854   0.974   2.282  11.981  0.6220  0.8945  0.1028
10813TIP3    H253855   0.917   2.400  11.905 -0.8798 -0.6607 -1.2211
10814TIP3   OH253856   5.091   5.393  16.087 -0.3481  0.5169 -0.0027
10814TIP3    H153857   5.169   5.367  16.037 -0.6147  1.1967 -0.7756
10814TIP3    H253858   5.102   5.486  16.103 -0.2165  0.2935  1.3221
10815TIP3   OH253859   1.258   1.433   3.195 -0.2747 -0.6922  0.1559
10815TIP3    H153860   1.212   1.470   3.119 -2.0330  1.1646  2.0583
10815TIP3    H253861   1.309   1.507   3.230  1.7297 -1.9184 -0.0501
10816TIP3   OH253862   6.676   6.657  13.698  0.0419  0.6033 -0.2173
10816TIP3    H153863   6.611   6.728  13.694  0.0712  0.5406 -2.1979
10816TIP3    H253864   6.633   6.584  13.653  0.7966 -0.0043  0.0527
10817TIP3   OH253865   2.565   1.127   3.782  0.0727  0.8591 -0.2709
10817TIP3    H153866   2.587   1.115   3.874 -0.4111 -0.1779 -0.2851
10817TIP3    H253867   2.649   1.146   3.740  0.3504  0.9500  0.3155
10818TIP3   OH253868   2.369   4.898  13.472  0.5235 -0.0115  0.0926
10818TIP3    H153869   2.331   4.869  13.390  1.5613  1.9995 -1.1412
10818TIP3    H253870   2.457   4.861  13.472  1.0147  1.1411 -0.3717
10819TIP3   OH253871   4.869   0.190   1.066  0.0459 -0.4346  0.1276
10819TIP3    H153872   4.866   0.217   0.974 -1.5469  0.3720  0.3979
10819TIP3    H253873   4.904   0.101   1.063  0.9965 -0.0490 -1.1656
10820TIP3   OH253874   0.287   3.185  13.686  0.8073 -0.0089  0.1922
10820TIP3    H153875   0.248   3.229  13.611  2.0943  0.6244 -0.1007
10820TIP3    H253876   0.330   3.254  13.735 -0.0194 -0.4187  1.5283
10821TIP3   OH253877   1.458   3.071  13.392 -0.2319  0.3180  0.5242
10821TIP3    H153878   1.493   3.081  13.480 -0.3564  0.3951  0.5662
10821TIP3    H253879   1.364   3.059  13.406 -0.3048  0.7160  0.3786
10822TIP3   OH253880   4.754   5.567   3.518 -0.0274  0.3522  0.3262
10822TIP3    H153881   4.723   5.477   3.510  0.1371  0.2220  1.1377
10822TIP3    H253882   4.680   5.616   3.555 -0.1014  0.5477 -0.0680
10823TIP3   OH253883   0.087   4.138   3.910 -0.4707  0.1920 -0.4525
10823TIP3    H153884   0.068   4.231   3.904 -0.2755  0.2637  0.0928
10823TIP3    H253885   0.145   4.121   3.835  1.0950  0.9000  0.5855
10824TIP3   OH253886   0.602   1.448  13.659 -0.2198  0.0172  0.4623
10824TIP3    H153887   0.512   1.453  13.689 -0.0622 -0.6191  1.0423
10824TIP3    H253888   0.599   1.393  13.581 -0.2626 -0.4532  0.7912
10825TIP3   OH253889   0.504   5.668  13.759  0.0024  0.0261 -0.7526
10825TIP3    H153890   0.521   5.581  13.794  0.1393  0.2056 -0.3784
10825TIP3    H253891   0.570   5.680  13.691  0.3275  0.0581 -0.4297
10826TIP3   OH253892   0.857   3.673  11.683  0.3310  0.0074  0.2554
10826TIP3    H153893   0.875   3.596  11.629 -0.3528 -0.6443  0.9296
10826TIP3    H253894   0.930   3.732  11.667  1.6238 -1.3968  0.8249
10827TIP3   OH253895   0.653   0.031  15.457 -0.6042  0.1258 -0.2844
10827TIP3    H153896   0.668  -0.064  15.454  1.5586  0.4976 -2.3503
10827TIP3    H253897   0.605   0.044  15.539 -1.6963 -2.8413 -0.3734
10828TIP3   OH253898   4.100   3.189  12.455 -0.3052 -0.4435 -0.1471
10828TIP3    H153899   4.093   3.145  12.370 -0.9236 -0.4397 -0.1001
10828TIP3    H253900   4.009   3.208  12.480 -0.1338 -0.5691  0.5810
10829TIP3   OH253901   1.048   0.156  13.161  0.2450 -0.0607  0.2766
10829TIP3    H153902   1.008   0.168  13.075  0.0879 -1.6031  0.1270
10829TIP3    H253903   1.031   0.238  13.207 -1.2273  0.1020 -0.5335
10830TIP3   OH253904   6.764   3.559   0.729 -0.4067  0.5047 -0.0526
10830TIP3    H153905   6.764   3.653   0.749 -0.1145  0.5754 -0.3755
10830TIP3    H253906   6.694   3.523   0.783 -0.3927  0.8788  0.2180
10831TIP3   OH253907   2.244   2.608   4.582  0.0970  0.8697 -0.1014
10831TIP3    H153908   2.149   2.615   4.590 -0.2721 -3.2830  0.5345
10831TIP3    H253909   2.257   2.563   4.499  1.5680  2.0368 -0.5144
10832TIP3   OH253910   2.975   2.881   4.216 -0.0084 -0.7348  0.1938
10832TIP3    H153911   2.971   2.814   4.285 -1.0818  0.3485  1.1995
10832TIP3    H253912   2.911   2.852   4.152  0.0945 -1.0940  0.2517
10833TIP3   OH253913   4.186   0.557   4.585  0.2862  0.4368  0.5725
10833TIP3    H153914   4.184   0.607   4.667 -0.6448 -0.3766  1.0523
10833TIP3    H253915   4.101   0.512   4.582  0.1005  0.8647 -1.0915
10834TIP3   OH253916   1.784   5.830  15.941  0.4859 -0.2858  0.1857
10834TIP3    H153917   1.722   5.758  15.950 -0.2510  0.4245  0.8003
10834TIP3    H253918   1.733   5.908  15.958  1.3571  0.3677 -0.1683
10835TIP3   OH253919   4.442   6.257   2.226 -0.0041  0.2869  0.1222
10835TIP3    H153920   4.446   6.230   2.318  0.3032 -1.7087 -0.4542
10835TIP3    H253921   4.532   6.282   2.205  0.8495 -3.2216 -0.7492
10836TIP3   OH253922   5.492   3.987   4.172  0.4714  0.0033  0.2090
10836TIP3    H153923   5.404   4.019   4.193 -0.0337  0.8332 -2.9846
10836TIP3    H253924   5.479   3.923   4.102  2.3736 -0.1327 -0.0583
10837TIP3   OH253925   6.217   3.189   0.938  0.1256 -0.3637  0.3523
10837TIP3    H153926   6.149   3.123   0.949 -1.1190  0.5434 -1.5298
10837TIP3    H253927   6.207   3.247   1.013 -0.8378 -0.5449  0.3715
10838TIP3   OH253928   5.007   3.093   1.379  0.1513 -1.0471 -0.1563
10838TIP3    H153929   5.025   3.180   1.345  0.2581 -0.7786  0.5712
10838TIP3    H253930   5.082   3.040   1.351  0.2151 -0.8431 -0.3702
10839TIP3   OH253931   5.583   5.224  16.330 -0.4971 -0.7551  0.5454
10839TIP3    H153932   5.676   5.226  16.350 -0.5752 -0.1020  0.8216
10839TIP3    H253933   5.563   5.130  16.322  0.2492 -0.8897  0.1523
10840TIP3   OH253934   2.570   0.791   0.559  0.3350  0.2328  0.1822
10840TIP3    H153935   2.649   0.838   0.532 -0.0249  1.0066  0.4910
10840TIP3    H253936   2.551   0.732   0.485  2.0611 -1.0520  0.7183
10841TIP3   OH253937   4.464   1.797  15.644 -0.5174  0.4719  0.4587
10841TIP3    H153938   4.387   1.747  15.672 -0.2654 -0.1299  0.0877
10841TIP3    H253939   4.450   1.884  15.681 -0.6585 -0.0447  1.6614
10842TIP3   OH253940   3.132   0.047   0.403 -0.2476  0.1680  0.2788
10842TIP3    H153941   3.197   0.118   0.400 -0.9623  0.7933 -0.6553
10842TIP3    H253942   3.063   0.081   0.460 -1.9383  1.4185 -2.3999
10843TIP3   OH253943   4.437   2.139   2.809 -0.1038  0.7479  0.1457
10843TIP3    H153944   4.504   2.084   2.850  0.0671  0.9636  0.1583
10843TIP3    H253945   4.485   2.217   2.780 -0.1034  0.3266 -1.0089
10844TIP3   OH253946   1.848   2.523   3.446 -0.6615 -0.3617 -0.2540
10844TIP3    H153947   1.879   2.590   3.507 -0.2092 -0.6139 -0.2101
10844TIP3    H253948   1.756   2.547   3.429  0.0741  1.4418 -1.8256
10845TIP3   OH253949   1.869   1.309  15.087  0.1418  0.6081  0.2878
10845TIP3    H153950   1.882   1.305  15.182  2.0654 -0.2075  0.0140
10845TIP3    H253951   1.774   1.305  15.076 -0.1183  0.8564  2.1745
10846TIP3   OH253952   6.291   3.383   3.310  0.1400 -0.4105  0.0485
10846TIP3    H153953   6.243   3.466   3.316  0.9747 -0.0390  1.5624
10846TIP3    H253954   6.267   3.349   3.223 -1.3304  0.7097 -0.0083
10847TIP3   OH253955   3.495   4.154   4.359  0.5113 -0.1648 -0.5388
10847TIP3    H153956   3.498   4.248   4.375 -0.0692 -0.3867  1.0191
10847TIP3    H253957   3.587   4.127   4.358  0.6589  0.3274 -0.3735
10848TIP3   OH253958   6.069   3.964   5.382  0.2103 -0.3412  0.2606
10848TIP3    H153959   6.162   3.988   5.386  0.1303  0.3781 -1.6116
10848TIP3    H253960   6.026   4.044   5.352 -0.9006 -0.9476  0.2445
10849TIP3   OH253961   5.344   3.110   1.432  0.1397 -0.0589 -0.1983
10849TIP3    H153962   5.369   3.063   1.353  1.6760  0.1886  0.1246
10849TIP3    H253963   5.426   3.120   1.481 -0.7921 -0.2418  1.4361
10850TIP3   OH253964   1.073   2.309  13.050  0.2767  0.0366  0.5999
10850TIP3    H153965   1.068   2.348  12.963 -0.3801 -0.3323  0.4667
10850TIP3    H253966   1.166   2.294  13.064  0.4025  0.2597  0.0310
10851TIP3   OH253967   3.822   0.041   0.536  0.6518  0.4411 -0.1794
10851TIP3    H153968   3.741  -0.004   0.513  0.4364  0.8929 -0.3101
10851TIP3    H253969   3.797   0.133   0.546  1.2332  0.6680 -0.7024
10852TIP3   OH253970   5.169   4.736   1.391  0.0969  0.3136 -0.1496
10852TIP3    H153971   5.160   4.754   1.484 -0.3354  1.7150 -0.4596
10852TIP3    H253972   5.136   4.646   1.381  1.6842 -0.4640  1.2881
10853TIP3   OH253973   4.299   1.570  10.740 -0.5844 -0.0445 -0.1969
10853TIP3    H153974   4.306   1.614  10.825  2.1431  1.4729 -1.1563
10853TIP3    H253975   4.366   1.501  10.744 -1.4395 -0.9156 -0.6026
10854TIP3   OH253976   1.285   4.108   3.706  0.4989 -0.5974 -0.0022
10854TIP3    H153977   1.355   4.142   3.651  0.4081 -3.0536 -1.6953
10854TIP3    H253978   1.320   4.028   3.744 -1.4565 -2.0321 -1.1277
10855TIP3   OH253979   4.970   3.596  12.877  0.1820  0.4427 -0.1238
10855TIP3    H153980   5.021   3.546  12.813  0.6474 -0.5311  0.9951
10855TIP3    H253981   5.036   3.646  12.926  0.1028 -0.9514  1.4444
10856TIP3   OH253982   2.961   6.366   3.440 -0.4180  0.3797 -0.3934
10856TIP3    H153983   2.882   6.337   3.394 -0.4590 -0.7778  0.3834
10856TIP3    H253984   3.016   6.405   3.372 -0.9715 -0.2522 -1.2112
10857TIP3   OH253985   0.190   6.433  11.741 -0.3271  0.5684 -0.0380
10857TIP3    H153986   0.209   6.427  11.834 -1.4323 -0.1999  0.1430
10857TIP3    H253987   0.240   6.509  11.712  0.7311  0.2844  0.9899
10858TIP3   OH253988   2.701   5.207   2.260  0.0683  0.2747  0.3653
10858TIP3    H153989   2.608   5.184   2.261  0.4800 -1.7502 -2.7941
10858TIP3    H253990   2.743   5.135   2.214  3.0248  1.9549  0.3220
10859TIP3   OH253991   5.531   5.669  14.094 -0.0301  0.1689 -0.1763
10859TIP3    H153992   5.543   5.763  14.111  1.2204  0.4959 -2.5432
10859TIP3    H253993   5.515   5.664  14.000  1.0927 -2.0811 -0.2845
10860TIP3   OH253994   2.914   1.926  15.111 -0.2520 -0.1643 -0.1572
10860TIP3    H153995   2.893   1.850  15.058  0.2561  0.3195 -1.0598
10860TIP3    H253996   2.930   1.890  15.199  1.7622 -1.3436 -0.9547
10861TIP3   OH253997   4.769   1.696   2.086 -0.3317 -0.0048  0.3256
10861TIP3    H153998   4.736   1.778   2.050 -1.6533 -0.7563 -0.2147
10861TIP3    H253999   4.757   1.632   2.015 -0.1751 -0.8592  1.0515
10862TIP3   OH254000   0.218   5.365  12.421 -0.3867  0.4007 -0.4199
10862TIP3    H154001   0.303   5.354  12.379  1.1689  1.3295  2.3951
10862TIP3    H254002   0.194   5.456  12.403 -1.0569 -0.0162 -1.6735
10863TIP3   OH254003   0.944   5.939   6.701 -0.0753  0.0672  0.1395
10863TIP3    H154004   0.950   5.844   6.711  2.2441  0.0385 -1.2443
10863TIP3    H254005   1.024   5.963   6.654 -1.5119  2.4781 -1.1433
10864TIP3   OH254006   4.303   3.792  15.075 -0.2927  0.0769 -0.2594
10864TIP3    H154007   4.391   3.785  15.039  0.0038 -1.7874  0.8253
10864TIP3    H254008   4.311   3.854  15.147  0.4094 -1.0812  0.6746
10865TIP3   OH254009   6.293   6.245  16.291  0.5284 -0.0787  0.6647
10865TIP3    H154010   6.379   6.282  16.308  0.9670  0.3101 -2.1336
10865TIP3    H254011   6.232   6.317  16.305  1.0581  0.7802 -1.3263
10866TIP3   OH254012   5.679   1.792   1.234  0.4509 -0.2067 -0.0590
10866TIP3    H154013   5.632   1.874   1.222  0.7916  0.0412  0.2862
10866TIP3    H254014   5.650   1.737   1.162 -1.2392 -0.4559  0.7708
10867TIP3   OH254015   0.263   6.555  16.457 -0.2758  0.4576 -0.4662
10867TIP3    H154016   0.244   6.534  16.549  0.4182  1.1553 -0.1526
10867TIP3    H254017   0.178   6.553  16.414 -0.3108 -2.3679 -0.3379
10868TIP3   OH254018   6.063   2.037   1.049  0.0070  0.2224 -0.2166
10868TIP3    H154019   6.150   2.034   1.090 -0.8225  1.1924  1.7134
10868TIP3    H254020   6.076   2.088   0.969  1.2785  0.0682 -0.1204
10869TIP3   OH254021   0.655   4.830   3.885  0.2575  0.2751 -0.2540
10869TIP3    H154022   0.651   4.809   3.792 -0.4211  0.2727 -0.2305
10869TIP3    H254023   0.598   4.766   3.927  0.6533  0.2015  0.1772
10870TIP3   OH254024   5.566   4.201  11.523  0.2521  0.1806  0.1436
10870TIP3    H154025   5.537   4.176  11.611  1.8356  1.0490  0.9421
10870TIP3    H254026   5.601   4.119  11.486  0.4274  0.0063  0.6839
10871TIP3   OH254027   4.397   0.331  14.839  0.1872  0.4255  0.2326
10871TIP3    H154028   4.347   0.274  14.896  1.1005  0.6461  1.2618
10871TIP3    H254029   4.450   0.384  14.898  1.8580 -0.0064 -0.8394
10872TIP3   OH254030   0.158   6.006   1.980  0.1417  0.1263 -0.7260
10872TIP3    H154031   0.173   6.063   2.055  1.6445 -1.5672  0.2741
10872TIP3    H254032   0.109   6.061   1.918  1.5546  2.5201  0.2070
10873TIP3   OH254033   6.185   1.203  11.317 -0.1343  0.0897  0.3373
10873TIP3    H154034   6.117   1.267  11.298  1.9521  2.1483 -0.5013
10873TIP3    H254035   6.138   1.128  11.353 -2.8852  1.1731 -0.8327
10874TIP3   OH254036   2.024   3.303   2.452 -0.0264  0.2362 -0.2559
10874TIP3    H154037   2.060   3.221   2.419  0.2981  0.6561 -0.9452
10874TIP3    H254038   1.945   3.318   2.400 -0.0724  0.3729 -0.1480
10875TIP3   OH254039   0.908   3.942  14.096 -0.0383 -0.1521  0.2659
10875TIP3    H154040   0.829   3.993  14.078  1.3374  1.8892 -0.1674
10875TIP3    H254041   0.974   3.979  14.038  1.7087 -0.6318  1.8937
10876TIP3   OH254042   4.568   5.508   2.898 -0.8916  0.4360  0.4695
10876TIP3    H154043   4.631   5.556   2.844 -2.4811  1.4926 -0.4730
10876TIP3    H254044   4.484   5.521   2.855 -1.5125 -2.4833  0.7054
10877TIP3   OH254045   0.532   3.485  12.758  0.2826  0.1470 -0.4495
10877TIP3    H154046   0.613   3.448  12.792  0.1271 -0.1284 -0.3837
10877TIP3    H254047   0.468   3.414  12.764 -0.1237  0.5592  0.0944
10878TIP3   OH254048   3.351   3.543   5.232  0.0333  0.1896 -0.7646
10878TIP3    H154049   3.299   3.605   5.182 -1.6539 -2.1234 -1.9598
10878TIP3    H254050   3.293   3.512   5.302  1.1674  0.6372  0.4045
10879TIP3   OH254051   2.009   5.464   4.509 -0.0356 -0.0988  0.6875
10879TIP3    H154052   2.000   5.459   4.604 -0.6102  0.3734  0.6641
10879TIP3    H254053   1.938   5.409   4.476 -2.1013  2.5397  0.5084
10880TIP3   OH254054   0.791   6.056  16.729  0.2524 -0.5529  0.1414
10880TIP3    H154055   0.759   6.146  16.735  1.0822 -0.2448 -0.0228
10880TIP3    H254056   0.878   6.059  16.767  0.9858 -0.9253 -1.4570
10881TIP3   OH254057   4.416   2.859  11.356  0.2238  0.2943  0.1023
10881TIP3    H154058   4.362   2.929  11.317  0.3486  1.3193  1.7247
10881TIP3    H254059   4.469   2.827  11.283 -0.9961  0.7745 -1.0336
10882TIP3   OH254060   6.319   0.017  12.966  0.2489 -0.8694 -1.1146
10882TIP3    H154061   6.276  -0.010  13.048  0.4962 -0.6894 -0.9251
10882TIP3    H254062   6.412  -0.002  12.980  0.2654 -1.0380 -1.4371
10883TIP3   OH254063   6.705   5.098   0.208  0.6842  0.1235  0.4358
10883TIP3    H154064   6.788   5.056   0.183  0.7062  0.1405  0.4812
10883TIP3    H254065   6.675   5.048   0.283 -0.1012 -0.8153 -0.4898
10884TIP3   OH254066   5.395   4.412   3.211  0.0505  0.1053  0.3640
10884TIP3    H154067   5.370   4.501   3.186 -0.9312 -0.8635 -2.2915
10884TIP3    H254068   5.460   4.386   3.146 -1.4093 -1.9266 -0.3559
10885TIP3   OH254069   1.843   2.473   6.701 -0.1834 -0.0776  0.4565
10885TIP3    H154070   1.854   2.384   6.736 -2.5612  0.2369  2.0796
10885TIP3    H254071   1.857   2.463   6.607 -0.7229 -2.2462  0.5800
10886TIP3   OH254072   5.702   1.003  13.222 -0.2875  1.0357  0.2221
10886TIP3    H154073   5.723   1.085  13.266  1.4024 -0.1320  1.6577
10886TIP3    H254074   5.699   0.938  13.292 -0.3633 -0.3571 -1.0424
10887TIP3   OH254075   4.825   0.196  11.411  0.1380 -0.4274 -0.7191
10887TIP3    H154076   4.756   0.133  11.429  0.0154 -0.9979 -3.0179
10887TIP3    H254077   4.899   0.144  11.382  1.0810  0.2795  0.3936
10888TIP3   OH254078   6.187   4.346  14.905  0.3418 -0.0387 -0.0234
10888TIP3    H154079   6.201   4.324  14.997  0.0702  1.2946  0.3467
10888TIP3    H254080   6.275   4.347  14.866  0.5384  0.3065  0.4302
10889TIP3   OH254081   1.015   1.433   2.741 -0.0579 -0.1561  0.2723
10889TIP3    H154082   1.081   1.367   2.718  3.5071  3.3679 -0.2553
10889TIP3    H254083   0.972   1.453   2.658 -0.0613 -0.6884  0.1438
10890TIP3   OH254084   4.084   0.959   1.750 -0.0317 -0.0413  0.1013
10890TIP3    H154085   4.138   1.030   1.783  0.3510  0.1570 -0.9467
10890TIP3    H254086   3.999   1.000   1.732  0.5852  0.4582 -1.7758
10891TIP3   OH254087   2.132   5.929   6.171  0.5177  0.7889 -0.1087
10891TIP3    H154088   2.107   5.893   6.256 -0.6335  1.3380 -0.2175
10891TIP3    H254089   2.228   5.929   6.173  0.5059  2.5810  1.9336
10892TIP3   OH254090   0.175   0.023  12.276 -0.1322 -0.1271  0.2149
10892TIP3    H154091   0.083   0.046  12.288  0.2021  2.9042 -2.3802
10892TIP3    H254092   0.174  -0.034  12.199  0.1321 -0.3550  0.3824
10893TIP3   OH254093   1.674   3.871   1.395  0.6350  0.1147  0.2175
10893TIP3    H154094   1.755   3.861   1.444  0.8566 -1.2436 -0.4015
10893TIP3    H254095   1.638   3.955   1.424  2.1621  0.6333  0.6270
10894TIP3   OH254096   3.444   1.087  13.970  0.4288 -0.5605 -0.4881
10894TIP3    H154097   3.489   1.075  14.054 -0.3856 -1.0664 -0.1190
10894TIP3    H254098   3.468   1.175  13.942  2.3037 -1.1275 -0.6974
10895TIP3   OH254099   1.608   0.166  14.572 -0.0178 -0.4187  0.1740
10895TIP3    H154100   1.617   0.182  14.478  0.6918 -0.5321  0.2246
10895TIP3    H254101   1.616   0.071  14.581  0.6207 -0.3375  0.4319
10896TIP3   OH254102   5.884   3.474   2.750  0.3568 -0.2991  0.9490
10896TIP3    H154103   5.960   3.417   2.756  0.4697 -0.2970 -0.2692
10896TIP3    H254104   5.812   3.416   2.725  0.9141  0.3603 -2.5274
10897TIP3   OH254105   1.199   1.908   5.401 -0.5343 -0.0451  0.0315
10897TIP3    H154106   1.159   1.848   5.466  0.8250 -0.4758  0.4867
10897TIP3    H254107   1.163   1.994   5.423 -1.7459 -0.5345  0.0005
10898TIP3   OH254108   6.583   3.054  10.828  0.3689 -0.0892  0.2614
10898TIP3    H154109   6.666   3.014  10.802  0.2958 -0.3247  0.3853
10898TIP3    H254110   6.608   3.131  10.880  0.5295  0.9038 -1.2443
10899TIP3   OH254111   1.459   5.243   3.917 -0.1520  0.6938  0.3165
10899TIP3    H154112   1.505   5.310   3.866 -1.5595  1.3341 -0.1190
10899TIP3    H254113   1.420   5.291   3.990  1.8686 -0.2225  2.0415
10900TIP3   OH254114   3.471   2.862  17.107 -0.6778 -0.2425  0.3525
10900TIP3    H154115   3.449   2.955  17.113 -0.1456 -0.2139  2.4698
10900TIP3    H254116   3.393   2.817  17.141 -0.8536 -0.5648 -0.4713
10901TIP3   OH254117   2.458   2.870   3.919  0.7273 -0.0995 -0.1067
10901TIP3    H154118   2.503   2.950   3.947  1.1327 -0.1262 -0.6772
10901TIP3    H254119   2.375   2.873   3.965  0.8963  0.4642  0.1753
10902TIP3   OH254120   2.990   0.616   3.077 -0.0820 -0.2191 -0.3187
10902TIP3    H154121   3.061   0.641   3.019  0.4372 -0.9041  0.0032
10902TIP3    H254122   2.935   0.558   3.024 -0.5993  0.6036 -0.6790
10903TIP3   OH254123   2.446   2.996   1.550 -0.3862 -0.2727 -0.2127
10903TIP3    H154124   2.488   2.930   1.495 -1.7977 -1.5504  0.2077
10903TIP3    H254125   2.483   3.079   1.521  1.6110 -1.2695 -0.5670
10904TIP3   OH254126   5.768   6.635  12.599  0.1574  0.0841 -0.6647
10904TIP3    H154127   5.697   6.593  12.551 -0.6578  1.5766 -0.7832
10904TIP3    H254128   5.762   6.598  12.687 -0.8504  0.3047 -0.6382
10905TIP3   OH254129   5.583   3.449   0.903  0.2445 -0.1244  0.3128
10905TIP3    H154130   5.560   3.366   0.863  2.5066 -0.2792 -0.7527
10905TIP3    H254131   5.588   3.511   0.830  3.0179 -0.0915  0.4969
10906TIP3   OH254132   1.631   1.742  15.580  0.0540 -0.0030  0.0722
10906TIP3    H154133   1.590   1.755  15.666  0.3058  0.4119  0.1299
10906TIP3    H254134   1.561   1.761  15.517  0.1340  0.6333  0.1726
10907TIP3   OH254135   2.790   6.303   0.816 -0.6147  0.2881  0.0574
10907TIP3    H154136   2.771   6.303   0.723  2.6935 -1.7262 -0.7004
10907TIP3    H254137   2.749   6.222   0.849  0.9597 -0.6811 -0.3147
10908TIP3   OH254138   0.928   2.435   5.396  0.0451 -0.0119 -0.2371
10908TIP3    H154139   0.996   2.497   5.421 -1.2614  1.7669 -1.0231
10908TIP3    H254140   0.917   2.379   5.472 -0.7515  2.4949  1.5425
10909TIP3   OH254141   5.855   3.084   4.287  0.1686 -0.2160  0.1787
10909TIP3    H154142   5.875   3.014   4.349  0.0273  0.1946  0.6941
10909TIP3    H254143   5.763   3.069   4.263  0.0692 -0.0701  0.4693
10910TIP3   OH254144   5.331   5.586   6.285  0.1221  0.6853 -0.0417
10910TIP3    H154145   5.258   5.537   6.249  0.9166 -0.3142 -0.3090
10910TIP3    H254146   5.290   5.661   6.330 -1.0500  0.1268 -0.1644
10911TIP3   OH254147   1.981   3.991  11.639  0.0844  0.2952  0.2134
10911TIP3    H154148   2.049   3.998  11.706  1.0747  0.4733 -0.7754
10911TIP3    H254149   1.921   4.063  11.657 -0.3509 -0.4230  1.6513
10912TIP3   OH254150   3.200   1.585  16.930 -0.0625  0.2083  0.0735
10912TIP3    H154151   3.230   1.503  16.968  0.6655  1.2855  1.8805
10912TIP3    H254152   3.276   1.643  16.935 -1.4453  1.9399  1.6439
10913TIP3   OH254153   6.598   1.811   3.816  0.0025 -0.3048 -0.2913
10913TIP3    H154154   6.608   1.906   3.804 -0.1784 -0.3953 -1.2043
10913TIP3    H254155   6.554   1.781   3.736 -3.2584 -0.6407  1.5445
10914TIP3   OH254156   4.337   6.435   1.268 -0.5588  0.5404 -0.1494
10914TIP3    H154157   4.372   6.470   1.186 -2.0388 -0.3183 -1.1808
10914TIP3    H254158   4.367   6.497   1.335 -0.6541  2.1464 -1.5404
10915TIP3   OH254159   0.772   5.082  15.105 -0.0400  0.2456  0.1337
10915TIP3    H154160   0.850   5.086  15.050 -0.9423  0.8346 -1.1168
10915TIP3    H254161   0.804   5.100  15.194  1.6455 -2.0911  0.0567
10916TIP3   OH254162   5.174   3.654   2.607  0.0897 -0.2026  0.0656
10916TIP3    H154163   5.251   3.673   2.553  1.2567  0.7246  2.0151
10916TIP3    H254164   5.182   3.713   2.682 -1.4874 -1.5114  1.2979
10917TIP3   OH254165   4.634   5.690   2.638  0.0455  0.1971  0.1914
10917TIP3    H154166   4.674   5.613   2.597  0.6861  0.5832  0.0781
10917TIP3    H254167   4.543   5.687   2.609  0.4608  0.3989 -1.1886
10918TIP3   OH254168   2.305   6.044   3.294  0.0696  0.9931  0.0858
10918TIP3    H154169   2.279   5.965   3.246  1.8737  0.4630 -0.0548
10918TIP3    H254170   2.312   6.016   3.385  1.2285  0.8531 -0.0417
10919TIP3   OH254171   5.726   3.933   5.295 -0.0873 -0.2749  0.8172
10919TIP3    H154172   5.704   3.857   5.350  0.2614 -0.6248  0.4778
10919TIP3    H254173   5.729   3.898   5.206 -1.4382  0.4472  0.4742
10920TIP3   OH254174   1.195   4.974   1.467 -0.3271 -0.3255 -0.3149
10920TIP3    H154175   1.189   4.943   1.558 -2.7827  0.8882 -0.0157
10920TIP3    H254176   1.127   5.040   1.460  0.5765  0.3930 -2.7621
10921TIP3   OH254177   6.051   5.485  10.932  0.7386  0.2438 -0.2849
10921TIP3    H154178   5.996   5.410  10.910  1.2164 -0.1601 -0.0883
10921TIP3    H254179   6.074   5.524  10.847  1.3511 -0.4414 -0.4390
10922TIP3   OH254180   4.662   5.118  15.090  0.2761 -0.3489  0.4199
10922TIP3    H154181   4.606   5.162  15.154 -2.5509  0.4834 -2.4729
10922TIP3    H254182   4.751   5.136  15.118 -0.8330  4.3647  1.2644
10923TIP3   OH254183   1.572   6.397  15.859 -0.4087  0.4513  0.1377
10923TIP3    H154184   1.652   6.446  15.844  0.6636 -0.1970  3.2800
10923TIP3    H254185   1.507   6.464  15.882  0.1798  0.7109  1.0860
10924TIP3   OH254186   2.297   0.601   4.946  0.4235  0.7994 -0.5620
10924TIP3    H154187   2.228   0.551   4.989  0.1093  2.1797  0.6055
10924TIP3    H254188   2.279   0.594   4.853 -1.1237  0.8991 -0.2757
10925TIP3   OH254189   0.642   5.396  16.282 -0.2631 -0.2569  0.3350
10925TIP3    H154190   0.724   5.396  16.332 -1.4453  0.7868  2.3506
10925TIP3    H254191   0.639   5.310  16.241  1.0542 -0.9228  1.5919
10926TIP3   OH254192   3.954   6.232  16.976 -0.8403 -0.4600  0.0316
10926TIP3    H154193   4.024   6.297  16.980 -0.7814 -0.4405 -1.1069
10926TIP3    H254194   3.950   6.207  16.884 -3.7494  1.0644 -0.3237
10927TIP3   OH254195   1.991   5.401  13.851 -0.2914 -0.4574  0.4805
10927TIP3    H154196   2.086   5.400  13.852 -0.2394  1.9344  0.1862
10927TIP3    H254197   1.966   5.310  13.832  1.9305 -0.8749 -0.5924
10928TIP3   OH254198   4.196   0.376  11.251 -0.5420 -0.2502  0.4216
10928TIP3    H154199   4.211   0.301  11.193  1.5540  0.7896 -0.4408
10928TIP3    H254200   4.148   0.339  11.325  1.1901 -2.6753  0.4221
10929TIP3   OH254201   2.090   0.965   2.196 -0.0838  0.4265  0.3022
10929TIP3    H154202   2.054   1.010   2.273 -0.7806  1.0452 -0.3819
10929TIP3    H254203   2.182   0.990   2.196  0.1802 -0.4564  1.5535
10930TIP3   OH254204   4.177   4.487  13.928 -0.4273 -0.0294  0.8071
10930TIP3    H154205   4.211   4.409  13.973  2.0785 -0.3977 -1.5759
10930TIP3    H254206   4.082   4.476  13.929 -0.1783 -2.3491  1.8831
10931TIP3   OH254207   5.918   4.474  11.315 -0.4434 -0.6371  0.6778
10931TIP3    H154208   5.886   4.408  11.253  1.3337 -0.6102 -0.3063
10931TIP3    H254209   5.864   4.551  11.298 -1.4816 -1.3330  0.7504
10932TIP3   OH254210   6.095   4.751   5.400  0.0279 -0.2296  0.0950
10932TIP3    H154211   6.094   4.664   5.361  1.1616 -0.8376  1.3705
10932TIP3    H254212   6.186   4.764   5.427  0.3296  2.1276 -1.7718
10933TIP3   OH254213   4.512   0.078  15.429 -0.1712 -0.0155 -0.1115
10933TIP3    H154214   4.558   0.126  15.498 -0.1046 -0.1635 -0.0528
10933TIP3    H254215   4.579   0.062  15.363 -0.2141  0.0466 -0.1693
10934TIP3   OH254216   3.561   0.180   1.761 -0.3395 -0.4411  0.5471
10934TIP3    H154217   3.636   0.123   1.774 -0.3579 -0.7547 -0.6596
10934TIP3    H254218   3.506   0.133   1.698  0.1948  1.4135 -1.3719
10935TIP3   OH254219   2.851   2.329  13.453 -0.1123  0.1606  0.1574
10935TIP3    H154220   2.926   2.380  13.422 -1.1505  1.0834 -0.8794
10935TIP3    H254221   2.833   2.364  13.540 -0.5042  1.2261 -0.3473
10936TIP3   OH254222   0.504   3.562   6.171 -0.9215  0.0338  1.0798
10936TIP3    H154223   0.436   3.509   6.213  0.5495 -1.6508  1.3838
10936TIP3    H254224   0.582   3.507   6.173  0.2054  1.5460 -0.1890
10937TIP3   OH254225   2.710   0.252   0.218 -0.1079 -0.4491  0.3552
10937TIP3    H154226   2.747   0.188   0.280  1.3887  0.3602  0.3124
10937TIP3    H254227   2.786   0.289   0.174 -1.1349 -0.7148 -1.7004
10938TIP3   OH254228   3.438   3.457  14.927  0.2013  0.0784  0.0791
10938TIP3    H154229   3.473   3.473  14.839  1.2744 -1.9461  0.1023
10938TIP3    H254230   3.477   3.526  14.981 -2.0158  2.5231 -1.3732
10939TIP3   OH254231   5.627   4.762  15.585  0.2112 -0.0389  0.1527
10939TIP3    H154232   5.594   4.788  15.671 -0.5893 -2.6563  0.7060
10939TIP3    H254233   5.548   4.735  15.537  0.6461  1.4118 -1.4209
10940TIP3   OH254234   3.443   0.790   5.559  0.0846  0.2361  0.2044
10940TIP3    H154235   3.437   0.814   5.652  1.2908  2.4034 -0.2612
10940TIP3    H254236   3.456   0.695   5.560 -2.0095 -0.0766  2.1740
10941TIP3   OH254237   1.346   3.992   2.034  0.1702 -0.4710 -0.5993
10941TIP3    H154238   1.398   3.916   2.006  0.9925 -0.3038  0.4349
10941TIP3    H254239   1.263   3.955   2.062  0.0762 -0.8488 -1.3587
10942TIP3   OH254240   1.184   3.161   1.878  0.3454  0.2743 -0.0102
10942TIP3    H154241   1.249   3.117   1.823  2.3789  3.3648 -0.2121
10942TIP3    H254242   1.138   3.220   1.818 -1.1825 -0.3035  0.5730
10943TIP3   OH254243   2.834   4.421  16.107  0.1782  0.1100  0.4978
10943TIP3    H154244   2.764   4.370  16.066 -0.7005  1.5897  0.1197
10943TIP3    H254245   2.816   4.414  16.201  0.0748 -0.2671  0.4550
10944TIP3   OH254246   0.000   5.641  16.531  0.2162  0.2251  0.4449
10944TIP3    H154247   0.021   5.626  16.623  0.2491  0.1617  0.4283
10944TIP3    H254248   0.085   5.656  16.490  0.3651 -1.4716  0.1122
10945TIP3   OH254249   3.669   0.655  14.232  0.0638  0.4148  0.2535
10945TIP3    H154250   3.585   0.645  14.275 -0.4754 -1.6732 -1.2026
10945TIP3    H254251   3.727   0.691  14.299 -2.3912  3.5625  0.7758
10946TIP3   OH254252   2.171   4.178   6.127 -0.3723 -0.3257  0.3747
10946TIP3    H154253   2.242   4.116   6.142 -0.5103 -0.6458 -0.2769
10946TIP3    H254254   2.148   4.210   6.214  2.9459  2.4533  0.3427
10947TIP3   OH254255   3.272   6.059   0.272 -0.0899  0.0558 -0.0287
10947TIP3    H154256   3.183   6.025   0.269  0.3864 -1.1329 -1.0069
10947TIP3    H254257   3.325   5.994   0.227  1.2402  0.8888  0.2748
10948TIP3   OH254258   3.290   2.652  12.861  1.0683  0.5216 -0.2716
10948TIP3    H154259   3.220   2.714  12.842 -0.0438 -0.2426  1.2122
10948TIP3    H254260   3.252   2.566  12.840  1.3262  0.0449  1.1775
10949TIP3   OH254261   3.398   2.661   2.226 -0.0082  0.2094  0.2502
10949TIP3    H154262   3.429   2.743   2.264  0.5088  0.1703 -0.0918
10949TIP3    H254263   3.327   2.634   2.285  0.6659  0.2463  1.1021
10950TIP3   OH254264   6.316   3.018   6.390  0.2249  0.1613 -0.2442
10950TIP3    H154265   6.372   3.085   6.351 -0.9600  2.0385  1.2095
10950TIP3    H254266   6.234   3.025   6.342 -0.3476  0.6577  0.8039
10951TIP3   OH254267   6.132   6.484   6.610 -0.3663 -0.0376 -0.1311
10951TIP3    H154268   6.162   6.572   6.584 -1.3061 -0.3080 -2.2238
10951TIP3    H254269   6.048   6.500   6.653 -1.7431 -0.0829 -2.7083
10952TIP3   OH254270   3.700   5.897  13.933 -0.3716  0.0479  0.4420
10952TIP3    H154271   3.608   5.911  13.952 -0.2855  0.0453  0.8588
10952TIP3    H254272   3.719   5.958  13.861 -0.3861  0.9528  1.1918
10953TIP3   OH254273   6.616   2.457   3.245 -0.2005 -0.5847 -0.6708
10953TIP3    H154274   6.656   2.444   3.159 -0.9655  0.5291 -1.1968
10953TIP3    H254275   6.678   2.514   3.291  0.5615 -1.7535 -0.2147
10954TIP3   OH254276   6.180   0.115   2.877  0.2850  0.6292 -0.4782
10954TIP3    H154277   6.088   0.109   2.853  0.3494  0.4290 -0.6808
10954TIP3    H254278   6.180   0.138   2.970  0.0331  1.6512 -0.7205
10955TIP3   OH254279   0.246   2.128   3.096 -0.2016  0.3133 -0.2079
10955TIP3    H154280   0.209   2.047   3.061 -0.7127  0.4168  0.0887
10955TIP3    H254281   0.337   2.106   3.117 -0.4596 -0.3025  0.2653
10956TIP3   OH254282   0.563   4.617  16.161  0.3430  1.0574  0.8282
10956TIP3    H154283   0.577   4.524  16.175  1.3463  1.5472  3.5140
10956TIP3    H254284   0.504   4.643  16.233  0.1034  2.4917  0.1273
10957TIP3   OH254285   1.416   4.714  11.576  0.2021 -0.3617 -0.5712
10957TIP3    H154286   1.436   4.700  11.483 -1.3657 -1.3463 -0.7707
10957TIP3    H254287   1.355   4.787  11.577 -0.2558 -0.7419 -0.3723
10958TIP3   OH254288   4.372   0.642  11.827  0.0604 -0.2421 -0.2225
10958TIP3    H154289   4.447   0.696  11.800 -0.7944  1.5721  0.9496
10958TIP3    H254290   4.328   0.694  11.894 -0.9918 -2.2690  0.6998
10959TIP3   OH254291   0.188   3.800   5.359  0.1424  0.6454  0.3242
10959TIP3    H154292   0.124   3.856   5.403 -0.2898  0.6545 -0.3087
10959TIP3    H254293   0.245   3.768   5.429 -2.2188 -1.6070  1.2866
10960TIP3   OH254294   3.880   0.223  15.280  0.4834 -0.0636  0.6382
10960TIP3    H154295   3.967   0.259  15.262  0.7729 -0.7018  0.7648
10960TIP3    H254296   3.832   0.237  15.198  0.7304  0.2063  0.5368
10961TIP3   OH254297   0.398   5.077   0.087  0.6040  0.1100 -0.0796
10961TIP3    H154298   0.426   5.027   0.164  1.0482  3.0988  1.7638
10961TIP3    H254299   0.478   5.116   0.054 -0.0927  1.7064  0.0748
10962TIP3   OH254300   5.157   2.336  15.090 -0.1981  0.3758  0.7822
10962TIP3    H154301   5.101   2.264  15.062 -0.7486  2.1797 -3.1447
10962TIP3    H254302   5.245   2.310  15.063  0.1814 -0.3528  2.6337
10963TIP3   OH254303   6.487   4.105  11.893  0.5367 -0.4398 -0.1553
10963TIP3    H154304   6.555   4.123  11.827  0.8366  0.1884  0.3197
10963TIP3    H254305   6.406   4.130  11.850  1.0246  3.2482  0.8543
10964TIP3   OH254306   2.699   4.579   4.772  0.4642  0.1844 -0.0834
10964TIP3    H154307   2.633   4.511   4.787 -0.3145  0.9046 -0.1751
10964TIP3    H254308   2.681   4.611   4.684  0.5234  0.8317  0.1392
10965TIP3   OH254309   0.317   2.323  11.309 -0.3509 -0.2471  0.1244
10965TIP3    H154310   0.401   2.280  11.291  0.6967  1.5525  0.5726
10965TIP3    H254311   0.261   2.253  11.343 -0.1811 -2.2288 -3.4960
10966TIP3   OH254312   4.245   5.051   4.563 -0.1563  0.2566  0.0147
10966TIP3    H154313   4.216   5.115   4.627 -2.5793 -2.9808  2.3512
10966TIP3    H254314   4.275   4.977   4.615  3.9879 -0.0123 -2.5582
10967TIP3   OH254315   3.121   3.803  16.283  0.1681 -0.0509  1.0305
10967TIP3    H154316   3.129   3.752  16.364  3.3654 -0.5937  0.4300
10967TIP3    H254317   3.154   3.745  16.214  1.8457  2.0375  0.0208
10968TIP3   OH254318   2.377   5.355   6.581 -0.2204  0.3653 -0.1775
10968TIP3    H154319   2.313   5.286   6.599  1.8890 -0.9937  2.4301
10968TIP3    H254320   2.456   5.308   6.553  0.5151  1.8352 -0.6015
10969TIP3   OH254321   5.211   5.655  17.094 -0.1451  0.1190 -0.6332
10969TIP3    H154322   5.274   5.688  17.158 -1.5454 -0.1975  0.9275
10969TIP3    H254323   5.143   5.722  17.089 -3.3234 -2.6217  3.0230
10970TIP3   OH254324   1.152   1.533   3.460 -0.0942  0.3062 -0.1505
10970TIP3    H154325   1.131   1.611   3.407 -1.1779 -0.2968 -0.6324
10970TIP3    H254326   1.145   1.460   3.398  1.0026 -0.1686  0.2817
10971TIP3   OH254327   1.590   5.766   4.259  0.3321  0.2794 -0.2955
10971TIP3    H154328   1.566   5.793   4.171 -0.9567  2.0808  0.5688
10971TIP3    H254329   1.581   5.845   4.312 -1.5657 -1.3546  1.9490
10972TIP3   OH254330   0.293   4.068   4.100  0.0429 -0.0129  0.2638
10972TIP3    H154331   0.317   4.159   4.117 -0.6484  0.1742  0.2466
10972TIP3    H254332   0.214   4.073   4.046  0.6334 -0.6215 -0.6521
10973TIP3   OH254333   3.807   0.396  11.790  0.0124 -0.4241  0.5928
10973TIP3    H154334   3.738   0.377  11.854  1.7725 -1.0847  2.3663
10973TIP3    H254335   3.844   0.480  11.819  0.2147 -0.2758 -0.0958
10974TIP3   OH254336   3.585   4.680   2.196 -0.0444 -0.0216  0.2988
10974TIP3    H154337   3.649   4.637   2.253 -0.6194  1.1735  1.8882
10974TIP3    H254338   3.504   4.632   2.211  0.6317 -2.0980 -2.3756
10975TIP3   OH254339   4.324   1.832   3.894 -0.2724 -0.4752  0.4918
10975TIP3    H154340   4.369   1.749   3.875  0.5893 -0.0181  0.4860
10975TIP3    H254341   4.262   1.811   3.964  1.2609 -0.7299  1.8084
10976TIP3   OH254342   5.193   6.044   1.136 -0.1147 -0.2406 -0.3613
10976TIP3    H154343   5.271   6.099   1.142  0.6350 -1.3485  0.2690
10976TIP3    H254344   5.147   6.058   1.218  0.5054 -1.1814  0.1501
10977TIP3   OH254345   4.742   3.749  12.974  0.4271 -0.1141 -0.3297
10977TIP3    H154346   4.685   3.767  12.900  0.4524 -0.8884 -0.5443
10977TIP3    H254347   4.816   3.702  12.937  1.0208  0.5457  0.0072
10978TIP3   OH254348   3.086   4.788  14.708 -0.2386  0.8277 -0.1618
10978TIP3    H154349   3.029   4.733  14.762 -0.2513 -0.4548 -1.4660
10978TIP3    H254350   3.148   4.825  14.770 -0.9327  0.2497  0.9024
10979TIP3   OH254351   4.998   0.327   3.325 -0.0227 -0.3073 -0.0779
10979TIP3    H154352   5.008   0.360   3.414 -0.7121  2.7264 -1.0333
10979TIP3    H254353   4.903   0.324   3.311 -0.0251 -3.8868  0.3187
10980TIP3   OH254354   6.722   5.085  15.339 -0.4860  0.3245 -0.0711
10980TIP3    H154355   6.747   5.129  15.420 -0.0730 -0.7852  0.4194
10980TIP3    H254356   6.633   5.054  15.355 -0.5732  0.5102 -0.2072
10981TIP3   OH254357   2.064   4.852   4.481  0.1789  0.5789 -0.2396
10981TIP3    H154358   2.037   4.804   4.559 -0.9037  0.9120 -0.3900
10981TIP3    H254359   2.158   4.863   4.490 -0.0957  1.6153  1.5965
10982TIP3   OH254360   0.157   5.780   0.663  0.1914  0.2164  0.0463
10982TIP3    H154361   0.238   5.823   0.692 -0.8164  2.3735 -0.2079
10982TIP3    H254362   0.106   5.770   0.743  0.4524 -0.5479  0.1128
10983TIP3   OH254363   1.467   6.580  11.315  0.4681 -0.1983  0.6370
10983TIP3    H154364   1.462   6.501  11.261  0.2164 -0.4732  1.0580
10983TIP3    H254365   1.533   6.560  11.381 -0.7737 -0.6901  1.7581
10984TIP3   OH254366   1.360   1.824  11.053  0.7979 -0.1579  0.2771
10984TIP3    H154367   1.294   1.761  11.082  0.0251  0.5371  0.0232
10984TIP3    H254368   1.368   1.809  10.959  1.8306 -1.0118  0.4834
10985TIP3   OH254369   0.854   0.433   5.044 -0.1065  0.5296  0.2893
10985TIP3    H154370   0.807   0.515   5.026  0.6093  0.6290 -1.1960
10985TIP3    H254371   0.795   0.364   5.013 -0.3890  0.5257  0.8413
10986TIP3   OH254372   0.095   4.529  14.661 -0.1838 -0.6850  0.2035
10986TIP3    H154373   0.144   4.528  14.743  0.7061 -2.6603 -0.3291
10986TIP3    H254374   0.016   4.479  14.680 -1.4157  1.3672  0.6738
10987TIP3   OH254375   5.090   5.455  15.691  0.1863  0.5934 -0.4343
10987TIP3    H154376   5.005   5.418  15.666  0.6390 -0.2037 -0.8351
10987TIP3    H254377   5.074   5.549  15.700 -1.0701  0.2659  0.9561
10988TIP3   OH254378   6.204   4.273   5.956 -0.4066 -0.0954  0.3697
10988TIP3    H154379   6.139   4.319   6.009 -1.3604 -0.8144 -0.1415
10988TIP3    H254380   6.194   4.181   5.981  1.4836 -0.0326  1.3945
10989TIP3   OH254381   5.300   0.032   3.876 -0.3434  0.4568  0.3028
10989TIP3    H154382   5.258  -0.045   3.914 -0.4441  0.4679  0.2134
10989TIP3    H254383   5.322   0.087   3.952 -3.8373  2.1954  0.1907
10990TIP3   OH254384   4.298   2.425   2.356 -1.1267  0.2149  0.0094
10990TIP3    H154385   4.250   2.411   2.438  0.0355 -1.3178  0.4533
10990TIP3    H254386   4.274   2.350   2.301 -0.6782  0.4028 -0.4470
10991TIP3   OH254387   1.508   2.153   4.330 -0.5945 -0.0217  0.1022
10991TIP3    H154388   1.503   2.081   4.392 -0.1010  0.2368  0.4471
10991TIP3    H254389   1.484   2.230   4.380 -1.6949 -0.0141 -0.4100
10992TIP3   OH254390   2.030   4.779  14.012 -0.2364  0.5843 -0.3344
10992TIP3    H154391   2.029   4.796  13.918  0.7726  1.7228 -0.1598
10992TIP3    H254392   2.059   4.862  14.051  0.6936 -0.2790  0.8680
10993TIP3   OH254393   0.686   2.727   0.109  0.2823  0.4547 -0.0644
10993TIP3    H154394   0.760   2.786   0.096  0.4958  0.5747  1.6048
10993TIP3    H254395   0.638   2.765   0.183 -0.9818 -0.0801 -0.5979
10994TIP3   OH254396   3.597   0.492   5.054 -0.4965 -0.1261 -0.3541
10994TIP3    H154397   3.507   0.477   5.023 -0.1026 -0.8733 -1.1830
10994TIP3    H254398   3.626   0.570   5.006 -0.1711 -0.8057 -1.2900
10995TIP3   OH254399   1.923   6.273  12.821  0.1827 -0.4298  0.5122
10995TIP3    H154400   1.988   6.329  12.862 -0.0313 -0.5865  1.0803
10995TIP3    H254401   1.839   6.311  12.846  0.0316 -1.1940  1.1846
10996TIP3   OH254402   5.874   4.466  14.087  0.4703  0.3049  0.1297
10996TIP3    H154403   5.905   4.496  14.173  2.1352 -0.6557 -0.1159
10996TIP3    H254404   5.895   4.538  14.027  1.5710 -0.0571  0.0880
10997TIP3   OH254405   5.736   5.002   4.021  0.9560 -0.3401 -0.1699
10997TIP3    H154406   5.688   4.940   4.075  1.2581  0.3207  0.8655
10997TIP3    H254407   5.704   4.985   3.932  0.0958 -1.0964  0.2692
10998TIP3   OH254408   2.493   4.953   2.807 -0.4566  0.1034 -0.4815
10998TIP3    H154409   2.439   5.027   2.779 -1.3715 -0.2421  0.3225
10998TIP3    H254410   2.464   4.880   2.751 -2.2591 -0.5785  1.2801
10999TIP3   OH254411   6.340   1.932   1.879  0.4062 -0.3715 -0.1253
10999TIP3    H154412   6.392   1.987   1.938  0.5605 -1.2641  0.5643
10999TIP3    H254413   6.402   1.904   1.812  0.4880 -0.2905 -0.0836
11000TIP3   OH254414   4.766   2.614   4.376  0.3793  0.2294 -0.0408
11000TIP3    H154415   4.857   2.609   4.407 -0.1054 -0.2269  1.3624
11000TIP3    H254416   4.729   2.690   4.422 -0.2334 -0.2060  0.1926
11001TIP3   OH254417   2.263   0.370   2.012  0.2983  0.4916 -1.0453
11001TIP3    H154418   2.325   0.428   2.056  1.1298 -0.2167 -1.2693
11001TIP3    H254419   2.285   0.282   2.044 -0.6697  0.2490 -1.0300
11002TIP3   OH254420   4.773   4.132   4.549 -0.4018  0.2107  0.1049
11002TIP3    H154421   4.689   4.176   4.560  0.1578  1.5876 -0.8981
11002TIP3    H254422   4.771   4.097   4.460  0.2379  0.6090 -0.0696
11003TIP3   OH254423   2.245   0.850  11.134  0.2579  0.1824 -0.5177
11003TIP3    H154424   2.260   0.774  11.190  0.1736 -0.0162 -0.7620
11003TIP3    H254425   2.157   0.837  11.099  0.5576 -0.0241 -1.1996
11004TIP3   OH254426   1.423   6.265   2.344 -0.3897  0.2274 -0.6181
11004TIP3    H154427   1.359   6.333   2.324  1.7767  3.4290  2.4958
11004TIP3    H254428   1.472   6.253   2.263 -0.2858  3.0291 -1.0195
11005TIP3   OH254429   1.032   1.553   4.153 -0.0734  0.0381 -0.5894
11005TIP3    H154430   1.090   1.523   4.083  0.3947 -0.4007 -0.0200
11005TIP3    H254431   1.060   1.503   4.230 -1.9596 -1.0676 -0.5709
11006TIP3   OH254432   2.623   2.061   4.204 -0.4784 -0.1401  0.2363
11006TIP3    H154433   2.644   1.971   4.227  1.2240  0.4811  1.2574
11006TIP3    H254434   2.708   2.105   4.200 -1.1739  1.0655 -1.8002
11007TIP3   OH254435   2.263   3.337   0.751  0.3577  0.4244 -0.3637
11007TIP3    H154436   2.173   3.306   0.754  0.4456  0.1109 -0.8263
11007TIP3    H254437   2.272   3.378   0.664  0.3077  1.5552  0.1589
11008TIP3   OH254438   6.120   5.726  13.150  0.7860  0.6895 -0.2507
11008TIP3    H154439   6.116   5.800  13.090  0.3068 -0.0291 -1.1106
11008TIP3    H254440   6.038   5.679  13.137  1.2813 -0.2509 -0.0489
11009TIP3   OH254441   1.962   1.115  11.638 -0.4464  0.1965  0.4448
11009TIP3    H154442   1.974   1.074  11.723  2.4730  1.6312  0.8013
11009TIP3    H254443   1.992   1.049  11.575 -0.7891 -0.1673  0.6673
11010TIP3   OH254444   2.237   6.536  15.536 -0.7178 -0.5236  0.1425
11010TIP3    H154445   2.174   6.483  15.487 -2.3195  0.4348  1.1281
11010TIP3    H254446   2.234   6.622  15.495 -0.2577 -0.3870  0.3855
11011TIP3   OH254447   0.305   2.928   2.213 -1.0162 -0.1080 -0.0614
11011TIP3    H154448   0.375   2.936   2.277 -0.3101  0.3316 -0.8778
11011TIP3    H254449   0.227   2.907   2.265 -0.2124 -0.9942  0.8119
11012TIP3   OH254450   2.916   2.312  15.448  0.5358  0.1058  0.2234
11012TIP3    H154451   2.869   2.385  15.408 -2.4796 -1.1519  1.3399
11012TIP3    H254452   2.950   2.346  15.530 -2.7131 -0.2962  1.7739
11013TIP3   OH254453   6.732   0.234   4.071 -0.1770  0.3396  0.0001
11013TIP3    H154454   6.823   0.204   4.068 -0.1994  0.3213 -0.4716
11013TIP3    H254455   6.685   0.176   4.012 -0.9313 -1.1152  2.0118
11014TIP3   OH254456   5.167   4.144   3.599 -0.1418 -0.7963  0.2935
11014TIP3    H154457   5.114   4.217   3.630 -0.2000 -0.0134 -1.5964
11014TIP3    H254458   5.239   4.185   3.551  0.1276 -1.9515 -0.3085
11015TIP3   OH254459   3.840   6.330  12.923 -0.0869  0.8648  0.6957
11015TIP3    H154460   3.764   6.274  12.937 -0.8772  1.3092 -1.6735
11015TIP3    H254461   3.910   6.270  12.899 -0.4378  0.7152  0.0445
11016TIP3   OH254462   3.872   6.471  14.015  0.3718  0.4168 -0.1322
11016TIP3    H154463   3.819   6.466  14.095  0.2709 -3.6148 -0.3521
11016TIP3    H254464   3.808   6.472  13.944  0.5194  0.5291 -0.2665
11017TIP3   OH254465   4.919   2.652   3.594  0.0987 -0.3880  0.2924
11017TIP3    H154466   4.947   2.564   3.618  4.1686  0.5963 -0.4631
11017TIP3    H254467   4.956   2.708   3.663 -1.9408  0.8300  0.4407
11018TIP3   OH254468   5.191   0.785  16.856 -0.1279 -0.2120  0.0979
11018TIP3    H154469   5.126   0.848  16.825 -0.5917 -0.3976  0.6720
11018TIP3    H254470   5.189   0.714  16.792  0.8566  0.6491 -0.8973
11019TIP3   OH254471   2.355   0.253   4.146  0.4762  0.5550 -0.0564
11019TIP3    H154472   2.286   0.211   4.198  0.2135 -0.3567 -1.1211
11019TIP3    H254473   2.309   0.321   4.097  0.0756 -0.9426 -1.7898
11020TIP3   OH254474   5.098   5.902  14.074  0.1757 -0.5412 -0.3199
11020TIP3    H154475   5.116   5.810  14.094 -0.5161 -0.2551  1.7876
11020TIP3    H254476   5.172   5.949  14.113 -0.0202 -0.1372 -0.4338
11021TIP3   OH254477   1.731   1.307   2.044 -0.5620 -0.2527 -0.5239
11021TIP3    H154478   1.778   1.229   2.013  0.8827 -0.2867  1.6361
11021TIP3    H254479   1.681   1.276   2.120  0.5504  1.0390  0.7672
11022TIP3   OH254480   1.058   2.887  15.857 -0.2747  0.2349  0.1713
11022TIP3    H154481   1.137   2.854  15.813  0.2809  0.3657  1.0555
11022TIP3    H254482   1.091   2.930  15.936 -1.1798  0.9509  0.1638
11023TIP3   OH254483   1.073   0.425   0.656 -0.6413 -0.3275  0.4944
11023TIP3    H154484   1.020   0.468   0.590 -0.2863  1.0745  1.1076
11023TIP3    H254485   1.152   0.478   0.662  0.6814 -2.1750 -0.1286
11024TIP3   OH254486   2.172   5.638   0.329  0.2244  0.3312  0.3497
11024TIP3    H154487   2.201   5.585   0.254  0.2467 -0.8947  1.2069
11024TIP3    H254488   2.244   5.700   0.344  0.1663  0.6615 -0.7196
11025TIP3   OH254489   4.239   4.080  13.175  0.0119  0.2384  0.1712
11025TIP3    H154490   4.333   4.073  13.160 -0.2188 -0.6296 -0.9069
11025TIP3    H254491   4.203   4.000  13.138 -1.3155  1.2553 -0.7559
11026TIP3   OH254492   2.816   1.397  15.211 -0.1518  0.3234  0.6396
11026TIP3    H154493   2.843   1.440  15.292  0.8558  1.7915 -0.4572
11026TIP3    H254494   2.890   1.409  15.151 -1.4602  0.5319 -0.9710
11027TIP3   OH254495   0.950   3.218   3.996  0.0738  0.3982 -0.3217
11027TIP3    H154496   0.898   3.290   3.961 -0.1226 -0.1198 -1.1189
11027TIP3    H254497   1.031   3.220   3.944 -0.5241 -0.8345 -1.3334
11028TIP3   OH254498   0.461   3.184  15.346 -0.3462 -0.1128  0.0994
11028TIP3    H154499   0.366   3.195  15.355 -0.1103  0.1634  2.7447
11028TIP3    H254500   0.471   3.109  15.288 -2.2404 -1.3781  1.3302
11029TIP3   OH254501   1.084   5.764  15.754  0.0493  0.2785 -0.4161
11029TIP3    H154502   1.047   5.778  15.841 -0.5551 -0.8369 -0.4919
11029TIP3    H254503   1.127   5.679  15.759 -0.2985  0.0393 -1.3156
11030TIP3   OH254504   2.983   5.032  10.846 -0.1952  0.8179  0.1312
11030TIP3    H154505   3.038   5.026  10.768  1.5315 -1.7201  1.4527
11030TIP3    H254506   2.913   5.092  10.822  0.1844 -0.0650 -3.4294
11031TIP3   OH254507   0.416   4.359  12.223 -0.7101  0.1766  0.2125
11031TIP3    H154508   0.409   4.366  12.318  0.6213  0.8658  0.2766
11031TIP3    H254509   0.381   4.442  12.191  1.1460  1.0095  0.2437
11032TIP3   OH254510   6.006   4.716  10.372 -0.2175 -0.1587 -0.1498
11032TIP3    H154511   6.076   4.781  10.386 -1.6392  1.4044 -0.0999
11032TIP3    H254512   6.048   4.647  10.321  1.4594  0.5859  0.1495
11033TIP3   OH254513   2.211   4.898   0.436 -0.2693 -0.1135 -0.1244
11033TIP3    H154514   2.241   4.853   0.515 -0.0439 -0.2257 -0.2728
11033TIP3    H254515   2.123   4.928   0.458  0.0557  0.4602  0.4150
11034TIP3   OH254516   4.059   2.882  16.133  0.3495 -0.2958 -0.2208
11034TIP3    H154517   4.003   2.891  16.210 -0.5278  1.7960 -1.0559
11034TIP3    H254518   4.004   2.837  16.069  0.2080  0.2107 -0.4580
11035TIP3   OH254519   4.564   6.649  17.073  0.2063 -0.6106  0.6959
11035TIP3    H154520   4.530   6.612  17.155 -0.8312  1.1379  1.0812
11035TIP3    H254521   4.631   6.712  17.101  1.4966 -1.6813  0.0769
11036TIP3   OH254522   0.033   3.131  14.817  0.6009  0.5160 -0.2354
11036TIP3    H154523   0.085   3.210  14.833 -0.6222  1.4051 -0.6323
11036TIP3    H254524   0.020   3.130  14.722 -1.2622  1.0487 -0.0055
11037TIP3   OH254525   0.044   2.289   4.874  0.3733 -0.0947  0.1876
11037TIP3    H154526   0.080   2.243   4.950  0.7406  1.7372  1.1533
11037TIP3    H254527   0.101   2.263   4.802  0.6393 -1.0581  0.7334
11038TIP3   OH254528   5.009   0.725   1.295 -0.1966  0.1227  0.1061
11038TIP3    H154529   5.018   0.684   1.209 -0.6685 -0.0771  0.1498
11038TIP3    H254530   4.942   0.673   1.339  0.3876 -0.0820  0.7757
11039TIP3   OH254531   2.262   3.726  13.412 -0.1837  0.2143  0.1696
11039TIP3    H154532   2.269   3.686  13.325 -0.3974 -0.4966  0.4800
11039TIP3    H254533   2.248   3.819  13.394 -0.3414  0.0513 -0.5617
11040TIP3   OH254534   1.835   0.826   4.531 -0.1271 -0.2584  0.2473
11040TIP3    H154535   1.906   0.803   4.591 -0.0748  0.7392  0.5684
11040TIP3    H254536   1.832   0.753   4.468  1.9740  0.2715 -0.4972
11041TIP3   OH254537   1.679   5.540   1.591  0.8556  0.0995  0.0674
11041TIP3    H154538   1.693   5.629   1.623  0.6710  0.7184 -1.5417
11041TIP3    H254539   1.716   5.540   1.503  1.2516 -1.5480  0.2139
11042TIP3   OH254540   0.920   1.598  16.814  0.0863 -0.5766  0.1746
11042TIP3    H154541   0.889   1.663  16.878 -0.2731 -0.3329 -0.2444
11042TIP3    H254542   0.840   1.563  16.775  0.3105 -0.5587 -0.3031
11043TIP3   OH254543   1.977   0.746   1.013  0.4716  0.4169  0.6680
11043TIP3    H154544   1.941   0.720   0.928 -0.3146 -1.4362  1.5242
11043TIP3    H254545   1.957   0.839   1.021 -1.8648  0.0145 -0.0289
11044TIP3   OH254546   5.194   4.400   0.124 -0.0938 -0.4642  0.2444
11044TIP3    H154547   5.244   4.480   0.118 -0.8201  0.0169  0.5064
11044TIP3    H254548   5.160   4.399   0.213  0.1435 -1.2055  0.3341
11045TIP3   OH254549   0.143   5.669  15.574  0.1219  0.8734  0.3582
11045TIP3    H154550   0.201   5.647  15.501 -0.2687  0.8817  0.0438
11045TIP3    H254551   0.129   5.763  15.567 -2.0947  0.4594 -1.1800
11046TIP3   OH254552   4.864   0.403  11.708  0.2681 -0.0943 -0.0087
11046TIP3    H154553   4.864   0.308  11.704 -3.3337 -0.1559 -0.2613
11046TIP3    H254554   4.825   0.424  11.793  1.7904  1.1695  0.3959
11047TIP3   OH254555   4.434   0.362   0.268 -0.4131  0.4068  0.6611
11047TIP3    H154556   4.376   0.353   0.193  1.1503 -1.4843 -0.3734
11047TIP3    H254557   4.375   0.360   0.344 -1.8948  1.0762 -0.4523
11048TIP3   OH254558   1.487   0.797  16.320 -0.1818  0.1284  0.7458
11048TIP3    H154559   1.401   0.838  16.333 -0.5538 -0.9344  1.7116
11048TIP3    H254560   1.468   0.713  16.278  0.5117  0.5580 -0.4522
11049TIP3   OH254561   5.034   0.318   6.217 -0.2195 -0.4170 -0.1299
11049TIP3    H154562   5.031   0.384   6.285 -0.2785 -1.1911  0.6275
11049TIP3    H254563   4.973   0.250   6.246 -0.6734 -0.4822 -1.2272
11050TIP3   OH254564   1.918   4.589  14.187  0.3313  0.0768 -0.3747
11050TIP3    H154565   1.950   4.641  14.112  2.1642  1.2442  1.1809
11050TIP3    H254566   1.997   4.560  14.232 -0.7572  0.3884  1.7911
11051TIP3   OH254567   3.338   5.383   0.795  0.1501  0.3021  0.2338
11051TIP3    H154568   3.305   5.438   0.865 -0.7611  0.3095 -0.2020
11051TIP3    H254569   3.304   5.295   0.814 -0.5775  0.4167 -0.5008
11052TIP3   OH254570   3.899   1.239  14.947 -0.2526  0.2311  0.4489
11052TIP3    H154571   3.906   1.335  14.943  1.1816  0.0980 -0.5022
11052TIP3    H254572   3.836   1.223  15.017  0.7870  1.8406  1.8156
11053TIP3   OH254573   0.585   4.036   0.521 -0.2405  0.6651 -0.6303
11053TIP3    H154574   0.508   4.087   0.545  0.0493  1.0924 -0.6134
11053TIP3    H254575   0.595   4.050   0.427 -0.1283  0.6795 -0.6159
11054TIP3   OH254576   1.825   1.626  14.495  0.0809 -0.4457  0.0363
11054TIP3    H154577   1.870   1.642  14.579 -0.8238  1.5614  0.1816
11054TIP3    H254578   1.881   1.667  14.430 -1.4602  2.0875  0.2187
11055TIP3   OH254579   2.414   3.065  10.819  0.5956 -0.5587 -0.3648
11055TIP3    H154580   2.472   3.005  10.772 -1.3458 -0.6142 -2.8385
11055TIP3    H254581   2.406   3.141  10.760 -1.8781 -0.6178 -0.1442
11056TIP3   OH254582   0.070   2.967  16.195 -0.0783  0.9241 -0.6559
11056TIP3    H154583   0.119   3.002  16.121  3.5437  2.3387  2.2825
11056TIP3    H254584   0.078   3.034  16.263 -2.4090 -0.8093  1.4364
11057TIP3   OH254585   2.836   4.846  15.305 -0.0109 -0.0377 -0.4947
11057TIP3    H154586   2.879   4.908  15.245  2.2113 -1.7916 -0.7900
11057TIP3    H254587   2.794   4.783  15.248 -0.7852  0.2054 -0.1919
11058TIP3   OH254588   0.218   0.905  15.361 -0.0682  0.1512  0.1545
11058TIP3    H154589   0.200   0.997  15.383 -2.6458 -0.4196  0.6318
11058TIP3    H254590   0.132   0.863  15.366  0.6340 -1.7301 -2.7821
11059TIP3   OH254591   3.156   2.807  16.624  0.1842  0.0185 -0.2668
11059TIP3    H154592   3.080   2.755  16.647  1.0546 -1.2822 -0.2696
11059TIP3    H254593   3.140   2.892  16.665 -1.9765  0.2639 -1.5716
11060TIP3   OH254594   1.146   2.750   1.961 -0.4916 -0.4078 -0.7460
11060TIP3    H154595   1.111   2.691   1.895  1.5308 -0.4199 -1.8389
11060TIP3    H254596   1.207   2.806   1.914 -0.0866  0.5333  0.8531
11061TIP3   OH254597   3.944   1.682   1.842 -0.3238  0.2130  0.2667
11061TIP3    H154598   3.865   1.635   1.817 -0.8840  0.5733  1.3061
11061TIP3    H254599   3.923   1.775   1.828 -0.2822  0.3449  1.0604
11062TIP3   OH254600   0.370   1.816   1.812 -0.6616 -0.4210 -0.6979
11062TIP3    H154601   0.460   1.839   1.835 -1.0433  0.7228 -0.3042
11062TIP3    H254602   0.371   1.721   1.803  0.8882 -0.3070 -2.0162
11063TIP3   OH254603   4.684   0.012   5.452  0.2880 -0.3637 -0.2568
11063TIP3    H154604   4.758  -0.033   5.410 -0.0688 -1.1896 -0.0197
11063TIP3    H254605   4.627   0.036   5.379  1.0055  0.6712 -0.4775
11064TIP3   OH254606   5.350   0.931   0.071 -0.2217 -0.2145  0.1910
11064TIP3    H154607   5.361   0.889  -0.014 -3.0590 -1.9633  0.6301
11064TIP3    H254608   5.404   0.878   0.131  0.3955 -0.0349 -0.2053
11065TIP3   OH254609   5.145   5.888  15.967  0.7176  0.2723 -0.4644
11065TIP3    H154610   5.211   5.931  15.912  0.4400  1.0347 -0.2115
11065TIP3    H254611   5.175   5.903  16.057 -0.1987  1.3043 -0.3141
11066TIP3   OH254612   5.856   6.732   6.623  0.3826  0.2620 -0.6966
11066TIP3    H154613   5.763   6.755   6.628  0.2928 -0.2577  0.1190
11066TIP3    H254614   5.861   6.642   6.656  1.0282 -0.1095 -1.7763
11067TIP3   OH254615   0.526   2.125  12.357 -0.1442 -0.1346  0.5304
11067TIP3    H154616   0.550   2.094  12.270  1.5987 -1.3436  1.4222
11067TIP3    H254617   0.444   2.081  12.377 -0.5521  0.1493 -0.4850
11068TIP3   OH254618   1.182   4.876  11.688  0.1021 -0.4415 -0.1798
11068TIP3    H154619   1.121   4.856  11.759 -2.0601 -0.3264 -1.9216
11068TIP3    H254620   1.231   4.952  11.718  1.0707 -1.9789  2.2455
11069TIP3   OH254621   6.535   2.914  14.236 -0.1868  0.2362 -0.3140
11069TIP3    H154622   6.536   2.828  14.195  2.5078  1.1877 -2.3378
11069TIP3    H254623   6.452   2.916  14.283  0.1316 -3.8361  0.6363
11070TIP3   OH254624   0.279   1.774  14.273 -0.2293 -0.1589  0.1860
11070TIP3    H154625   0.282   1.869  14.268  0.4180 -0.2899 -2.6384
11070TIP3    H254626   0.357   1.750  14.323  0.1807  0.7233 -0.0270
11071TIP3   OH254627   1.644   1.490   2.462 -0.1269 -0.6187 -0.0814
11071TIP3    H154628   1.552   1.508   2.445 -0.7132 -2.3595  1.0692
11071TIP3    H254629   1.691   1.539   2.395 -1.8996  0.1788 -0.7674
11072TIP3   OH254630   1.109   1.543  16.204  0.1329  0.4357  0.1760
11072TIP3    H154631   1.064   1.594  16.136  0.5778  0.8986  0.2229
11072TIP3    H254632   1.162   1.608  16.250 -0.1466  0.1168  0.9483
11073TIP3   OH254633   6.719   2.703  16.136 -0.4827  0.4724  0.3758
11073TIP3    H154634   6.806   2.674  16.111 -0.4813  1.2378 -0.4985
11073TIP3    H254635   6.676   2.726  16.054 -2.5220 -2.6655  0.4597
11074TIP3   OH254636   2.266   4.309   5.178  0.3645  0.5889 -0.1560
11074TIP3    H154637   2.310   4.235   5.220  0.4276  0.9569  0.4182
11074TIP3    H254638   2.211   4.268   5.111  0.9515  0.0695 -0.3308
11075TIP3   OH254639   2.742   0.429   2.251 -0.2754  0.5258  0.1314
11075TIP3    H154640   2.797   0.356   2.279 -0.3744  0.0944 -0.7722
11075TIP3    H254641   2.678   0.440   2.321  0.0980  0.1161  0.5388
11076TIP3   OH254642   6.624   1.795   6.090 -0.7494  0.3093 -0.9066
11076TIP3    H154643   6.643   1.881   6.127 -0.4276  0.8351 -2.2810
11076TIP3    H254644   6.682   1.735   6.137  0.8860  1.2123 -1.7523
11077TIP3   OH254645   3.851   5.099   4.533 -0.0825  0.2689  0.1921
11077TIP3    H154646   3.936   5.134   4.560 -0.9320  1.4813  1.3453
11077TIP3    H254647   3.793   5.116   4.607 -1.6954  0.7841 -1.1589
11078TIP3   OH254648   6.377   4.582   5.349  1.0485 -0.0437 -0.1583
11078TIP3    H154649   6.329   4.623   5.277 -1.1096 -0.6724  0.9049
11078TIP3    H254650   6.377   4.648   5.418 -1.4811 -1.3885  1.1605
11079TIP3   OH254651   1.752   1.524   0.384 -0.2090 -0.5589 -0.0046
11079TIP3    H154652   1.810   1.494   0.314 -0.6507  0.6326 -0.8971
11079TIP3    H254653   1.787   1.609   0.410 -1.3206 -0.0187 -0.2667
11080TIP3   OH254654   5.806   5.238   1.544  0.0314  0.1348 -1.0111
11080TIP3    H154655   5.712   5.241   1.529  0.0081  2.4137 -0.5879
11080TIP3    H254656   5.834   5.330   1.540  1.9210 -0.3235  0.7858
11081TIP3   OH254657   5.440   6.145   2.904  0.1272  0.1400  0.8428
11081TIP3    H154658   5.408   6.106   2.822 -1.5257  2.1197  0.5140
11081TIP3    H254659   5.406   6.086   2.972  0.1703 -0.6462  0.1933
11082TIP3   OH254660   4.576   0.671  13.574 -0.3335 -0.8806  0.0418
11082TIP3    H154661   4.633   0.729  13.624  1.5428 -0.9262 -1.9199
11082TIP3    H254662   4.491   0.714  13.574  0.7835  1.4020 -0.5572
11083TIP3   OH254663   6.445   3.101   1.348  0.1909 -0.1441  0.3905
11083TIP3    H154664   6.444   3.008   1.371 -0.7335 -0.4829 -0.9411
11083TIP3    H254665   6.477   3.102   1.257 -0.3840  0.7862  0.2041
11084TIP3   OH254666   1.178   1.172  11.703  0.9766  0.0159 -0.3065
11084TIP3    H154667   1.257   1.193  11.652  1.9951 -0.1082  1.1931
11084TIP3    H254668   1.107   1.177  11.639  2.4848 -2.4468 -2.2982
11085TIP3   OH254669   6.231   5.434  13.199 -0.5248 -0.0504  0.5045
11085TIP3    H154670   6.178   5.510  13.225  0.4445  0.9015 -0.2803
11085TIP3    H254671   6.249   5.389  13.282 -1.2712  0.4621  0.9577
11086TIP3   OH254672   4.434   0.954  15.524  0.4829 -0.2242  0.0782
11086TIP3    H154673   4.496   0.901  15.574 -0.7352 -1.9970 -0.2377
11086TIP3    H254674   4.411   1.026  15.582 -0.2526 -1.7715  1.7627
11087TIP3   OH254675   3.407   5.400   3.723 -0.0775  0.3715 -0.5361
11087TIP3    H154676   3.355   5.405   3.803  0.6750 -2.2935  0.1645
11087TIP3    H254677   3.361   5.456   3.661 -1.9624  0.6221  1.0557
11088TIP3   OH254678   2.558   3.557   6.037 -0.7943 -0.7988 -0.0074
11088TIP3    H154679   2.593   3.511   5.961  0.2480 -2.4196  1.4428
11088TIP3    H254680   2.496   3.496   6.076 -1.9190  0.3327  0.0093
11089TIP3   OH254681   2.644   6.384   1.985  0.1007  0.3560  0.4954
11089TIP3    H154682   2.556   6.420   2.000  0.8991  2.3559  0.4125
11089TIP3    H254683   2.664   6.337   2.066 -0.5183  0.9610  1.0075
11090TIP3   OH254684   6.235   3.202  14.242  0.0152  0.1165 -0.1065
11090TIP3    H154685   6.307   3.149  14.209  0.9439  0.6963  0.9323
11090TIP3    H254686   6.211   3.259  14.169 -0.0008 -0.7134 -0.7476
11091TIP3   OH254687   4.391   1.675   5.350 -0.2440 -0.3457 -0.1857
11091TIP3    H154688   4.412   1.583   5.368  0.1935  0.1747  2.1187
11091TIP3    H254689   4.300   1.685   5.374  0.4755  0.4732  2.3309
11092TIP3   OH254690   6.096   4.613  12.783 -0.1895  0.0910 -0.0943
11092TIP3    H154691   6.103   4.526  12.743 -0.1106  0.0804 -0.0581
11092TIP3    H254692   6.012   4.646  12.753 -1.3839 -1.0150  1.9398
11093TIP3   OH254693   1.977   4.247   3.923 -0.5720  0.1341  0.5380
11093TIP3    H154694   2.052   4.229   3.865 -1.2868  0.6045 -0.5525
11093TIP3    H254695   2.012   4.308   3.988 -0.3143  1.3741 -0.7222
11094TIP3   OH254696   2.494   3.976  10.986  0.1317  0.0260 -0.0976
11094TIP3    H154697   2.481   3.953  11.078 -1.6030  1.8096  0.1450
11094TIP3    H254698   2.581   4.017  10.984  0.0328  0.2933  0.8203
11095TIP3   OH254699   5.262   5.825  14.454  0.3395  0.5705 -0.2434
11095TIP3    H154700   5.315   5.875  14.517  1.5033  0.1813 -0.8919
11095TIP3    H254701   5.172   5.840  14.481  0.7417  1.8887  0.4164
11096TIP3   OH254702   2.480   2.097  15.364 -0.6677  0.2736  0.3242
11096TIP3    H154703   2.477   2.007  15.395 -0.4729  0.9929  2.5548
11096TIP3    H254704   2.564   2.130  15.396 -0.7629  1.2587 -0.4164
11097TIP3   OH254705   3.262   6.523  13.864 -0.5753 -0.1206 -0.1474
11097TIP3    H154706   3.335   6.473  13.901  0.3408  0.5215 -1.0659
11097TIP3    H254707   3.298   6.561  13.784 -1.4026  1.6517  0.3178
11098TIP3   OH254708   3.392   6.631  13.613  0.6645  0.1111  0.0424
11098TIP3    H154709   3.446   6.648  13.535  1.9653 -0.6962  0.7340
11098TIP3    H254710   3.410   6.704  13.671  2.1516 -0.8825  0.8588
11099TIP3   OH254711   0.608   1.765  11.283 -0.1345 -0.5951  0.6549
11099TIP3    H154712   0.612   1.860  11.270 -2.3549 -0.8835 -2.8087
11099TIP3    H254713   0.556   1.754  11.363  0.1223  1.1035  1.0705
11100TIP3   OH254714   0.464   6.337   1.684  0.5730 -0.2650  0.4747
11100TIP3    H154715   0.541   6.303   1.637  0.4801  0.1673  0.0123
11100TIP3    H254716   0.398   6.347   1.616  1.2417  2.8404  0.2335
11101TIP3   OH254717   6.588   3.142  14.549 -0.0229  0.1826  0.0889
11101TIP3    H154718   6.537   3.208  14.595  1.9102  0.2079  2.3051
11101TIP3    H254719   6.535   3.062  14.556 -0.7110  0.6692  0.5655
11102TIP3   OH254720   0.886   4.182   0.384 -0.1513  0.5266  0.5300
11102TIP3    H154721   0.891   4.191   0.479 -0.3320  0.6809  0.5267
11102TIP3    H254722   0.802   4.138   0.369 -0.2782  0.8009  0.4252
11103TIP3   OH254723   6.160   4.766  11.407 -0.4443  0.1502 -0.3754
11103TIP3    H154724   6.235   4.821  11.384 -0.0523 -1.1972 -2.4930
11103TIP3    H254725   6.193   4.677  11.403 -0.7367 -0.2650  4.3345
11104TIP3   OH254726   4.025   1.890   0.429  0.0566  0.0656 -0.0761
11104TIP3    H154727   3.968   1.890   0.507 -0.0129  0.7003 -0.1210
11104TIP3    H254728   4.029   1.798   0.403  0.0799 -0.1570  0.6794
11105TIP3   OH254729   2.176   2.805  12.566 -0.1591  0.3376 -0.1111
11105TIP3    H154730   2.200   2.850  12.647 -2.2399 -1.1511  1.3873
11105TIP3    H254731   2.205   2.863  12.496  2.4050  1.2722  1.6885
11106TIP3   OH254732   0.206   2.294   1.204 -0.0080  0.0785  0.1023
11106TIP3    H154733   0.115   2.309   1.229  0.2050 -1.8085  2.1268
11106TIP3    H254734   0.250   2.376   1.226 -0.8365  0.2979  0.9670
11107TIP3   OH254735   5.826   4.696  12.764  0.3076  0.4067 -0.1730
11107TIP3    H154736   5.815   4.710  12.670 -1.0775 -0.7295 -0.1916
11107TIP3    H254737   5.778   4.767  12.805 -0.3362  0.0595 -0.3201
11108TIP3   OH254738   0.109   6.527  16.855 -0.6071  0.0437  0.4843
11108TIP3    H154739   0.055   6.569  16.788  0.3740 -2.3747 -1.9432
11108TIP3    H254740   0.199   6.534  16.822 -0.1278 -1.3227  1.4385
11109TIP3   OH254741   5.888   0.944   2.943  0.3519  0.0322 -0.3631
11109TIP3    H154742   5.894   1.002   3.019 -0.1625 -0.1732 -0.1601
11109TIP3    H254743   5.837   0.869   2.974 -0.6974  0.3889 -1.1634
11110TIP3   OH254744   6.479   1.939  15.664 -0.5504  0.8007 -0.0140
11110TIP3    H154745   6.546   1.995  15.624 -1.3655  0.5477 -1.8015
11110TIP3    H254746   6.527   1.883  15.724  0.7293  1.1894 -0.6653
11111TIP3   OH254747   1.506   1.576  15.977  0.6563  0.4052  0.0985
11111TIP3    H154748   1.453   1.504  15.943 -0.5030  1.3499 -0.1481
11111TIP3    H254749   1.572   1.534  16.032 -0.4021 -0.7943  0.4757
11112TIP3   OH254750   5.048   4.901   5.091  0.4981  0.3349 -0.5620
11112TIP3    H154751   5.040   4.821   5.143  0.4585 -1.0878 -2.6801
11112TIP3    H254752   5.143   4.911   5.079  0.6608  1.9953  1.7073
11113TIP3   OH254753   6.745   6.571  13.973 -0.0581 -0.4692  0.1057
11113TIP3    H154754   6.787   6.491  13.943  0.2580 -0.5977  0.8790
11113TIP3    H254755   6.724   6.619  13.893  0.6679 -0.8544 -0.3190
11114TIP3   OH254756   6.037   1.593  16.465  0.0239  0.0669 -0.6389
11114TIP3    H154757   5.993   1.521  16.420  0.2170 -0.2502 -0.3167
11114TIP3    H254758   6.123   1.559  16.489 -0.8961 -0.5095  1.9542
11115TIP3   OH254759   1.620   0.217  13.091  0.2484 -0.1870 -0.0098
11115TIP3    H154760   1.653   0.304  13.068 -0.1972 -0.1951 -0.7054
11115TIP3    H254761   1.671   0.192  13.168  1.0030  0.3175 -0.3286
11116TIP3   OH254762   4.799   6.029  12.392 -0.3203  0.3158 -0.2493
11116TIP3    H154763   4.881   6.010  12.438  0.8976  2.1584 -1.5654
11116TIP3    H254764   4.730   5.998  12.450  1.2754 -0.0472  1.4781
11117TIP3   OH254765   2.276   2.538  16.461  0.2401  0.1981 -0.4276
11117TIP3    H154766   2.266   2.604  16.529  0.4748  0.5975 -0.7882
11117TIP3    H254767   2.256   2.455  16.506 -0.7794  0.5787 -0.1586
11118TIP3   OH254768   6.259   0.323   4.822  0.0452  0.3781  0.2576
11118TIP3    H154769   6.173   0.282   4.812 -0.2267  0.6710  1.3336
11118TIP3    H254770   6.287   0.299   4.911  2.2533 -1.9049 -1.0017
11119TIP3   OH254771   3.298   2.512   0.344  0.1852 -1.3700 -0.1096
11119TIP3    H154772   3.346   2.476   0.419 -1.0124  0.4487  1.5826
11119TIP3    H254773   3.363   2.563   0.297  1.2021 -3.3631 -0.9308
11120TIP3   OH254774   1.629   3.898   3.751 -0.6184 -0.3856 -0.5383
11120TIP3    H154775   1.545   3.909   3.795 -0.2340 -1.1650  0.4148
11120TIP3    H254776   1.694   3.935   3.811 -0.4720  2.1698 -2.2096
11121TIP3   OH254777   0.479   4.798   2.982 -0.5282 -0.5149  0.7439
11121TIP3    H154778   0.499   4.792   2.889  0.5143 -1.1227  0.9921
11121TIP3    H254779   0.444   4.887   2.994  2.1064  0.6375  0.2563
11122TIP3   OH254780   4.312   6.596   5.791 -0.6694  0.3464  0.0450
11122TIP3    H154781   4.221   6.615   5.768  0.1207  1.0182 -2.8199
11122TIP3    H254782   4.352   6.682   5.802 -0.1078  0.0728  0.1668
11123TIP3   OH254783   2.059   2.817   4.838 -0.4049  0.4894 -0.6306
11123TIP3    H154784   2.088   2.892   4.889  3.8586 -0.0485 -2.0052
11123TIP3    H254785   2.037   2.852   4.752  2.7881  0.1475 -1.6702
11124TIP3   OH254786   1.598   3.699   0.779  0.2979 -0.5221 -0.3789
11124TIP3    H154787   1.582   3.604   0.780  2.3109 -0.8950 -0.2550
11124TIP3    H254788   1.685   3.707   0.741  0.9015  1.1630  1.2828
11125TIP3   OH254789   5.143   4.423   1.796 -0.2526 -0.0321 -0.1917
11125TIP3    H154790   5.089   4.353   1.832 -2.1841  2.4655  1.9731
11125TIP3    H254791   5.233   4.389   1.798 -0.9423 -1.7636  2.4481
11126TIP3   OH254792   3.313   3.428   2.676 -0.1353 -0.0582  0.4562
11126TIP3    H154793   3.336   3.430   2.769 -0.6118 -0.5126  0.5828
11126TIP3    H254794   3.351   3.509   2.641 -0.0224  0.1555  1.0580
11127TIP3   OH254795   2.117   4.839  13.759 -0.1995 -0.2433  0.1165
11127TIP3    H154796   2.212   4.833  13.764 -0.2735 -0.2856  1.8539
11127TIP3    H254797   2.098   4.838  13.665  1.2988 -3.3957 -0.2250
11128TIP3   OH254798   2.675   4.896  11.171  0.3106 -0.1126  0.3608
11128TIP3    H154799   2.688   4.827  11.235  3.0290  0.7902  0.8508
11128TIP3    H254800   2.727   4.869  11.095 -2.3001 -0.8230 -1.2441
11129TIP3   OH254801   3.980   1.869   3.015 -0.4595  0.1393  0.0660
11129TIP3    H154802   3.945   1.780   3.028  0.6851  0.0621  3.1996
11129TIP3    H254803   4.068   1.854   2.979  0.2701 -0.1124  1.8703
11130TIP3   OH254804   4.621   5.612  11.482  0.2515 -0.0798  0.0935
11130TIP3    H154805   4.561   5.640  11.413 -0.1297  0.8687  0.8039
11130TIP3    H254806   4.706   5.605  11.439  0.3894  2.3326 -0.0763
11131TIP3   OH254807   3.417   5.598  16.618  0.6483  0.0399  0.2554
11131TIP3    H154808   3.486   5.655  16.651 -1.6532  1.5026  2.7623
11131TIP3    H254809   3.336   5.639  16.649 -1.2355 -2.8307 -0.6967
11132TIP3   OH254810   6.709   1.872   5.284  0.1870 -0.2085  0.3160
11132TIP3    H154811   6.760   1.854   5.363  0.5105 -1.0495 -0.0814
11132TIP3    H254812   6.625   1.829   5.299  1.0311 -2.2933 -0.7175
11133TIP3   OH254813   5.144   4.054  17.187  0.0341 -0.6012  0.4151
11133TIP3    H154814   5.070   3.998  17.213  0.6814 -1.3832  0.6181
11133TIP3    H254815   5.111   4.143  17.194 -0.8151 -0.9364  0.7459
11134TIP3   OH254816   6.723   3.276   1.729  0.1231 -0.2538 -0.2008
11134TIP3    H154817   6.630   3.263   1.747 -0.0942  1.2264 -0.1836
11134TIP3    H254818   6.765   3.272   1.815  0.0932 -0.9925 -0.2159
11135TIP3   OH254819   1.879   2.801   0.293  0.3876 -0.2305  0.0676
11135TIP3    H154820   1.923   2.884   0.271  0.2870 -1.0277 -3.4125
11135TIP3    H254821   1.917   2.737   0.232 -2.1173 -1.9712  0.2708
11136TIP3   OH254822   4.603   2.862  13.581  0.8731 -0.8926  0.9744
11136TIP3    H154823   4.652   2.894  13.505 -1.4530  1.8479  0.5338
11136TIP3    H254824   4.623   2.925  13.651 -2.7401  0.9445  0.4836
11137TIP3   OH254825   1.363   1.713  11.796 -0.0941  0.1936 -0.0193
11137TIP3    H154826   1.367   1.805  11.821  1.0553  0.2908 -0.5336
11137TIP3    H254827   1.454   1.685  11.790 -0.4397 -1.4927  1.9853
11138TIP3   OH254828   3.188   4.315   4.332  0.4648 -0.7724  0.2123
11138TIP3    H154829   3.187   4.294   4.239  1.5030 -0.8674  0.2153
11138TIP3    H254830   3.106   4.278   4.366  0.2109 -0.9697 -0.6080
11139TIP3   OH254831   2.247   3.930  17.162  0.2373  0.1712  0.0707
11139TIP3    H154832   2.284   3.990  17.227 -0.9451  0.0944  0.8489
11139TIP3    H254833   2.171   3.892  17.207 -2.0269  1.8746 -2.1437
11140TIP3   OH254834   2.648   5.436   3.730 -0.7473 -0.4757 -0.4699
11140TIP3    H154835   2.682   5.519   3.764 -2.0437  0.6741 -1.8774
11140TIP3    H254836   2.679   5.433   3.639  0.6443 -2.3239  0.0416
11141TIP3   OH254837   4.956   6.504  14.470 -0.5268  0.4343  0.1407
11141TIP3    H154838   4.963   6.478  14.562 -0.9510 -0.5972 -0.1080
11141TIP3    H254839   4.903   6.435  14.430 -0.1674  0.7634 -0.9186
11142TIP3   OH254840   2.071   2.664  14.429  0.1505  0.7441 -0.0963
11142TIP3    H154841   2.038   2.620  14.507 -1.1519 -0.9092 -1.5351
11142TIP3    H254842   2.125   2.736  14.463  1.1975 -1.0882  2.3109
11143TIP3   OH254843   2.705   4.189   3.947  0.4146 -0.0856 -0.4784
11143TIP3    H154844   2.734   4.238   3.869 -1.2872  1.9605  0.1251
11143TIP3    H254845   2.768   4.213   4.014 -0.2778  1.1308 -0.2486
11144TIP3   OH254846   5.805   6.221   4.395  0.0683 -0.6256  0.0066
11144TIP3    H154847   5.834   6.130   4.406 -1.1796 -1.0143  0.0764
11144TIP3    H254848   5.714   6.215   4.369  0.0771  0.6101 -0.3415
11145TIP3   OH254849   2.074   5.281   6.288  0.4842 -0.3672  0.2308
11145TIP3    H154850   2.169   5.291   6.277  0.3890 -1.2136 -1.5760
11145TIP3    H254851   2.038   5.365   6.258  0.5599 -0.8137 -1.1835
11146TIP3   OH254852   5.400   5.617   3.114 -0.0022  0.0148 -0.1376
11146TIP3    H154853   5.356   5.626   3.198 -1.7107  1.1011 -1.1372
11146TIP3    H254854   5.492   5.635   3.133 -0.1640 -0.9923  1.7094
11147TIP3   OH254855   4.268   2.000  17.204  0.4728  0.2203  0.5121
11147TIP3    H154856   4.266   1.971  17.113  2.1215 -0.4336  0.6735
11147TIP3    H254857   4.253   1.921  17.255 -0.2247  0.5500  0.8289
11148TIP3   OH254858   6.620   2.504  15.841 -0.0867 -0.2951  0.0471
11148TIP3    H154859   6.630   2.592  15.877  1.4910 -0.1632 -0.6707
11148TIP3    H254860   6.533   2.503  15.801 -0.4266  0.6685  0.7521
11149TIP3   OH254861   5.383   5.799  12.127  0.3984 -0.6855  0.1824
11149TIP3    H154862   5.415   5.859  12.195 -0.5406 -1.6499  1.4968
11149TIP3    H254863   5.319   5.852  12.079  1.7749  0.3118 -0.5984
11150TIP3   OH254864   0.778   4.518  11.407  0.1731  0.0702 -0.5219
11150TIP3    H154865   0.758   4.585  11.472 -0.4201 -0.3748 -0.2437
11150TIP3    H254866   0.867   4.539  11.378  1.3261 -1.0824  2.0931
11151TIP3   OH254867   6.453   5.915   3.676 -0.1620  0.3879  0.0267
11151TIP3    H154868   6.429   5.887   3.764  1.6680  0.0441  0.4331
11151TIP3    H254869   6.479   6.007   3.686  0.2049  0.3021 -0.1387
11152TIP3   OH254870   5.064   6.123  13.576  0.4689  0.4759 -0.5821
11152TIP3    H154871   5.000   6.194  13.585  1.7992  1.7954 -1.2378
11152TIP3    H254872   5.074   6.089  13.664  1.8683  2.9590  0.2674
11153TIP3   OH254873   2.756   0.264  13.309  0.2958 -0.4652  0.1100
11153TIP3    H154874   2.756   0.279  13.403 -1.0490  2.3663 -0.3019
11153TIP3    H254875   2.664   0.249  13.287  0.4064  0.4369 -0.9806
11154TIP3   OH254876   0.092   4.575  11.035  0.3737 -0.1541  0.3330
11154TIP3    H154877   0.164   4.544  11.090  1.2424  2.0543  0.5350
11154TIP3    H254878   0.013   4.545  11.079  1.1426 -2.5326  0.1661
11155TIP3   OH254879   2.727   3.041   3.457 -0.3769  0.5081  0.4506
11155TIP3    H154880   2.660   3.004   3.399 -0.1663  0.8542 -0.0136
11155TIP3    H254881   2.793   3.078   3.398  0.1159  0.3655  0.9086
11156TIP3   OH254882   6.224   4.232   2.097  0.3853 -0.8459  0.1509
11156TIP3    H154883   6.249   4.227   2.005  0.9708  2.5382  0.0477
11156TIP3    H254884   6.307   4.238   2.144  0.0714 -1.9607  0.8499
11157TIP3   OH254885   2.469   1.655   0.066 -0.1361  0.4245 -0.6930
11157TIP3    H154886   2.447   1.606  -0.013 -1.4396  0.0444 -0.1011
11157TIP3    H254887   2.422   1.610   0.136 -0.4633  1.8583  0.0281
11158TIP3   OH254888   1.033   4.404   4.015 -0.2618 -0.6580  0.7555
11158TIP3    H154889   1.002   4.318   3.988 -1.3735 -0.5936  1.7736
11158TIP3    H254890   1.128   4.395   4.022 -0.1402 -1.1786 -1.2690
11159TIP3   OH254891   3.257   0.275  16.925 -0.5269 -0.3870  0.0561
11159TIP3    H154892   3.259   0.298  16.832  0.6615 -3.0864 -0.6255
11159TIP3    H254893   3.338   0.313  16.960 -1.1682  0.9775  0.1073
11160TIP3   OH254894   2.247   6.207  16.273 -0.3669 -0.4040 -0.0956
11160TIP3    H154895   2.299   6.286  16.283 -1.6599  0.5622 -0.9747
11160TIP3    H254896   2.237   6.174  16.363  1.7790 -0.6459  0.0914
11161TIP3   OH254897   1.951   6.305   0.921 -0.3875  0.2937 -0.1622
11161TIP3    H154898   1.918   6.395   0.922  1.6313  1.0679  2.5349
11161TIP3    H254899   1.960   6.284   0.828 -2.0948  2.3967 -0.8545
11162TIP3   OH254900   0.059   4.291  16.900 -0.3325  0.0772  0.2348
11162TIP3    H154901   0.030   4.381  16.917  0.8812  0.2860  1.2676
11162TIP3    H254902   0.054   4.248  16.985 -0.0761 -0.5936 -0.0897
11163TIP3   OH254903   1.030   1.793   4.846 -0.3886 -0.2134 -0.4166
11163TIP3    H154904   1.061   1.854   4.913  0.9896  0.1421 -1.3556
11163TIP3    H254905   1.023   1.709   4.891  1.9562 -0.2903 -0.1656
11164TIP3   OH254906   0.060   6.679  16.625  0.2978  0.1030 -0.6135
11164TIP3    H154907  -0.034   6.700  16.621  0.3808  0.3159 -1.9605
11164TIP3    H254908   0.103   6.760  16.599  0.8931  0.2018  0.6489
11165TIP3   OH254909   0.646   6.627  13.787  0.1744  0.3005  0.1004
11165TIP3    H154910   0.739   6.646  13.802  0.4782 -0.1251 -1.1382
11165TIP3    H254911   0.628   6.548  13.838  0.3050  0.8078  0.9307
11166TIP3   OH254912   3.373   5.258   4.929  0.5294  0.3252  0.0227
11166TIP3    H154913   3.280   5.241   4.943  1.1122 -0.6696  2.9689
11166TIP3    H254914   3.376   5.307   4.847 -2.6402  0.8991  0.1921
11167TIP3   OH254915   6.316   2.064  13.602  0.1921  0.1075  0.3572
11167TIP3    H154916   6.281   2.018  13.678 -0.6893  0.0777 -0.0537
11167TIP3    H254917   6.244   2.062  13.538  1.2524 -0.6932 -0.8226
11168TIP3   OH254918   5.276   5.995   0.852  0.2279 -0.0560  0.2555
11168TIP3    H154919   5.305   6.010   0.762  1.5264 -0.8185  0.5430
11168TIP3    H254920   5.350   5.953   0.895  0.7266  2.9212  2.4697
11169TIP3   OH254921   6.765   1.097  15.133  0.0061  0.0955 -0.0753
11169TIP3    H154922   6.756   1.099  15.038  0.7301 -0.2370 -0.1531
11169TIP3    H254923   6.853   1.131  15.150 -0.1883  0.3270  0.4886
11170TIP3   OH254924   1.868   2.092   5.038  0.3635  0.4228  0.6464
11170TIP3    H154925   1.778   2.064   5.055  0.0849 -0.0288 -1.3844
11170TIP3    H254926   1.860   2.186   5.018  0.0285 -0.0696 -1.6395
11171TIP3   OH254927   1.864   6.187   1.157  0.7463  0.0895 -0.6205
11171TIP3    H154928   1.862   6.235   1.075 -2.4035  1.3884  0.1141
11171TIP3    H254929   1.914   6.243   1.217  0.3947  0.6409 -0.8368
11172TIP3   OH254930   5.324   5.064  16.651 -0.0201 -0.1024 -0.7351
11172TIP3    H154931   5.298   4.990  16.596 -1.0943  0.3839 -0.9138
11172TIP3    H254932   5.242   5.113  16.664  0.5076  0.5560  0.1187
11173TIP3   OH254933   2.377   1.700  16.465  0.2806 -0.3460 -0.5495
11173TIP3    H154934   2.423   1.784  16.460  0.5246 -0.3314  1.8357
11173TIP3    H254935   2.431   1.645  16.522 -2.1664 -0.6368  1.5497
11174TIP3   OH254936   3.682   0.626   3.672  0.6452 -0.4063 -0.5327
11174TIP3    H154937   3.695   0.570   3.595 -0.5988 -2.2694  0.5695
11174TIP3    H254938   3.599   0.597   3.709  1.5110  0.0519  1.8689
11175TIP3   OH254939   5.952   2.300  15.983 -0.1389  0.1507  0.1394
11175TIP3    H154940   5.996   2.288  16.068  0.4067 -0.1763 -0.1864
11175TIP3    H254941   5.879   2.359  16.002 -1.0188 -1.2370  1.1666
11176TIP3   OH254942   2.754   0.427  11.860  0.9185 -0.2306  0.0061
11176TIP3    H154943   2.811   0.354  11.835  0.1410 -0.0926 -2.3238
11176TIP3    H254944   2.668   0.386  11.874  1.4950 -0.4219  3.3871
11177TIP3   OH254945   3.671   4.931   3.122 -0.4614 -0.5634 -0.0666
11177TIP3    H154946   3.612   4.990   3.169 -0.3114 -0.2624 -0.2522
11177TIP3    H254947   3.698   4.866   3.188  0.8369  0.6588  0.6439
11178TIP3   OH254948   1.086   1.088   2.224  0.1269 -0.6333 -0.1437
11178TIP3    H154949   0.992   1.105   2.233  0.2960  0.7625 -0.8429
11178TIP3    H254950   1.091   1.015   2.162 -0.4868 -0.3432 -0.5465
11179TIP3   OH254951   1.783   1.886   0.263  0.7668  0.8691  0.4125
11179TIP3    H154952   1.838   1.960   0.288 -0.4443  1.6782  0.7200
11179TIP3    H254953   1.786   1.828   0.338  1.4461  0.7492  0.3038
11180TIP3   OH254954   4.464   6.375  12.138 -0.8412  0.1963 -0.3367
11180TIP3    H154955   4.527   6.439  12.105 -0.3726  1.1417  2.3114
11180TIP3    H254956   4.518   6.305  12.174 -1.2424  1.3770  2.6742
11181TIP3   OH254957   5.004   2.125  11.506  0.0456 -0.1098  0.4720
11181TIP3    H154958   4.932   2.161  11.558 -0.4686  0.4190 -0.6072
11181TIP3    H254959   4.961   2.071  11.439  0.6385  0.3165 -0.2622
11182TIP3   OH254960   2.866   5.707   6.141  0.3086 -0.0315  0.4016
11182TIP3    H154961   2.852   5.639   6.076  2.2489  0.0965 -0.1939
11182TIP3    H254962   2.783   5.713   6.188 -0.3825 -1.7054 -0.5582
11183TIP3   OH254963   0.737   5.881  15.101  0.6972 -0.6094 -0.1298
11183TIP3    H154964   0.643   5.899  15.098  0.8288 -0.1520 -1.6575
11183TIP3    H254965   0.744   5.785  15.097  0.2635 -0.7198  1.3132
11184TIP3   OH254966   2.331   5.231   5.294  0.1788  0.5030 -0.0872
11184TIP3    H154967   2.419   5.219   5.329  0.3520  1.3833 -0.2284
11184TIP3    H254968   2.323   5.325   5.279 -0.0314  0.1994 -2.0348
11185TIP3   OH254969   0.443   0.953  13.823 -0.1392  0.2245  0.7639
11185TIP3    H154970   0.452   0.918  13.734 -0.4303 -1.1256  1.2611
11185TIP3    H254971   0.498   1.032  13.823  0.3907 -0.1342 -0.4151
11186TIP3   OH254972   4.541   0.667  12.273 -0.2161 -0.0922  0.1937
11186TIP3    H154973   4.625   0.713  12.268  0.0269 -0.4889  0.5845
11186TIP3    H254974   4.478   0.737  12.292  0.2121  0.0371  1.1944
11187TIP3   OH254975   5.694   3.075  14.231  0.1495  0.3306 -0.3440
11187TIP3    H154976   5.701   2.983  14.257 -0.0883  0.4063  0.0004
11187TIP3    H254977   5.780   3.112  14.251 -0.5650  0.8153  2.0654
11188TIP3   OH254978   1.727   4.983  11.667 -0.0214 -0.6190  0.3419
11188TIP3    H154979   1.688   4.901  11.697 -1.9874 -0.1644 -0.8807
11188TIP3    H254980   1.748   4.968  11.575  0.9912 -0.2328  0.4963
11189TIP3   OH254981   5.483   1.342  11.069 -0.5640 -0.6006 -0.3439
11189TIP3    H154982   5.510   1.252  11.083 -1.8936 -0.9616 -0.0689
11189TIP3    H254983   5.477   1.379  11.157  0.8773  0.0318 -0.4965
11190TIP3   OH254984   4.829   5.583  14.533  0.0239 -0.3466  0.3606
11190TIP3    H154985   4.764   5.612  14.597 -0.4046  0.9819 -0.6564
11190TIP3    H254986   4.778   5.539  14.465  0.4410 -1.3921  0.7101
11191TIP3   OH254987   1.803   6.231   5.928  0.6589  0.1144  0.1214
11191TIP3    H154988   1.862   6.201   5.860 -0.5027 -0.0544 -0.8355
11191TIP3    H254989   1.858   6.278   5.990  1.7592  0.0725 -0.8206
11192TIP3   OH254990   6.332   2.112   4.855 -0.0781  0.3216 -0.3727
11192TIP3    H154991   6.246   2.139   4.888  0.0668 -0.4771  0.7022
11192TIP3    H254992   6.355   2.037   4.910  1.5366  0.8675 -0.3037
11193TIP3   OH254993   4.717   3.622   1.231 -0.7935 -0.1551  0.4102
11193TIP3    H154994   4.774   3.622   1.154 -2.6083  0.7868 -0.9862
11193TIP3    H254995   4.768   3.579   1.300  2.2047  2.1822 -0.3099
11194TIP3   OH254996   5.283   3.372   0.176  0.2664  0.8267  0.0201
11194TIP3    H154997   5.343   3.306   0.210  0.8692  1.4231  0.1103
11194TIP3    H254998   5.310   3.454   0.217 -0.9690  1.0021  0.5178
11195TIP3   OH254999   3.950   4.601  15.102 -0.1326  0.6681  0.2074
11195TIP3    H155000   4.027   4.616  15.156 -0.6701 -1.1419  1.5014
11195TIP3    H255001   3.973   4.528  15.046 -0.4725  0.9224 -0.2731
11196TIP3   OH255002   0.321   6.072   3.193 -0.1492 -0.5510  0.7940
11196TIP3    H155003   0.411   6.079   3.224 -0.0952 -0.1879  0.5562
11196TIP3    H255004   0.320   5.995   3.137  0.0319 -0.5142  0.7407
11197TIP3   OH255005   1.892   6.286  11.925 -0.2299  0.2041  0.4964
11197TIP3    H155006   1.967   6.228  11.909  1.0775  2.4078 -1.7631
11197TIP3    H255007   1.849   6.249  12.002  2.7841 -1.5120  1.4416
11198TIP3   OH255008   3.014   0.292   2.565  0.1478 -0.4915 -0.5974
11198TIP3    H155009   3.028   0.386   2.575 -0.9994 -0.3312 -0.4724
11198TIP3    H255010   3.092   0.261   2.519  1.3547  0.2158  0.9441
11199TIP3   OH255011   4.441   4.773   4.037 -0.1625  0.4005  0.4088
11199TIP3    H155012   4.417   4.705   4.100 -1.7866  0.1993 -0.3965
11199TIP3    H255013   4.368   4.776   3.975  0.8763  1.3825 -0.8198
11200TIP3   OH255014   4.598   0.647   5.434 -0.0323 -0.0727  0.0566
11200TIP3    H155015   4.622   0.700   5.509 -0.2650  0.6294 -0.3617
11200TIP3    H255016   4.516   0.604   5.459 -0.0384  0.0559  0.2531
11201TIP3   OH255017   5.045   4.256   2.563  0.4735 -0.1997 -0.5185
11201TIP3    H155018   5.114   4.190   2.557 -0.5689 -1.3483 -0.1878
11201TIP3    H255019   5.003   4.254   2.476 -0.7527 -1.3430  0.0678
11202TIP3   OH255020   1.075   6.784   2.140 -0.1072  0.4606  0.2288
11202TIP3    H155021   0.983   6.804   2.123 -0.0861  0.2778 -0.1215
11202TIP3    H255022   1.101   6.727   2.067  0.6248  1.5169 -0.3430
11203TIP3   OH255023   3.799   3.432   4.382  0.0058  0.2412 -0.2813
11203TIP3    H155024   3.806   3.351   4.331  0.6706  1.9073 -2.9249
11203TIP3    H255025   3.889   3.463   4.390 -0.0832 -0.0169  2.0306
11204TIP3   OH255026   3.675   4.003  15.106 -0.1861  0.0717 -0.3170
11204TIP3    H155027   3.744   4.052  15.060 -1.6757  2.4369 -0.1461
11204TIP3    H255028   3.692   4.020  15.199 -1.2502  1.0427 -0.2946
11205TIP3   OH255029   3.552   0.923   1.232  0.7221  0.0580  0.3661
11205TIP3    H155030   3.622   0.987   1.216  0.7360  0.4880  2.0567
11205TIP3    H255031   3.473   0.976   1.242  0.6332 -0.2233  1.1853
11206TIP3   OH255032   6.424   1.159   1.147  0.1845 -0.2303  0.0768
11206TIP3    H155033   6.412   1.197   1.233  0.1716 -0.9966  0.4171
11206TIP3    H255034   6.362   1.205   1.091  0.0655  0.1399  0.5126
11207TIP3   OH255035   2.819   3.762   5.726 -0.0747 -0.1011  0.3898
11207TIP3    H155036   2.736   3.802   5.751 -0.7368 -0.9130 -0.4508
11207TIP3    H255037   2.878   3.835   5.713 -0.0759  0.4066  2.9669
11208TIP3   OH255038   0.835   5.807  16.872  0.1109 -1.1389  0.0958
11208TIP3    H155039   0.798   5.847  16.793  0.4367 -2.2866 -0.6501
11208TIP3    H255040   0.761   5.767  16.916  0.0885 -1.3626 -0.1467
11209TIP3   OH255041   2.156   5.115  16.671  0.8569 -0.3759  0.3278
11209TIP3    H155042   2.157   5.188  16.609  2.4598  0.4052  1.2283
11209TIP3    H255043   2.179   5.038  16.618  0.8687  0.0560 -0.2972
11210TIP3   OH255044   3.184   1.016  11.637 -0.3576 -0.0169  0.2945
11210TIP3    H155045   3.121   1.087  11.647 -2.4975 -1.5550 -1.7010
11210TIP3    H255046   3.131   0.936  11.636  1.6482 -1.3993 -1.0736
11211TIP3   OH255047   0.648   2.240  11.936 -0.0226  0.4445  0.0109
11211TIP3    H155048   0.741   2.235  11.913  0.3441  0.9741  1.3221
11211TIP3    H255049   0.603   2.198  11.863  1.2582  0.0310 -0.5575
11212TIP3   OH255050   6.132   5.621  15.195 -0.6282 -0.0357  0.0903
11212TIP3    H155051   6.138   5.533  15.234  0.2995  0.5826  1.3592
11212TIP3    H255052   6.221   5.641  15.167 -0.8056  0.5738 -0.0343
11213TIP3   OH255053   0.581   1.632   0.740 -0.2212  0.4072 -0.1716
11213TIP3    H155054   0.554   1.634   0.832  0.2493 -0.1245 -0.0120
11213TIP3    H255055   0.664   1.681   0.738  0.0615 -0.0642 -0.2027
11214TIP3   OH255056   6.262   0.091  14.787  0.3160 -0.1380  0.2719
11214TIP3    H155057   6.256   0.090  14.691  0.0929  1.8001  0.2464
11214TIP3    H255058   6.356   0.098  14.805  0.2521  1.0819  0.1604
11215TIP3   OH255059   5.430   0.755   4.385  0.3061 -0.3940 -0.1739
11215TIP3    H155060   5.502   0.816   4.400 -0.4020  0.3700  0.1390
11215TIP3    H255061   5.468   0.687   4.329  1.2333  0.0651 -0.1128
11216TIP3   OH255062   4.356   4.590   1.210 -0.1644  0.3489 -0.1538
11216TIP3    H155063   4.353   4.684   1.229  0.9358  0.1885  0.8373
11216TIP3    H255064   4.374   4.586   1.116 -0.5411  1.1241 -0.2678
11217TIP3   OH255065   2.459   3.225   0.880  0.7273  0.5605  0.0590
11217TIP3    H155066   2.516   3.301   0.891  1.6758 -0.3718  1.8342
11217TIP3    H255067   2.386   3.258   0.826  1.9433  2.2674 -0.6087
11218TIP3   OH255068   3.107   1.393   3.644 -0.0953  0.0164  0.2084
11218TIP3    H155069   3.071   1.481   3.657  2.4731  1.2476 -0.6777
11218TIP3    H255070   3.055   1.355   3.573 -0.9487  0.9533  0.3214
11219TIP3   OH255071   1.786   0.181  13.315 -0.0644 -0.1236  0.7274
11219TIP3    H155072   1.800   0.238  13.390 -1.3422  0.9984  0.1428
11219TIP3    H255073   1.870   0.179  13.270  0.5979 -0.5041  1.9704
11220TIP3   OH255074   4.629   0.408  13.739  0.2831 -0.3601 -0.1488
11220TIP3    H155075   4.639   0.496  13.703  1.4376  0.1727  1.4153
11220TIP3    H255076   4.672   0.412  13.824  1.5329 -2.8150 -0.6232
11221TIP3   OH255077   2.650   1.348   1.255  0.1911  0.0315  0.0741
11221TIP3    H155078   2.693   1.337   1.170 -0.3784  0.0581 -0.2164
11221TIP3    H255079   2.581   1.412   1.239  0.6317  0.6909  0.7538
11222TIP3   OH255080   4.135   2.685  13.350 -0.0665  0.0038  0.0144
11222TIP3    H155081   4.163   2.596  13.329 -0.9987 -0.3950  0.4084
11222TIP3    H255082   4.211   2.740  13.329 -0.2956 -0.5830 -2.5036
11223TIP3   OH255083   4.557   4.372   3.552  0.3014 -0.1487  0.2831
11223TIP3    H155084   4.548   4.411   3.465  1.5441 -1.3479 -0.4217
11223TIP3    H255085   4.644   4.330   3.550  1.1084  1.3158  2.7329
11224TIP3   OH255086   0.150   2.822   3.513  0.6083  0.4785 -0.3809
11224TIP3    H155087   0.208   2.746   3.521 -0.7925 -0.6512 -0.7993
11224TIP3    H255088   0.113   2.833   3.601  2.0042  1.6765  0.0847
11225TIP3   OH255089   1.356   0.547  11.068 -0.1568 -0.7277  0.0521
11225TIP3    H155090   1.263   0.553  11.044 -0.2333 -0.5564  0.3869
11225TIP3    H255091   1.383   0.461  11.036 -0.5956 -1.0392  0.4978
11226TIP3   OH255092   5.278   4.331  17.106  0.0088  0.6623  0.2256
11226TIP3    H155093   5.330   4.262  17.146 -2.1155 -1.5399 -0.6723
11226TIP3    H255094   5.238   4.377  17.180  1.4575  0.9749  0.8223
11227TIP3   OH255095   3.918   1.909  12.776  0.0117  0.2244 -0.6053
11227TIP3    H155096   3.963   1.993  12.784 -0.5648  0.4180  0.7257
11227TIP3    H255097   3.987   1.844  12.788 -0.0765  0.5182  1.7883
11228TIP3   OH255098   6.483   2.874   2.268 -0.0149  0.0138  0.0778
11228TIP3    H155099   6.432   2.796   2.248 -0.1850  0.1105  0.1344
11228TIP3    H255100   6.477   2.883   2.363 -0.3915  0.3685  0.0216
11229TIP3   OH255101   4.353   5.870  12.356 -0.0021 -0.1689 -0.0371
11229TIP3    H155102   4.334   5.817  12.278 -0.3574 -2.4107  1.5302
11229TIP3    H255103   4.447   5.888  12.350  0.0095 -0.4999 -0.8883
11230TIP3   OH255104   5.860   2.039   2.945  0.4661 -0.3575  0.2615
11230TIP3    H155105   5.919   2.015   3.018 -0.2756  0.1340  1.0296
11230TIP3    H255106   5.779   1.993   2.964  0.4397 -0.6627 -0.5619
11231TIP3   OH255107   4.762   1.836  11.774  0.5732 -0.5271 -0.2345
11231TIP3    H155108   4.793   1.748  11.794  2.1082 -0.3220 -1.5319
11231TIP3    H255109   4.820   1.893  11.826 -0.9879 -0.2900  1.2929
11232TIP3   OH255110   6.240   3.941  15.361 -0.3897  0.1109 -0.0048
11232TIP3    H155111   6.307   4.007  15.376 -0.9103  1.1681 -2.1674
11232TIP3    H255112   6.263   3.902  15.276 -2.2051  0.1392 -0.5346
11233TIP3   OH255113   4.311   0.164   1.379 -0.0811  0.0356  0.0249
11233TIP3    H155114   4.265   0.112   1.313  0.1937  0.1801 -0.2794
11233TIP3    H255115   4.339   0.100   1.444  2.7683 -0.6318 -1.7728
11234TIP3   OH255116   3.204   0.659  10.986  0.0672  0.4117 -0.1601
11234TIP3    H155117   3.203   0.648  10.891 -0.9985 -2.1082  0.0852
11234TIP3    H255118   3.221   0.571  11.020 -0.7499  1.0445  1.9918
11235TIP3   OH255119   4.930   4.892   3.221 -0.0923 -0.2556 -0.5868
11235TIP3    H155120   4.917   4.802   3.251  1.6727 -0.6107 -0.8599
11235TIP3    H255121   5.017   4.916   3.253 -0.3145  1.1491 -1.0075
11236TIP3   OH255122   3.973   2.503   0.222  0.1497 -0.2320  0.1214
11236TIP3    H155123   4.061   2.465   0.217 -0.0068 -0.3703 -1.6155
11236TIP3    H255124   3.922   2.440   0.273  1.3882  0.4929  2.3265
11237TIP3   OH255125   5.481   3.953   3.285  0.5413  0.2148 -0.3220
11237TIP3    H155126   5.503   3.870   3.243  0.2019 -0.7439  1.3175
11237TIP3    H255127   5.463   4.013   3.213 -0.5106 -1.4867 -1.5084
11238TIP3   OH255128   1.134   4.149  15.957  0.2773 -0.4482  0.2141
11238TIP3    H155129   1.040   4.169  15.957  0.1779 -0.8313  1.9737
11238TIP3    H255130   1.141   4.067  16.005  1.6128  0.0821  0.9526
11239TIP3   OH255131   2.790   3.725   1.214 -0.3605  0.4928 -0.5858
11239TIP3    H155132   2.723   3.767   1.161 -2.3656 -1.6322  0.2083
11239TIP3    H255133   2.763   3.739   1.304 -0.1654 -0.9943 -0.2706
11240TIP3   OH255134   0.286   5.910  16.253 -0.0545 -0.2154  0.1768
11240TIP3    H155135   0.306   5.916  16.346 -1.7493 -1.3698  0.6278
11240TIP3    H255136   0.342   5.977  16.212  1.1992 -0.1767  1.9229
11241TIP3   OH255137   5.709   1.782   0.233  0.1703 -0.0682  0.1888
11241TIP3    H155138   5.746   1.695   0.219  0.0211 -0.0584 -0.2636
11241TIP3    H255139   5.654   1.797   0.156 -0.0311  0.3056  0.4071
11242TIP3   OH255140   6.208   2.911   6.057  0.4806 -0.1977  0.1647
11242TIP3    H155141   6.255   2.857   6.121  2.3525  0.0826 -0.9417
11242TIP3    H255142   6.166   2.979   6.109  2.4899  0.3860  1.0562
11243TIP3   OH255143   5.722   5.706  17.191  0.6730 -0.2305  0.1493
11243TIP3    H155144   5.747   5.632  17.136  0.2926 -0.8861  0.8477
11243TIP3    H255145   5.793   5.714  17.254  1.0711  0.4709 -0.3919
11244TIP3   OH255146   1.867   0.484  11.625  0.2664 -0.3079 -0.0767
11244TIP3    H155147   1.847   0.444  11.710 -2.6874  2.3994  0.6005
11244TIP3    H255148   1.845   0.416  11.561  0.0246 -1.4649  1.2048
11245TIP3   OH255149   1.249   0.260   5.560  0.0519  0.7304 -0.9228
11245TIP3    H155150   1.217   0.171   5.552 -0.3321  0.8143 -0.3649
11245TIP3    H255151   1.333   0.252   5.606  0.6130  0.5539 -1.9563
11246TIP3   OH255152   2.105   4.261   2.932  0.2451  0.3055 -0.6725
11246TIP3    H155153   2.200   4.263   2.940  0.2961  1.5246 -1.5074
11246TIP3    H255154   2.075   4.334   2.986 -0.3057 -0.7449  0.4873
11247TIP3   OH255155   0.630   4.008  16.523 -0.4587 -0.3613  0.4366
11247TIP3    H155156   0.588   3.986  16.606  1.7253  1.1723  2.0044
11247TIP3    H255157   0.593   4.092  16.498 -0.7784 -0.6030  0.1008
11248TIP3   OH255158   1.394   4.907   1.303 -0.5029  0.9555 -0.4645
11248TIP3    H155159   1.315   4.925   1.353  0.1609  1.7065  0.3376
11248TIP3    H255160   1.422   4.993   1.271  0.7088  0.8840  0.3676
11249TIP3   OH255161   4.810   4.393  13.209  0.5813  0.2179 -0.1291
11249TIP3    H155162   4.738   4.369  13.151  1.1957  0.2955 -0.9545
11249TIP3    H255163   4.774   4.390  13.297 -0.1434 -0.7926 -0.4509
11250TIP3   OH255164   4.524   1.166   0.067 -0.0356  0.1409 -0.4628
11250TIP3    H155165   4.582   1.099   0.030  0.1064 -0.3927  0.7009
11250TIP3    H255166   4.436   1.129   0.059 -0.4418  1.6342 -3.7240
11251TIP3   OH255167   4.331   6.777  14.102 -0.8168 -0.0136 -0.8298
11251TIP3    H155168   4.374   6.771  14.188 -2.0298  0.5067 -0.1716
11251TIP3    H255169   4.294   6.690  14.088 -0.7275 -0.0634 -0.7594
11252TIP3   OH255170   5.675   3.303   0.451  0.0820  0.0237 -0.5659
11252TIP3    H155171   5.673   3.341   0.539  0.8096 -0.1328 -0.4792
11252TIP3    H255172   5.730   3.363   0.401 -0.0616 -0.0653 -0.8281
11253TIP3   OH255173   2.445   1.100   5.012  0.5244 -0.3777 -0.1491
11253TIP3    H155174   2.453   1.016   4.967  2.6542 -0.9658  1.2506
11253TIP3    H255175   2.478   1.083   5.100 -1.4173  1.3183  0.9493
11254TIP3   OH255176   4.910   5.767   2.539 -0.0557 -0.8734 -0.1791
11254TIP3    H155177   4.933   5.742   2.449  1.8062  0.2608 -0.0459
11254TIP3    H255178   4.817   5.786   2.536  0.3365  0.9475 -2.3093
11255TIP3   OH255179   1.828   2.927  11.248 -0.2310  0.1318 -0.1984
11255TIP3    H155180   1.915   2.889  11.236 -0.8569 -2.1721  2.1265
11255TIP3    H255181   1.844   3.021  11.256  2.1859 -0.3388  1.0585
11256TIP3   OH255182   0.926   3.269  13.270 -0.0689  0.2553 -0.4886
11256TIP3    H155183   0.923   3.312  13.355 -0.9261 -1.6212  0.4499
11256TIP3    H255184   0.921   3.175  13.290 -0.6784 -0.1913 -2.6145
11257TIP3   OH255185   0.221   0.124   3.699 -0.1226 -0.8385 -0.1037
11257TIP3    H155186   0.255   0.054   3.643  0.8130 -1.3182  1.0292
11257TIP3    H255187   0.236   0.204   3.649 -0.6149 -1.3915 -1.1450
11258TIP3   OH255188   5.548   0.489  14.308 -0.4183 -0.8078  0.3073
11258TIP3    H155189   5.577   0.430  14.378 -0.0933  0.2164  1.0442
11258TIP3    H255190   5.455   0.502  14.325 -0.5146 -1.1880  0.0814
11259TIP3   OH255191   0.607   2.590  15.369  0.0803  0.2492 -0.1069
11259TIP3    H155192   0.657   2.600  15.288 -2.2492  2.2993 -1.3413
11259TIP3    H255193   0.584   2.679  15.395 -2.4688 -0.6010  0.7072
11260TIP3   OH255194   4.009   5.467  11.836  0.5136  0.5038  0.0406
11260TIP3    H155195   3.966   5.408  11.898 -1.0206  1.5410 -0.0317
11260TIP3    H255196   4.076   5.412  11.795 -1.1189 -1.3087 -0.3004
11261TIP3   OH255197   4.748   2.575  13.878  0.7961  0.1687  0.1647
11261TIP3    H155198   4.714   2.644  13.935  1.5913  1.0315 -0.3967
11261TIP3    H255199   4.711   2.494  13.914  0.8196  0.7585  1.5541
11262TIP3   OH255200   5.705   4.627  14.445  0.0474  0.1740 -0.3659
11262TIP3    H155201   5.666   4.712  14.426  0.8631  0.6257 -0.0397
11262TIP3    H255202   5.724   4.630  14.538 -0.0035 -0.4030 -0.3360
11263TIP3   OH255203   1.044   0.762   3.864  0.0769  0.1068  0.2306
11263TIP3    H155204   0.954   0.729   3.863 -0.3812  1.2948  0.7754
11263TIP3    H255205   1.048   0.815   3.944  0.9500  0.9020 -0.3384
11264TIP3   OH255206   0.637   0.663  15.534 -0.1158  0.3032 -0.0905
11264TIP3    H155207   0.656   0.585  15.585 -3.1135 -0.1920  0.3441
11264TIP3    H255208   0.669   0.643  15.446  0.6722 -0.7256  0.4169
11265TIP3   OH255209   1.141   1.626   0.654 -0.1653 -0.0675 -0.4745
11265TIP3    H155210   1.156   1.535   0.679 -0.0045 -0.0687 -0.5731
11265TIP3    H255211   1.184   1.635   0.569  1.8466  0.6909  0.5703
11266TIP3   OH255212   4.181   4.763   5.996 -0.7084  0.3841  0.3984
11266TIP3    H155213   4.218   4.808   5.920  0.3269 -0.9656  0.0747
11266TIP3    H255214   4.114   4.822   6.029 -0.5307  1.3969 -1.0160
11267TIP3   OH255215   1.900   5.498   5.032  0.1407  0.3972  0.0173
11267TIP3    H155216   1.834   5.530   4.970  0.4545 -1.9802 -1.5940
11267TIP3    H255217   1.849   5.460   5.104 -0.2098  0.9880  0.0949
11268TIP3   OH255218   0.298   0.381  16.064  0.0150 -0.3982 -0.4740
11268TIP3    H155219   0.276   0.292  16.091 -0.5102 -0.4007 -0.8947
11268TIP3    H255220   0.228   0.436  16.100  1.1715  0.0695  1.1315
11269TIP3   OH255221   1.658   5.606   0.695  0.3562 -0.1480  0.1795
11269TIP3    H155222   1.608   5.611   0.614  0.2607 -1.7687  0.1220
11269TIP3    H255223   1.736   5.660   0.679 -0.1907  0.4042 -0.5962
11270TIP3   OH255224   3.233   1.148  15.366 -0.5719 -0.1761 -0.2580
11270TIP3    H155225   3.217   1.054  15.380  1.7857 -0.5742 -0.0290
11270TIP3    H255226   3.241   1.157  15.271 -1.9229  0.0106 -0.3677
11271TIP3   OH255227   3.965   5.896  13.837  0.5871 -0.2503  0.0523
11271TIP3    H155228   3.982   5.988  13.819  0.6457 -0.4303 -0.8497
11271TIP3    H255229   3.897   5.897  13.904  1.2444  0.4474  0.7276
11272TIP3   OH255230   4.738   3.650  12.710 -0.0855  0.2149  0.6255
11272TIP3    H155231   4.710   3.668  12.620 -0.6547 -1.2241  0.4956
11272TIP3    H255232   4.825   3.688  12.716 -0.7945  1.9933  0.0543
11273TIP3   OH255233   2.106   0.754  17.181 -0.2888 -0.3933 -0.3624
11273TIP3    H155234   2.135   0.839  17.146 -0.9811 -0.1506 -0.3654
11273TIP3    H255235   2.174   0.730  17.244 -1.6256  1.7077  2.0161
11274TIP3   OH255236   5.797   1.837  12.506 -0.2702  0.1971  0.3912
11274TIP3    H155237   5.848   1.783  12.567  2.7338 -0.2187 -2.3380
11274TIP3    H255238   5.861   1.866  12.442 -3.1611  1.3963 -2.0390
11275TIP3   OH255239   1.831   4.949   6.090 -0.5159  0.4888  0.1176
11275TIP3    H155240   1.768   4.968   6.021  0.0660 -0.8822 -0.8165
11275TIP3    H255241   1.784   4.891   6.151 -0.6410  0.6975  0.2181
11276TIP3   OH255242   3.822   5.227   2.630 -0.2424 -0.1286  0.2310
11276TIP3    H155243   3.907   5.208   2.590 -0.6782 -0.0992 -0.7184
11276TIP3    H255244   3.817   5.323   2.630 -0.1142 -0.1189  0.6457
11277TIP3   OH255245   6.016   0.582   3.662 -0.0373 -0.0901 -0.2976
11277TIP3    H155246   6.030   0.660   3.609 -1.0803  0.8853  0.8439
11277TIP3    H255247   5.922   0.567   3.658  0.3172 -2.1125 -1.6460
11278TIP3   OH255248   1.804   6.598  16.313  0.0048 -0.1888 -0.0705
11278TIP3    H155249   1.859   6.639  16.246 -0.7080 -0.3427 -0.7591
11278TIP3    H255250   1.802   6.662  16.384 -0.3267  0.5694 -0.7509
11279TIP3   OH255251   2.885   0.551  14.240 -0.0784 -0.0557 -0.3022
11279TIP3    H155252   2.947   0.481  14.221  1.9994  2.0209 -1.3256
11279TIP3    H255253   2.902   0.575  14.331  1.4341  1.2954 -0.9325
11280TIP3   OH255254   0.390   2.948   1.210  0.4780  0.2366 -0.5913
11280TIP3    H155255   0.395   3.043   1.217 -0.5658  0.2012  0.7145
11280TIP3    H255256   0.481   2.919   1.206  0.8082  1.2362 -0.3652
11281TIP3   OH255257   4.404   1.614   4.412  0.3706 -0.2960  0.1690
11281TIP3    H155258   4.337   1.560   4.454 -1.1091  0.3382 -1.3060
11281TIP3    H255259   4.408   1.693   4.466  0.0263 -0.4028  0.3572
11282TIP3   OH255260   3.799   2.607  11.743  0.2549  0.4180 -0.3621
11282TIP3    H155261   3.868   2.584  11.681 -0.9728 -1.4493 -1.0929
11282TIP3    H255262   3.740   2.532  11.741 -0.7681  1.1370  1.7089
11283TIP3   OH255263   3.507   4.974   1.094  0.5745 -0.5308  1.0704
11283TIP3    H155264   3.519   5.052   1.148 -0.5516 -0.5810  1.4140
11283TIP3    H255265   3.590   4.927   1.101  1.2057  0.5371  1.0028
11284TIP3   OH255266   6.038   0.544  17.084 -0.4744 -0.6536  0.6457
11284TIP3    H155267   6.094   0.596  17.141 -0.9076 -0.5064  0.9355
11284TIP3    H255268   6.096   0.518  17.011  0.1103 -0.9559  1.2068
11285TIP3   OH255269   1.428   2.302  15.516 -0.5455 -0.0620  0.0655
11285TIP3    H155270   1.403   2.355  15.440 -0.7260  0.3875  0.4308
11285TIP3    H255271   1.391   2.216  15.499 -0.0149 -0.1419 -0.6667
11286TIP3   OH255272   0.554   0.253  13.315 -0.4667  0.1391 -0.1760
11286TIP3    H155273   0.606   0.264  13.395 -0.8979  0.6812  0.0366
11286TIP3    H255274   0.495   0.179  13.335  0.1007 -0.3621 -0.3532
11287TIP3   OH255275   1.310   1.965   5.797 -0.3770  0.4403 -0.1387
11287TIP3    H155276   1.232   1.926   5.756  0.4878 -0.1767 -1.2407
11287TIP3    H255277   1.356   1.891   5.836  0.0928  0.6838 -0.2317
11288TIP3   OH255278   3.213   3.593   4.113 -0.1507  0.2511 -0.2180
11288TIP3    H155279   3.180   3.597   4.023  0.1397 -0.4670 -0.3550
11288TIP3    H255280   3.136   3.580   4.167 -0.4329  1.5231 -0.2814
11289TIP3   OH255281   1.526   2.736  14.851 -0.0364 -0.2433  0.1715
11289TIP3    H155282   1.474   2.661  14.879 -0.9301 -0.3520 -1.7351
11289TIP3    H255283   1.577   2.760  14.929 -1.3997 -1.4120  1.4478
11290TIP3   OH255284   3.515   1.290   5.269 -0.0119  0.0552  0.1782
11290TIP3    H155285   3.502   1.322   5.358 -0.6291  0.1013  0.0695
11290TIP3    H255286   3.489   1.198   5.273 -2.7856  0.7818 -0.6224
11291TIP3   OH255287   1.551   1.847  12.619  0.2980 -0.3568 -0.2222
11291TIP3    H155288   1.532   1.823  12.528  2.2888  0.4601 -0.8657
11291TIP3    H255289   1.509   1.778  12.671  0.2362 -1.5305 -1.7938
11292TIP3   OH255290   5.681   3.125   0.965 -0.4323  0.2550  0.2700
11292TIP3    H155291   5.639   3.046   0.931 -0.6945 -1.3720  4.0861
11292TIP3    H255292   5.675   3.116   1.061  0.5145  4.3779  0.8142
11293TIP3   OH255293   6.260   0.269   0.451  0.0616  0.3531 -0.5204
11293TIP3    H155294   6.344   0.252   0.409  1.1622  1.6781  1.0964
11293TIP3    H255295   6.282   0.316   0.531 -2.2485  0.9538 -0.2006
11294TIP3   OH255296   2.306   4.147  12.120 -0.0324 -0.1068  0.1866
11294TIP3    H155297   2.259   4.067  12.095 -0.4144 -0.0011  0.5630
11294TIP3    H255298   2.383   4.147  12.063 -0.2134 -0.5554 -0.0708
11295TIP3   OH255299   2.008   6.271   1.421  0.0666 -0.0176 -0.5499
11295TIP3    H155300   1.996   6.214   1.497  0.1913  0.1716 -0.3912
11295TIP3    H255301   1.995   6.360   1.454  1.7226  0.1834 -0.4130
11296TIP3   OH255302   4.658   4.006   4.030 -0.2476 -0.0317 -0.5156
11296TIP3    H155303   4.604   4.079   4.062 -0.7092 -0.5857 -0.0184
11296TIP3    H255304   4.630   3.931   4.083 -1.1368 -1.0144 -2.3448
11297TIP3   OH255305   4.980   0.821   5.105 -0.4348  0.3859 -0.1311
11297TIP3    H155306   4.974   0.865   5.190 -0.5747  1.4925 -0.7081
11297TIP3    H255307   5.003   0.891   5.043 -0.6391 -0.3543 -1.0550
11298TIP3   OH255308   0.171   6.604   4.075  0.4020  0.3574 -0.3871
11298TIP3    H155309   0.208   6.610   3.987  0.9004 -1.3105 -0.3191
11298TIP3    H255310   0.082   6.573   4.062  0.4274  0.2510 -0.3109
11299TIP3   OH255311   5.563   1.434  13.665 -0.5069 -0.0727 -0.2881
11299TIP3    H155312   5.530   1.345  13.650  1.5221 -0.5906 -1.9319
11299TIP3    H255313   5.579   1.469  13.577 -0.0448  1.4170  0.3768
11300TIP3   OH255314   6.114   3.079  13.901 -0.2943 -0.1459 -0.0173
11300TIP3    H155315   6.111   3.009  13.836  0.6826  2.8182 -3.4458
11300TIP3    H255316   6.207   3.088  13.922 -0.3026  0.6950 -0.3029
11301TIP3   OH255317   2.524   1.412   3.603  0.4028 -0.2522  0.2685
11301TIP3    H155318   2.596   1.373   3.653  1.9025 -0.3422 -1.8982
11301TIP3    H255319   2.526   1.366   3.519 -1.1295  0.9148 -0.4114
11302TIP3   OH255320   5.323   4.862  15.730  0.3024  0.3311 -0.5933
11302TIP3    H155321   5.283   4.795  15.786  0.5390 -0.1125 -0.9445
11302TIP3    H255322   5.335   4.818  15.645  0.4613  0.8185 -0.8260
11303TIP3   OH255323   4.287   5.369   2.120  0.4399  0.0925 -0.0293
11303TIP3    H155324   4.382   5.365   2.129  0.5488 -0.5127 -1.2908
11303TIP3    H255325   4.271   5.448   2.068  0.4086 -0.9385 -1.6131
11304TIP3   OH255326   6.468   2.493   5.842  0.2674  0.2627  0.2602
11304TIP3    H155327   6.378   2.526   5.835  0.3852  0.9865  1.9289
11304TIP3    H255328   6.508   2.548   5.909  1.5223 -1.0296  0.5857
11305TIP3   OH255329   1.868   5.957   2.689 -0.5306 -0.3361 -0.1797
11305TIP3    H155330   1.943   5.898   2.688 -1.7773 -1.9706  0.1240
11305TIP3    H255331   1.844   5.968   2.597 -0.6738 -0.8092 -0.1999
11306TIP3   OH255332   1.647   6.159  10.680  0.2244 -1.0752 -0.0211
11306TIP3    H155333   1.700   6.204  10.745  0.1303  0.5803 -1.0644
11306TIP3    H255334   1.690   6.177  10.596 -0.1400 -2.4516 -0.5217
11307TIP3   OH255335   5.725   5.488  11.030  0.4239  0.4060 -0.1514
11307TIP3    H155336   5.727   5.515  10.938  1.7277  0.4692 -0.1036
11307TIP3    H255337   5.674   5.407  11.030 -1.2596  1.4208 -0.6527
11308TIP3   OH255338   3.512   4.946  12.027  0.3816 -0.7050  0.4956
11308TIP3    H155339   3.419   4.968  12.027  0.6971  0.7102 -0.7049
11308TIP3    H255340   3.515   4.851  12.042 -1.2430 -0.7511  0.5267
11309TIP3   OH255341   3.137   4.626   5.010  0.1949 -0.2266 -0.0299
11309TIP3    H155342   3.158   4.540   4.973  3.2878  0.1315  0.7097
11309TIP3    H255343   3.150   4.615   5.104  0.0148  0.8747  0.1299
11310TIP3   OH255344   4.727   5.680  15.963 -0.0683  0.0683 -0.3078
11310TIP3    H155345   4.816   5.708  15.985 -0.6350  0.2793  1.8875
11310TIP3    H255346   4.704   5.617  16.032 -1.2279 -0.7781 -1.4510
11311TIP3   OH255347   5.742   5.727  13.753  0.5708 -0.5253 -0.2010
11311TIP3    H155348   5.803   5.747  13.825  0.0783  0.8582 -0.1384
11311TIP3    H255349   5.789   5.665  13.698  1.7871  0.0016  0.2115
11312TIP3   OH255350   2.100   0.119  12.324  0.4807 -0.0555  0.2361
11312TIP3    H155351   2.100   0.147  12.416 -0.0387  0.1853  0.1705
11312TIP3    H255352   2.157   0.182  12.280 -0.0564  0.4303  0.2263
11313TIP3   OH255353   2.283   3.333   1.392  0.2467 -0.2538  0.4756
11313TIP3    H155354   2.368   3.324   1.436  0.4685 -0.5126 -0.0017
11313TIP3    H255355   2.305   3.346   1.300 -0.1761  1.8363  0.6504
11314TIP3   OH255356   4.653   3.757  13.255 -0.6464 -0.1120 -1.2416
11314TIP3    H155357   4.690   3.750  13.167 -1.4094  0.1163 -1.5757
11314TIP3    H255358   4.570   3.710  13.251  0.1258 -1.6395 -0.1783
11315TIP3   OH255359   3.805   1.131   3.759 -0.0557  0.3129  0.2890
11315TIP3    H155360   3.840   1.135   3.670 -1.5192  2.3043 -0.2166
11315TIP3    H255361   3.841   1.208   3.803  2.5038 -1.8477  2.1609
11316TIP3   OH255362   5.328   3.537   3.979  0.0806  0.5413 -0.0925
11316TIP3    H155363   5.347   3.494   3.896  1.0253  0.0097  0.3827
11316TIP3    H255364   5.236   3.560   3.974 -0.1202 -0.4034 -0.8813
11317TIP3   OH255365   4.290   5.871  11.842 -0.4850  0.2251 -0.4450
11317TIP3    H155366   4.323   5.961  11.840 -0.5455  0.2589 -0.0012
11317TIP3    H255367   4.359   5.820  11.800  1.3812 -0.0939  2.8550
11318TIP3   OH255368   3.056   1.715   4.337  0.1887  0.6205 -0.4777
11318TIP3    H155369   3.139   1.732   4.382 -0.1760  0.7386  0.1618
11318TIP3    H255370   2.994   1.697   4.408 -0.6264  1.7890 -0.8819
11319TIP3   OH255371   4.451   0.466  12.419 -0.3017  0.1669 -0.0285
11319TIP3    H155372   4.459   0.551  12.375 -1.6856  0.6261  0.5760
11319TIP3    H255373   4.477   0.483  12.509  0.2727 -0.2457 -0.1192
11320TIP3   OH255374   1.181   1.125  16.420 -0.1108  0.0782  0.4015
11320TIP3    H155375   1.195   1.087  16.334  0.3288  0.9016  0.1069
11320TIP3    H255376   1.095   1.092  16.447 -0.2396 -0.1976 -0.3355
11321TIP3   OH255377   2.785   6.424   3.694  0.4869  0.5466 -0.1119
11321TIP3    H155378   2.805   6.479   3.770 -0.7230 -1.1639  1.4952
11321TIP3    H255379   2.868   6.383   3.671  0.8266  0.9552  0.3843
11322TIP3   OH255380   5.029   2.653   2.234  0.5215  0.4286  0.3882
11322TIP3    H155381   4.993   2.566   2.250 -0.9040  1.2596  1.8515
11322TIP3    H255382   4.972   2.712   2.284  1.4314  2.2053 -0.6337
11323TIP3   OH255383   0.248   2.363  13.616 -0.5014  0.4993 -0.2299
11323TIP3    H155384   0.261   2.456  13.598 -0.1989  0.3013 -1.1024
11323TIP3    H255385   0.271   2.320  13.533 -2.0292 -0.2378 -0.2978
11324TIP3   OH255386   1.280   0.810  16.734  0.1519 -0.5949 -0.0594
11324TIP3    H155387   1.317   0.738  16.683  2.1410  0.1080  0.3151
11324TIP3    H255388   1.319   0.889  16.695  1.7194 -0.0467  2.5152
11325TIP3   OH255389   2.062   1.436   2.470  0.4043  0.2611  0.4362
11325TIP3    H155390   2.115   1.358   2.485  1.0138  0.8095  1.2075
11325TIP3    H255391   2.001   1.438   2.544 -2.9029 -2.1101 -2.0580
11326TIP3   OH255392   1.938   2.999  17.174 -0.0851 -0.5836  0.2738
11326TIP3    H155393   2.003   3.062  17.203 -0.5344  0.3355 -0.6574
11326TIP3    H255394   1.890   3.044  17.104 -0.3917 -1.9650 -0.4375
11327TIP3   OH255395   3.474   0.915   4.283  0.2488 -0.6217 -0.4123
11327TIP3    H155396   3.495   0.904   4.191  3.3709  2.4527 -0.1769
11327TIP3    H255397   3.522   0.846   4.328 -0.5270 -1.5333 -0.9602
11328TIP3   OH255398   4.660   3.160   1.818 -0.3323 -0.7965  0.1311
11328TIP3    H155399   4.748   3.125   1.829 -0.0509 -0.4072 -0.8055
11328TIP3    H255400   4.673   3.245   1.777 -1.0770 -0.0795  1.3605
11329TIP3   OH255401   4.787   1.886   0.181 -0.1398  0.1037 -0.0363
11329TIP3    H155402   4.845   1.825   0.136  0.3861  1.4175 -1.2062
11329TIP3    H255403   4.701   1.870   0.142  0.0584  0.3238 -0.5684
11330TIP3   OH255404   5.494   4.399  13.771 -0.0034  0.1528 -0.6345
11330TIP3    H155405   5.509   4.493  13.760 -0.7172  0.0794 -2.3850
11330TIP3    H255406   5.579   4.365  13.800  0.4474  1.2219 -0.6651
11331TIP3   OH255407   0.610   3.578  14.269  0.4704  0.1834  0.5079
11331TIP3    H155408   0.648   3.658  14.306 -0.2910  0.7985 -0.0095
11331TIP3    H255409   0.568   3.607  14.188 -1.7392 -0.3177  1.4219
11332TIP3   OH255410   0.689   1.989  13.913 -0.1039  0.7163 -0.6118
11332TIP3    H155411   0.710   1.898  13.892 -0.6283  0.3377  0.4828
11332TIP3    H255412   0.767   2.023  13.956 -0.4071  0.3841  0.1980
11333TIP3   OH255413   4.909   0.724   2.475 -0.5180  0.0097 -0.5270
11333TIP3    H155414   4.934   0.738   2.566  0.7417 -1.6744 -0.6007
11333TIP3    H255415   4.839   0.658   2.479  1.2951 -1.9936 -0.9143
11334TIP3   OH255416   4.221   6.088  13.643 -0.3735 -0.3904 -0.3859
11334TIP3    H155417   4.267   6.161  13.602  0.2323 -1.3999 -1.5604
11334TIP3    H255418   4.163   6.128  13.707  0.2741  1.0810 -0.7050
11335TIP3   OH255419   6.594   5.708   2.083  0.0072 -0.1771  0.3778
11335TIP3    H155420   6.627   5.632   2.034  1.7183  0.6946  0.1169
11335TIP3    H255421   6.673   5.757   2.107 -1.1255  2.4400 -0.9787
11336TIP3   OH255422   2.468   4.935   0.379  0.3739 -0.6053 -0.0758
11336TIP3    H155423   2.377   4.947   0.405  0.4255  0.6376 -0.4423
11336TIP3    H255424   2.464   4.915   0.285  0.6321  2.3626 -0.7641
11337TIP3   OH255425   0.193   0.634  12.468 -0.3686  0.3043  0.3111
11337TIP3    H155426   0.257   0.705  12.477 -0.1220  0.0762  0.3842
11337TIP3    H255427   0.241   0.556  12.496 -0.0230 -0.2033 -1.6397
11338TIP3   OH255428   1.184   1.883  12.630  0.2108 -0.4081  0.6182
11338TIP3    H155429   1.231   1.946  12.685  2.1201 -1.8925  0.7384
11338TIP3    H255430   1.232   1.801  12.641 -1.2100 -1.4712 -0.8897
11339TIP3   OH255431   4.781   4.613  12.392 -0.8103 -0.3666 -0.4366
11339TIP3    H155432   4.742   4.578  12.472 -2.6257  1.2511 -0.5924
11339TIP3    H255433   4.739   4.564  12.321 -0.5416 -0.5128 -0.4984
11340TIP3   OH255434   5.248   3.072   0.471 -0.0658 -0.2030 -0.4987
11340TIP3    H155435   5.165   3.111   0.444 -0.6463  1.1505  3.0236
11340TIP3    H255436   5.306   3.147   0.484  0.7779 -0.9582  0.1025
11341TIP3   OH255437   1.892   3.054   3.302  0.3749 -0.0421  0.3243
11341TIP3    H155438   1.960   3.105   3.346 -1.5729  1.9566  1.1122
11341TIP3    H255439   1.846   3.009   3.373 -0.2472  0.0488 -0.0127
11342TIP3   OH255440   3.022   6.294   0.308  0.1927  0.5040  0.4323
11342TIP3    H155441   2.987   6.279   0.396  2.0137 -0.7347  0.9710
11342TIP3    H255442   3.025   6.206   0.269 -1.7749  1.1884 -1.3520
11343TIP3   OH255443   2.214   4.181   0.468  0.6164  0.2576  0.0123
11343TIP3    H155444   2.232   4.274   0.450 -0.5052  0.3171 -0.8932
11343TIP3    H255445   2.122   4.170   0.444  0.2189 -0.6686  1.8654
11344TIP3   OH255446   2.842   0.183   5.740  0.3383  0.6177  0.7196
11344TIP3    H155447   2.903   0.241   5.786 -1.0778  1.1119  1.9849
11344TIP3    H255448   2.837   0.105   5.795 -1.2705  1.1673  1.3735
11345TIP3   OH255449   5.414   6.357   0.532  0.2188 -0.4789 -0.5504
11345TIP3    H155450   5.322   6.374   0.511 -0.9482 -3.9327  1.3453
11345TIP3    H255451   5.437   6.423   0.597 -0.5689  1.1029 -1.8599
11346TIP3   OH255452   5.770   2.443  12.495 -0.1126  1.0133  0.5703
11346TIP3    H155453   5.814   2.461  12.412 -1.4113  0.3359 -0.2870
11346TIP3    H255454   5.796   2.515  12.552  1.0664  1.3087 -0.3140
11347TIP3   OH255455   0.802   2.979  15.765 -0.2743 -0.1501 -0.5759
11347TIP3    H155456   0.818   3.070  15.742  0.8673 -0.0841  0.3907
11347TIP3    H255457   0.886   2.935  15.751 -0.4741 -0.7864  0.1412
11348TIP3   OH255458   3.488   0.344  15.869  0.2671  0.0061  0.4406
11348TIP3    H155459   3.577   0.345  15.835 -0.4494 -1.0010 -1.4968
11348TIP3    H255460   3.455   0.256  15.849 -1.3294  0.5273  0.7083
11349TIP3   OH255461   2.735   4.324   0.652 -0.1199 -0.2482 -0.0026
11349TIP3    H155462   2.711   4.303   0.742 -1.5850  1.5551  0.0503
11349TIP3    H255463   2.689   4.258   0.599 -1.5290  0.3889  0.4045
11350TIP3   OH255464   3.309   1.994  12.539  0.1217  0.1913  0.1008
11350TIP3    H155465   3.324   2.010  12.446 -1.3821 -0.1164 -0.2005
11350TIP3    H255466   3.242   2.057  12.564  0.8513  0.5913  1.1039
11351TIP3   OH255467   4.842   4.297   3.583 -0.7341  0.1385 -0.0622
11351TIP3    H155468   4.874   4.238   3.515 -0.8746 -1.4488  1.2254
11351TIP3    H255469   4.920   4.324   3.632 -0.8473 -0.1971  0.3045
11352TIP3   OH255470   5.542   1.620  13.866  0.0009  0.1281  0.1911
11352TIP3    H155471   5.460   1.670  13.864 -0.1922 -0.2085 -1.2964
11352TIP3    H255472   5.535   1.560  13.792  1.4917 -0.0677  0.1896
11353TIP3   OH255473   5.526   3.726  10.277 -0.2800 -0.2196  0.5004
11353TIP3    H155474   5.457   3.753  10.217 -1.2525 -2.3075  0.6399
11353TIP3    H255475   5.572   3.655  10.231  0.7871  0.1119  1.0360
11354TIP3   OH255476   1.956   4.920   0.862 -0.0983  0.0106 -0.0616
11354TIP3    H155477   1.980   4.862   0.934  0.5193  0.7868  0.3702
11354TIP3    H255478   1.975   4.870   0.783  1.5582  0.0553  0.2918
11355TIP3   OH255479   1.852   3.372  15.666 -0.5006 -1.0267  0.2664
11355TIP3    H155480   1.932   3.344  15.709 -0.0388  0.3525  0.3341
11355TIP3    H255481   1.832   3.302  15.604  1.2467 -0.9403 -0.4018
11356TIP3   OH255482   6.671   4.070   1.646  0.0510 -0.1429 -0.1285
11356TIP3    H155483   6.735   4.008   1.611  0.8318  1.1292 -0.9795
11356TIP3    H255484   6.671   4.143   1.584 -1.7972  0.1490  0.1754
11357TIP3   OH255485   6.546   4.622   3.020  0.7932  0.0837  0.0938
11357TIP3    H155486   6.559   4.640   2.927  0.0533 -0.4195 -0.1104
11357TIP3    H255487   6.453   4.601   3.028  0.8977 -0.0917  0.9088
11358TIP3   OH255488   5.269   2.325  14.656 -0.0755  0.0819  0.6817
11358TIP3    H155489   5.301   2.278  14.733 -0.3054  0.3823  0.9629
11358TIP3    H255490   5.340   2.385  14.633  0.9413 -1.6586 -0.7635
11359TIP3   OH255491   0.485   4.560  14.600  0.1140 -0.0762  0.4469
11359TIP3    H155492   0.460   4.581  14.690 -0.6185 -1.5382  0.6077
11359TIP3    H255493   0.576   4.590  14.592 -0.4311  1.7421  1.0843
11360TIP3   OH255494   4.115   2.812   5.667 -0.2075 -0.1640 -0.4212
11360TIP3    H155495   4.034   2.852   5.636 -0.5069  0.2041  0.7842
11360TIP3    H255496   4.172   2.810   5.591 -1.0616  0.3459 -1.0802
11361TIP3   OH255497   4.011   5.992  15.096 -0.4243  0.1025 -0.1363
11361TIP3    H155498   4.047   5.924  15.153 -0.7667  1.0569  1.2657
11361TIP3    H255499   3.920   5.966  15.082 -0.3503 -0.1184 -0.2037
11362TIP3   OH255500   2.481   5.796   4.860 -0.1925  0.8987 -0.0635
11362TIP3    H155501   2.474   5.891   4.874 -1.3781  0.9795 -1.1246
11362TIP3    H255502   2.411   5.776   4.797  1.6912 -0.2619 -1.8456
11363TIP3   OH255503   6.105   4.984  16.145 -0.1949 -0.3186 -1.1271
11363TIP3    H155504   6.028   5.029  16.110  0.5933 -0.3364 -2.9480
11363TIP3    H255505   6.158   5.053  16.183  0.1597  0.0723 -2.3033
11364TIP3   OH255506   3.924   2.158   1.246  0.1236  0.8044  0.2842
11364TIP3    H155507   3.964   2.135   1.162 -0.8697  1.3028 -0.3279
11364TIP3    H255508   3.877   2.079   1.273 -0.0548  0.8424  0.0818
11365TIP3   OH255509   1.184   0.830  16.393 -0.1970  0.0217 -0.3466
11365TIP3    H155510   1.153   0.887  16.463  0.9869  1.5760 -1.0569
11365TIP3    H255511   1.137   0.860  16.315  0.4805  0.0736 -0.7350
11366TIP3   OH255512   5.456   6.131  13.054 -0.3456  0.0858  0.6464
11366TIP3    H155513   5.460   6.113  13.148 -0.5210 -0.8431  0.4837
11366TIP3    H255514   5.394   6.203  13.046 -0.9912 -0.4015  1.1808
11367TIP3   OH255515   4.721   1.046   3.888 -0.4962  0.0742 -0.0365
11367TIP3    H155516   4.769   0.970   3.855 -0.8181 -0.1675  0.0435
11367TIP3    H255517   4.782   1.119   3.879  0.6615 -0.5895  2.0035
11368TIP3   OH255518   4.062   2.271  13.712  0.5799 -0.7432  0.5818
11368TIP3    H155519   4.111   2.207  13.661 -0.7581 -0.1864 -1.4335
11368TIP3    H255520   4.124   2.341  13.729  1.2782 -1.3324  0.4753
11369TIP3   OH255521   3.643   2.349  15.031 -0.7981  0.1019  0.4841
11369TIP3    H155522   3.734   2.321  15.042 -0.3856  0.5811 -1.5420
11369TIP3    H255523   3.608   2.351  15.120  0.5907 -1.9936  1.1151
11370TIP3   OH255524   0.899   4.741  13.710 -0.3208 -0.9444 -0.2278
11370TIP3    H155525   0.828   4.680  13.685 -0.9145  0.0248 -0.9490
11370TIP3    H255526   0.934   4.704  13.791 -2.2429 -0.9709  0.6258
11371TIP3   OH255527   6.181   5.759  14.860  0.2349 -0.2731  0.0321
11371TIP3    H155528   6.272   5.777  14.836 -0.2291  0.1890 -1.4370
11371TIP3    H255529   6.179   5.665  14.878  0.9998 -0.2922  0.0215
11372TIP3   OH255530   6.695   2.770   1.246  0.2009 -0.3255 -0.2013
11372TIP3    H155531   6.637   2.751   1.172  0.6762 -2.4655 -0.0596
11372TIP3    H255532   6.783   2.768   1.209  0.4629 -1.7283  0.4598
11373TIP3   OH255533   1.107   6.720  12.921 -0.1812 -0.0640 -0.4160
11373TIP3    H155534   1.024   6.757  12.951 -1.1597 -0.4383 -2.5863
11373TIP3    H255535   1.139   6.668  12.995 -2.1178 -0.3267  0.2587
11374TIP3   OH255536   3.190   6.443   0.188 -0.3412  0.5466 -0.2280
11374TIP3    H155537   3.131   6.392   0.244 -0.1619 -0.7971 -1.2166
11374TIP3    H255538   3.219   6.515   0.243 -0.5901 -0.4375  1.2313
11375TIP3   OH255539   3.466   4.810  15.760  0.4677 -0.2573  0.0484
11375TIP3    H155540   3.454   4.845  15.672  0.0410  0.4874  0.4021
11375TIP3    H255541   3.483   4.716  15.746  0.9339 -0.0503 -0.8528
11376TIP3   OH255542   6.304   4.524   3.051 -0.0921  0.5553 -0.0427
11376TIP3    H155543   6.262   4.559   3.130 -1.6848  1.2287 -1.1514
11376TIP3    H255544   6.286   4.430   3.053 -0.8729  0.6984 -0.0111
11377TIP3   OH255545   0.113   3.163   4.995  0.0087 -0.5850 -0.2987
11377TIP3    H155546   0.081   3.252   4.984 -0.1701 -0.6501 -0.3197
11377TIP3    H255547   0.166   3.146   4.918 -1.9899 -1.3627 -1.5522
11378TIP3   OH255548   3.688   0.416   1.759 -0.9868  0.3111  0.7537
11378TIP3    H155549   3.627   0.344   1.775 -1.6380  1.1675  2.2267
11378TIP3    H255550   3.741   0.422   1.838  1.4205 -0.7742 -0.7367
11379TIP3   OH255551   3.310   6.528   1.595 -0.2088  0.6105  0.6004
11379TIP3    H155552   3.321   6.563   1.683  1.3501  0.2359  0.5628
11379TIP3    H255553   3.260   6.446   1.607 -0.5094  0.8620  1.0628
11380TIP3   OH255554   2.062   0.858   2.678  0.6627 -0.2720  0.2293
11380TIP3    H155555   1.976   0.892   2.652  0.8523 -0.6347 -0.8745
11380TIP3    H255556   2.113   0.859   2.598  2.1611  1.3483  1.1859
11381TIP3   OH255557   0.481   4.747  16.766 -0.8361  0.2215  0.2071
11381TIP3    H155558   0.469   4.795  16.848 -2.0953 -1.2353  0.8836
11381TIP3    H255559   0.558   4.692  16.781  0.0005  1.2636 -0.2147
11382TIP3   OH255560   4.791   5.423  12.502  0.5614 -0.4047  0.0539
11382TIP3    H155561   4.882   5.438  12.527 -0.0021  0.3000  1.7273
11382TIP3    H255562   4.744   5.416  12.585 -0.7390 -1.8814 -0.7879
11383TIP3   OH255563   3.814   2.496  12.352  0.0241 -0.3787  0.0779
11383TIP3    H155564   3.767   2.556  12.293 -2.1544 -2.2497 -0.1506
11383TIP3    H255565   3.878   2.453  12.296  0.1031  0.1314 -0.2341
11384TIP3   OH255566   4.142   5.153   6.459 -0.0395  0.1693 -0.4057
11384TIP3    H155567   4.186   5.095   6.396 -1.4879 -0.7529 -0.5955
11384TIP3    H255568   4.103   5.094   6.522 -0.4421  1.0124  0.1338
11385TIP3   OH255569   2.864   5.398   2.362 -0.1313  0.2303  0.6712
11385TIP3    H155570   2.808   5.321   2.368  0.0096 -0.0469 -1.3400
11385TIP3    H255571   2.804   5.469   2.339 -0.0577  0.4772  1.2263
11386TIP3   OH255572   4.385   1.427  13.834 -0.4002  0.2558  0.2197
11386TIP3    H155573   4.455   1.490  13.814 -0.9256  0.3767 -1.2568
11386TIP3    H255574   4.384   1.368  13.759 -2.1056  0.4654  0.0730
11387TIP3   OH255575   1.467   1.499  16.637 -0.1126  0.1249 -0.5665
11387TIP3    H155576   1.462   1.406  16.659 -0.1128  0.4473  0.8280
11387TIP3    H255577   1.394   1.539  16.685  0.2958  0.9480 -0.6258
11388TIP3   OH255578   5.902   2.764   2.136 -0.1270 -0.2268 -0.4374
11388TIP3    H155579   5.856   2.720   2.207 -0.8722 -0.0439 -0.8060
11388TIP3    H255580   5.851   2.743   2.058  2.1830 -2.7288 -1.3694
11389TIP3   OH255581   6.409   0.211  16.969  0.4176 -0.3370  0.2536
11389TIP3    H155582   6.499   0.226  16.939 -0.3233 -0.3073 -2.0666
11389TIP3    H255583   6.390   0.121  16.942 -0.9699  0.3742 -1.1713
11390TIP3   OH255584   0.946   2.080  12.913  0.1612 -0.2023 -0.7055
11390TIP3    H155585   1.025   2.049  12.959  0.9813 -0.7538 -2.4391
11390TIP3    H255586   0.971   2.081  12.821 -1.5760  0.5474 -1.1860
11391TIP3   OH255587   3.934   3.058  11.165  0.3750  0.1561  0.0600
11391TIP3    H155588   4.005   3.119  11.187  0.7864  0.1411 -1.1707
11391TIP3    H255589   3.871   3.112  11.117 -0.7092  0.2904  1.6218
11392TIP3   OH255590   1.610   2.494   0.767 -0.0293 -0.3275 -0.1022
11392TIP3    H155591   1.611   2.483   0.672  1.2431 -0.9827 -0.0214
11392TIP3    H255592   1.683   2.441   0.798 -1.6633 -1.7749  1.4202
11393TIP3   OH255593   4.531   4.889   5.442 -0.3096 -0.1178 -0.3370
11393TIP3    H155594   4.486   4.805   5.436 -0.0861 -0.1789 -1.2026
11393TIP3    H255595   4.471   4.951   5.402 -0.0478 -0.0268 -0.5823
11394TIP3   OH255596   2.734   2.118   1.350 -0.0993 -0.1083  0.1341
11394TIP3    H155597   2.665   2.086   1.408  0.4700 -3.0028 -0.7061
11394TIP3    H255598   2.688   2.144   1.270 -0.2560 -1.8374 -0.3482
11395TIP3   OH255599   5.307   5.422  13.160 -0.4509  0.2853  0.2603
11395TIP3    H155600   5.259   5.481  13.219  1.6576  2.4298 -0.0880
11395TIP3    H255601   5.391   5.408  13.204  0.3295  0.2125 -1.2159
11396TIP3   OH255602   5.899   1.579  15.608  0.1170 -0.1379  1.5444
11396TIP3    H155603   5.861   1.648  15.662 -1.1237  0.9710 -0.6702
11396TIP3    H255604   5.824   1.525  15.583  0.2872  0.6989 -0.9250
11397TIP3   OH255605   2.865   1.726   1.655 -0.3727 -0.2075  0.5342
11397TIP3    H155606   2.862   1.709   1.561  0.6318  0.7534  0.3214
11397TIP3    H255607   2.773   1.738   1.679 -0.6622 -0.7658 -0.2637
11398TIP3   OH255608   0.298   1.265  14.761 -0.4047 -0.8531 -0.4030
11398TIP3    H155609   0.277   1.221  14.843 -2.1800  0.4412 -0.1422
11398TIP3    H255610   0.213   1.280  14.719  0.2034  1.8790 -0.7107
11399TIP3   OH255611   5.090   4.745   2.747 -0.4004 -0.2481  0.0305
11399TIP3    H155612   5.117   4.655   2.725 -1.4807 -1.1031  2.0863
11399TIP3    H255613   5.094   4.748   2.842  1.4225  2.5003 -0.0814
11400TIP3   OH255614   4.910   0.584   1.694  0.3756  0.2645  0.4155
11400TIP3    H155615   4.999   0.616   1.707  0.2945  0.7965 -0.3068
11400TIP3    H255616   4.913   0.492   1.720  1.4060 -0.0108 -0.6359
11401TIP3   OH255617   4.501   5.284  15.947  0.2737 -0.3243 -0.0748
11401TIP3    H155618   4.556   5.236  16.008 -0.8755  0.4778  1.6231
11401TIP3    H255619   4.485   5.368  15.989  0.3932  0.6972 -1.9941
11402TIP3   OH255620   1.080   1.293   4.504 -0.0490  0.3883  0.2298
11402TIP3    H155621   1.156   1.301   4.447 -0.1553  1.0901  0.1816
11402TIP3    H255622   1.097   1.354   4.575  0.2710 -0.7595  1.1670
11403TIP3   OH255623   2.690   4.216  13.077 -0.8585  0.1802  0.1236
11403TIP3    H155624   2.677   4.192  12.986  1.3856  0.3918 -0.2844
11403TIP3    H255625   2.727   4.304  13.074  2.5323 -1.1568  1.0430
11404TIP3   OH255626   2.804   6.766  13.903 -0.4517  0.5573 -0.0201
11404TIP3    H155627   2.880   6.713  13.930 -1.1871 -0.6681 -0.3035
11404TIP3    H255628   2.743   6.758  13.976 -0.8344  0.4792 -0.3499
11405TIP3   OH255629   3.226   3.454  12.530 -0.2251  0.2370  0.0075
11405TIP3    H155630   3.314   3.490  12.545 -1.1503  1.2267  3.4489
11405TIP3    H255631   3.200   3.489  12.445  1.7461  1.9724  0.0776
11406TIP3   OH255632   2.971   6.228   1.903 -0.3061 -0.2574 -0.1178
11406TIP3    H155633   3.052   6.279   1.913 -2.1264  2.8175 -0.6432
11406TIP3    H255634   2.909   6.270   1.963 -1.8286 -1.9645 -0.4596
11407TIP3   OH255635   5.951   5.013  16.964 -0.3494  0.3495 -0.1504
11407TIP3    H155636   5.856   5.013  16.952 -0.2568  1.2424 -0.9100
11407TIP3    H255637   5.986   4.977  16.883 -0.0209  0.2050  0.0522
11408TIP3   OH255638   2.681   1.716  15.827  0.0765  0.0531  0.2183
11408TIP3    H155639   2.620   1.654  15.867 -1.2552 -0.1108 -1.9754
11408TIP3    H255640   2.687   1.788  15.890 -2.6928  0.2316  0.3352
11409TIP3   OH255641   4.340   5.707   5.184  0.4646  0.3780  0.0875
11409TIP3    H155642   4.368   5.641   5.121  1.6459  0.0085  0.9764
11409TIP3    H255643   4.245   5.709   5.176  0.5234 -0.4447 -0.9244
11410TIP3   OH255644   2.753   5.181   6.021 -0.3952  0.3840  0.5965
11410TIP3    H155645   2.666   5.148   5.999 -1.5590  3.8211 -0.1754
11410TIP3    H255646   2.750   5.195   6.115 -0.2483 -0.5692  0.7565
11411TIP3   OH255647   2.489   1.763  16.863 -0.3718 -0.6311 -0.0899
11411TIP3    H155648   2.563   1.823  16.865 -0.3838 -0.5424 -1.6371
11411TIP3    H255649   2.425   1.802  16.923  0.4311 -0.1677  0.4632
11412TIP3   OH255650   6.205   0.626   0.316 -0.5096 -0.0049 -0.4077
11412TIP3    H155651   6.111   0.644   0.311 -0.2638  0.8126 -2.4951
11412TIP3    H255652   6.218   0.549   0.261  0.2057  0.5574 -1.0320
11413TIP3   OH255653   4.689   2.557   5.765  0.0690  0.1877  0.2284
11413TIP3    H155654   4.730   2.633   5.804 -1.0186  1.1542 -0.4804
11413TIP3    H255655   4.625   2.593   5.703  1.9612 -1.2542 -2.7024
11414TIP3   OH255656   4.981   4.506   2.633  0.1332 -0.3913  0.2455
11414TIP3    H155657   5.025   4.427   2.604  1.2572 -0.1145  1.1826
11414TIP3    H255658   4.930   4.534   2.557  2.0563 -0.3767 -1.0753
11415TIP3   OH255659   6.509   5.917  11.158  0.0397 -0.2570  0.3042
11415TIP3    H155660   6.476   5.993  11.111  0.2988 -0.8628 -0.8712
11415TIP3    H255661   6.552   5.954  11.235  0.2278  0.7824 -0.2881
11416TIP3   OH255662   6.012   5.726  16.230  0.3617  0.3771 -0.3023
11416TIP3    H155663   6.066   5.804  16.241  2.1974 -0.9223  0.1052
11416TIP3    H255664   6.070   5.663  16.187 -0.8146 -1.0671  0.2126
11417TIP3   OH255665   1.844   0.409  11.897 -0.0980 -0.6692 -0.0000
11417TIP3    H155666   1.805   0.394  11.983 -0.6094 -0.1425 -0.1360
11417TIP3    H255667   1.903   0.484  11.910 -1.0508  0.1651 -0.3571
11418TIP3   OH255668   6.549   1.624  14.212 -0.4581 -0.2824  0.0843
11418TIP3    H155669   6.567   1.698  14.154 -0.4325  1.5481  2.3674
11418TIP3    H255670   6.602   1.553  14.177  0.3733  1.0905 -1.5008
11419TIP3   OH255671   3.874   0.765   4.539 -0.2147 -0.1516 -1.2673
11419TIP3    H155672   3.961   0.734   4.513 -0.2051 -1.0096 -0.2271
11419TIP3    H255673   3.877   0.768   4.634 -0.7360  1.5942 -1.2982
11420TIP3   OH255674   5.578   5.574  12.704  0.8974  0.4338 -0.3510
11420TIP3    H155675   5.617   5.521  12.635 -2.0221  1.6251 -3.0459
11420TIP3    H255676   5.609   5.663  12.686 -1.5921  1.1178 -1.5415
11421TIP3   OH255677   3.064   3.872   2.099 -0.2985  0.8011  0.7976
11421TIP3    H155678   3.050   3.949   2.043  1.2378  1.9094  1.9178
11421TIP3    H255679   3.120   3.815   2.046  0.7283  1.6200  0.9794
11422TIP3   OH255680   6.697   5.708  12.880  0.8767 -0.0473  0.8564
11422TIP3    H155681   6.680   5.748  12.795  1.1988 -2.5663 -0.4207
11422TIP3    H255682   6.617   5.722  12.930  1.3185  3.0181  0.8051
11423TIP3   OH255683   5.093   1.884   1.729 -0.4112  0.3177  0.3286
11423TIP3    H155684   5.070   1.798   1.694  0.6648  0.4197 -0.6630
11423TIP3    H255685   5.183   1.874   1.760 -1.0670  0.4631  2.3317
11424TIP3   OH255686   6.004   4.604  15.916  0.4944 -0.1844  0.0754
11424TIP3    H155687   6.068   4.647  15.973  0.8384 -1.1653  0.4290
11424TIP3    H255688   5.937   4.671  15.901  0.2507 -0.0226  1.8602
11425TIP3   OH255689   0.914   2.947   5.969 -0.6857 -0.3108 -0.9809
11425TIP3    H155690   0.942   2.949   6.060 -1.0799  2.7967 -0.8896
11425TIP3    H255691   0.970   2.881   5.928  0.7324 -0.4486  1.1111
11426TIP3   OH255692   3.684   0.922   0.827 -0.1463 -0.8544  0.5506
11426TIP3    H155693   3.589   0.910   0.822 -0.2783 -1.5839  3.6132
11426TIP3    H255694   3.720   0.840   0.794 -0.6255 -1.1741  0.8165
11427TIP3   OH255695   1.498   2.591   1.399 -0.2356 -0.6501  0.7111
11427TIP3    H155696   1.559   2.558   1.333 -0.1592 -1.8062  1.3381
11427TIP3    H255697   1.448   2.659   1.354  1.4737  0.2870  0.1752
11428TIP3   OH255698   3.286   5.069  10.992  0.3554 -0.4459  0.0943
11428TIP3    H155699   3.241   5.050  11.075  0.3733 -0.2553  0.1472
11428TIP3    H255700   3.246   5.150  10.961  0.6007 -0.3248  0.0947
11429TIP3   OH255701   3.058   1.971  16.460  0.0063  0.3880  0.5091
11429TIP3    H155702   3.099   1.887  16.439 -0.1008  0.3295  0.5320
11429TIP3    H255703   3.124   2.037  16.437 -0.1013  0.3234  0.0060
11430TIP3   OH255704   3.064   4.620  16.802  0.4835 -0.5167  0.0109
11430TIP3    H155705   3.107   4.659  16.878 -0.2201 -2.3903  1.4109
11430TIP3    H255706   2.971   4.640  16.813  0.2374 -1.7233  0.2498
11431TIP3   OH255707   0.502   5.669  11.283  0.4174  0.4932 -0.5780
11431TIP3    H155708   0.573   5.662  11.218  1.2300 -1.9703  0.5303
11431TIP3    H255709   0.462   5.754  11.265  3.1322  1.5859 -1.7713
11432TIP3   OH255710   3.803   1.238   1.842  0.6963  0.0248 -0.2156
11432TIP3    H155711   3.820   1.290   1.763  0.6170  0.6776  0.1920
11432TIP3    H255712   3.776   1.152   1.809 -1.0606  0.8254 -0.9370
11433TIP3   OH255713   2.059   5.581  14.072 -0.1166 -0.3831  0.5732
11433TIP3    H155714   1.965   5.586  14.056 -0.5420 -1.0922  2.6466
11433TIP3    H255715   2.075   5.487  14.084  1.3118 -0.5380 -2.2136
11434TIP3   OH255716   6.721   6.306  15.653 -0.0864  0.5471 -0.0455
11434TIP3    H155717   6.662   6.343  15.587 -1.3404 -0.8119  0.2958
11434TIP3    H255718   6.675   6.230  15.687  1.6954 -0.3144  0.5245
11435TIP3   OH255719   0.568   3.759   4.570 -0.2011  0.2896  0.3835
11435TIP3    H155720   0.512   3.804   4.632 -1.9284 -0.4131 -0.6390
11435TIP3    H255721   0.618   3.697   4.623 -0.8437  0.4873  1.2216
11436TIP3   OH255722   5.814   1.129   0.991 -0.6173 -0.3013  0.7868
11436TIP3    H155723   5.719   1.117   0.980 -0.7011  1.4391 -0.5769
11436TIP3    H255724   5.823   1.219   1.022  0.6566  0.1028 -0.6723
11437TIP3   OH255725   4.560   6.527  11.425 -0.7168 -0.2939 -0.0902
11437TIP3    H155726   4.509   6.555  11.501  1.4385  0.5957  1.0707
11437TIP3    H255727   4.541   6.434  11.418 -1.1580 -0.3409  1.3747
11438TIP3   OH255728   3.537   6.363   1.691 -0.4262 -0.0093  0.0556
11438TIP3    H155729   3.521   6.371   1.597  0.2767 -1.1749 -0.1834
11438TIP3    H255730   3.459   6.318   1.725 -0.5423  0.1334 -0.0238
11439TIP3   OH255731   5.061   6.076  16.907 -0.4409 -0.5778  0.5143
11439TIP3    H155732   5.099   6.031  16.831 -2.7541  0.1493 -1.1236
11439TIP3    H255733   5.088   6.167  16.896  0.5687 -0.7585  1.4567
11440TIP3   OH255734   3.593   1.207  11.669 -0.0715 -0.2319  0.1463
11440TIP3    H155735   3.602   1.158  11.751 -1.9153  0.2971  0.6963
11440TIP3    H255736   3.539   1.283  11.692  1.0112  0.9634 -1.1483
11441TIP3   OH255737   4.049   1.505  12.035 -1.0388 -0.1026  0.2974
11441TIP3    H155738   4.130   1.526  12.082 -0.9292  0.1180  0.0131
11441TIP3    H255739   3.980   1.544  12.089 -0.9708 -0.4295  0.6243
11442TIP3   OH255740   5.900   2.326  11.370 -0.3336 -0.1746  0.0399
11442TIP3    H155741   5.942   2.379  11.303 -0.0608  2.9518  2.5922
11442TIP3    H255742   5.808   2.322  11.343  0.0954 -0.5158 -1.4360
11443TIP3   OH255743   0.528   0.414   5.202  0.2583 -0.0105  0.5189
11443TIP3    H155744   0.553   0.462   5.281 -0.1294  1.2746 -0.1082
11443TIP3    H255745   0.492   0.482   5.145 -0.1524 -1.0525 -0.4608
11444TIP3   OH255746   4.480   3.861   0.410  0.3151 -0.6005 -0.4706
11444TIP3    H155747   4.551   3.872   0.473 -0.2749 -0.4073  0.1603
11444TIP3    H255748   4.505   3.782   0.361  0.2755 -1.3461  0.6825
11445TIP3   OH255749   5.145   2.744  15.037 -0.1308 -0.5238  0.6279
11445TIP3    H155750   5.105   2.680  14.978  2.7789 -0.4400 -1.5247
11445TIP3    H255751   5.168   2.694  15.115  1.3388 -1.9377 -0.6896
11446TIP3   OH255752   0.856   1.699  15.028  0.2265 -0.4701  0.0360
11446TIP3    H155753   0.807   1.619  15.051 -0.4552  0.4351  1.8235
11446TIP3    H255754   0.796   1.748  14.972  0.4332 -0.9445 -0.6112
11447TIP3   OH255755   5.840   1.131   2.626 -0.0597  0.2544  0.2295
11447TIP3    H155756   5.899   1.206   2.618 -2.2534  2.0283  0.2689
11447TIP3    H255757   5.837   1.113   2.720  0.4916  0.0984  0.2170
11448TIP3   OH255758   6.005   3.455  16.856  0.4133  0.0195  0.0919
11448TIP3    H155759   6.010   3.544  16.892 -0.8268  0.0665  0.1797
11448TIP3    H255760   5.939   3.462  16.787 -1.3472 -1.3162  1.5943
11449TIP3   OH255761   5.950   4.160   2.574 -0.3527 -0.2828  0.2197
11449TIP3    H155762   5.998   4.078   2.576  1.6490  0.8252 -0.5334
11449TIP3    H255763   5.992   4.211   2.505 -1.9018  1.1783  0.3021
11450TIP3   OH255764   2.502   4.758   1.592  0.1603 -0.0660  0.4170
11450TIP3    H155765   2.440   4.692   1.625 -0.1021 -0.1780 -0.2753
11450TIP3    H255766   2.460   4.842   1.611  0.7465 -0.0667  1.7974
11451TIP3   OH255767   0.826   1.345  15.511  0.1332  0.6454  0.0675
11451TIP3    H155768   0.813   1.433  15.545 -1.0359 -0.1267  1.7310
11451TIP3    H255769   0.803   1.351  15.419 -0.7801  1.8934  0.3623
11452TIP3   OH255770   0.684   4.857   4.950 -0.2127  0.3561  0.3312
11452TIP3    H155771   0.618   4.791   4.925  0.0153  0.8665 -1.7412
11452TIP3    H255772   0.645   4.901   5.026 -2.7162  1.2484 -1.3865
11453TIP3   OH255773   1.055   2.541   2.346 -0.3674 -0.2026  0.0198
11453TIP3    H155774   1.015   2.525   2.431 -0.6710 -0.4162 -0.1663
11453TIP3    H255775   1.032   2.632   2.325 -0.3318 -0.1652  0.1437
11454TIP3   OH255776   5.864   5.819  13.440  0.4401  0.0899  0.9044
11454TIP3    H155777   5.887   5.730  13.415 -1.6895 -0.3427  0.3943
11454TIP3    H255778   5.846   5.863  13.357 -1.6881  0.0745  1.3436
11455TIP3   OH255779   4.971   5.308   3.418 -0.6989 -0.8646  1.2940
11455TIP3    H155780   4.953   5.247   3.489 -1.3011 -1.0314  0.9997
11455TIP3    H255781   5.046   5.359   3.448 -2.1833  0.4197  2.9239
11456TIP3   OH255782   4.765   1.624  15.910 -0.1993 -0.2480 -0.0873
11456TIP3    H155783   4.817   1.545  15.897  0.9538  0.0523  2.3259
11456TIP3    H255784   4.756   1.631  16.005 -2.4627  1.1308 -0.3672
11457TIP3   OH255785   2.185   0.661  12.686 -0.5054 -0.0640 -0.4521
11457TIP3    H155786   2.234   0.690  12.609 -0.5659 -1.7795 -1.1549
11457TIP3    H255787   2.119   0.728  12.699 -1.0179 -0.1712 -2.4048
11458TIP3   OH255788   6.671   5.378   2.672 -0.1575  0.2104 -0.2077
11458TIP3    H155789   6.684   5.463   2.713 -0.5925  0.7976 -1.2638
11458TIP3    H255790   6.614   5.396   2.597 -0.5774 -1.0702 -0.2103
11459TIP3   OH255791   2.581   4.184  16.312  0.6459  0.2172 -0.4867
11459TIP3    H155792   2.550   4.181  16.403 -0.6095  0.0440 -0.9128
11459TIP3    H255793   2.578   4.277  16.289  0.9161  0.2555 -0.3700
11460TIP3   OH255794   0.847   0.660   0.020  0.0194 -0.1782 -0.6965
11460TIP3    H155795   0.900   0.736  -0.007  0.0257  0.2567  0.4898
11460TIP3    H255796   0.774   0.698   0.069  0.7295 -1.0037  1.0464
11461TIP3   OH255797   5.204   6.575  16.388 -0.1947  0.0347  0.3558
11461TIP3    H155798   5.243   6.661  16.407 -1.4675  0.7788 -0.3418
11461TIP3    H255799   5.185   6.538  16.474 -0.1316  0.6793  0.6510
11462TIP3   OH255800   5.572   0.749  11.205 -0.0559 -0.3900  0.1180
11462TIP3    H155801   5.633   0.813  11.242 -1.6123  2.1392 -1.5034
11462TIP3    H255802   5.626   0.695  11.147  0.7338  1.6780 -1.1462
11463TIP3   OH255803   1.985   4.314  12.926  0.2100 -0.0235  0.6208
11463TIP3    H155804   1.954   4.357  12.846  0.7388 -0.6172  0.0911
11463TIP3    H255805   2.030   4.383  12.974  0.7981  0.1006 -0.0895
11464TIP3   OH255806   3.481   5.289  13.826 -0.9532 -0.4048 -0.1235
11464TIP3    H155807   3.434   5.313  13.746 -2.9227 -0.4188  0.9836
11464TIP3    H255808   3.452   5.200  13.844 -0.7791 -0.2772  0.7935
11465TIP3   OH255809   5.979   3.345   3.049 -0.5059 -0.3585  0.4199
11465TIP3    H155810   6.071   3.355   3.027 -0.6065 -0.4191 -0.0352
11465TIP3    H255811   5.934   3.410   2.996 -0.6371  0.2781  1.3002
11466TIP3   OH255812   3.141   3.201  13.525  0.1721 -0.5966 -0.5902
11466TIP3    H155813   3.062   3.239  13.488  0.0853 -0.2266 -0.0213
11466TIP3    H255814   3.153   3.118  13.477 -1.3875 -1.3901  0.3884
11467TIP3   OH255815   1.445   3.135  17.127 -0.1397  0.3558  0.7017
11467TIP3    H155816   1.496   3.110  17.204  0.8153  0.0265 -0.0238
11467TIP3    H255817   1.468   3.069  17.061 -1.5662  0.1606  0.3866
11468TIP3   OH255818   4.564   3.101   6.694  0.7116 -0.1946  0.9494
11468TIP3    H155819   4.498   3.143   6.639  2.6913  3.0014  0.9047
11468TIP3    H255820   4.550   3.137   6.781  0.4359 -1.8757  1.6206
11469TIP3   OH255821   4.718   4.010  16.445  0.3485 -0.0527  0.2298
11469TIP3    H155822   4.757   4.004  16.532  1.0561  1.8663  0.0611
11469TIP3    H255823   4.628   3.980  16.457  0.0112  1.5585  1.9421
11470TIP3   OH255824   3.723   4.121   1.399 -0.4369 -0.8551 -0.8858
11470TIP3    H155825   3.800   4.116   1.342 -0.3356 -0.0910 -0.8263
11470TIP3    H255826   3.718   4.213   1.424 -0.0339 -1.2842  0.9245
11471TIP3   OH255827   1.578   2.737  15.856  0.4861  0.4328  0.2796
11471TIP3    H155828   1.607   2.668  15.797  0.5398  0.2660  0.4985
11471TIP3    H255829   1.657   2.762  15.904  0.9854  2.2740 -1.4402
11472TIP3   OH255830   1.096   0.298  15.557  0.2713 -0.1357 -0.1717
11472TIP3    H155831   1.018   0.242  15.560 -0.3990  0.8261  0.6453
11472TIP3    H255832   1.070   0.377  15.605  0.9386  1.2054 -1.9911
11473TIP3   OH255833   1.564   4.664  13.384  0.0446  0.1483  0.1327
11473TIP3    H155834   1.506   4.649  13.459  1.5602 -0.4201  1.2211
11473TIP3    H255835   1.506   4.695  13.315 -1.5328 -0.2588  1.2405
11474TIP3   OH255836   3.532   4.353  15.191 -0.7564 -0.0199  0.1358
11474TIP3    H155837   3.446   4.316  15.213 -1.3904  0.8204 -0.9016
11474TIP3    H255838   3.527   4.370  15.097  0.3980  0.4332  0.1552
11475TIP3   OH255839   0.902   1.094  14.709 -0.4417  0.0111 -0.0514
11475TIP3    H155840   0.983   1.145  14.717 -0.1572 -0.5540  0.7240
11475TIP3    H255841   0.850   1.119  14.785  0.1578 -1.6377  0.9415
11476TIP3   OH255842   0.240   2.727  12.768 -0.2299  0.4904 -1.2288
11476TIP3    H155843   0.232   2.646  12.718  0.3453 -0.2585 -0.1262
11476TIP3    H255844   0.334   2.745  12.769 -0.4524  1.8121 -2.4542
11477TIP3   OH255845   3.859   0.560   5.427  0.6355 -0.4033  0.5928
11477TIP3    H155846   3.946   0.580   5.393  0.0054  1.0312 -0.2185
11477TIP3    H255847   3.874   0.497   5.497  2.5969  1.8754  2.3084
11478TIP3   OH255848   2.124   2.229  11.091  0.0096 -0.0530 -0.2749
11478TIP3    H155849   2.068   2.177  11.033 -1.6208  1.4495 -0.0722
11478TIP3    H255850   2.188   2.270  11.033 -1.7638  1.6442 -1.0905
11479TIP3   OH255851   4.460   3.814  12.280  0.1105 -0.6808  0.2513
11479TIP3    H155852   4.395   3.881  12.299  0.7493 -0.2219  0.8420
11479TIP3    H255853   4.413   3.750  12.226 -0.6427 -0.0228  0.1098
11480TIP3   OH255854   0.001   6.662   3.464  0.7131  0.0396  0.5186
11480TIP3    H155855  -0.039   6.609   3.533  0.5809 -2.1938 -1.2276
11480TIP3    H255856  -0.051   6.644   3.386  1.7187  1.4459 -0.5042
11481TIP3   OH255857   2.370   1.619   0.698  0.2823  0.1471 -0.7370
11481TIP3    H155858   2.378   1.701   0.648 -0.3983  1.3836  1.1456
11481TIP3    H255859   2.402   1.642   0.785 -2.6367 -0.8370  0.6167
11482TIP3   OH255860   5.494   0.494  11.460  0.1082 -0.5646  0.2142
11482TIP3    H155861   5.587   0.515  11.469  0.4110 -1.6019 -0.4529
11482TIP3    H255862   5.451   0.579  11.453  1.0126 -0.0813  0.4280
11483TIP3   OH255863   3.400   1.758  15.494 -0.0058  0.1977 -0.3458
11483TIP3    H155864   3.370   1.716  15.413  0.6774 -1.7898  0.3870
11483TIP3    H255865   3.358   1.708  15.564  0.5164  1.0107  0.5632
11484TIP3   OH255866   2.874   5.300   0.759 -0.4837 -0.2158  0.0304
11484TIP3    H155867   2.944   5.319   0.697  0.5293 -1.5166  0.7493
11484TIP3    H255868   2.909   5.325   0.844 -1.7271  1.1905  0.1478
11485TIP3   OH255869   6.350   5.856  14.017  0.0176 -0.1188  0.1204
11485TIP3    H155870   6.262   5.825  13.997 -0.8515  1.1156  1.9293
11485TIP3    H255871   6.386   5.790  14.076 -0.6617  0.6569  1.4271
11486TIP3   OH255872   0.520   5.395   4.657  0.6983 -0.7733  0.0392
11486TIP3    H155873   0.430   5.411   4.684  1.0692 -0.6768  1.2276
11486TIP3    H255874   0.571   5.461   4.704  1.5924 -1.9578  0.7577
11487TIP3   OH255875   2.447   1.456   2.479 -0.5591  0.3883 -0.3129
11487TIP3    H155876   2.408   1.393   2.540 -1.9662  0.4057 -1.1590
11487TIP3    H255877   2.418   1.426   2.392  1.6198  0.2105 -1.0146
11488TIP3   OH255878   5.367   2.078   5.390 -0.1144 -0.4786 -0.3450
11488TIP3    H155879   5.312   2.063   5.468 -2.6820 -0.0893 -2.0094
11488TIP3    H255880   5.375   2.173   5.385  2.1874 -0.5709  0.8200
11489TIP3   OH255881   1.359   3.995  11.526  0.3797 -0.6323 -0.3493
11489TIP3    H155882   1.308   4.071  11.499  0.3373 -0.2108  0.9114
11489TIP3    H255883   1.385   3.954  11.444  1.3145  1.3443 -1.0831
11490TIP3   OH255884   3.111   4.900   4.411 -0.5496  0.4398  0.2242
11490TIP3    H155885   3.166   4.975   4.434 -0.3018  0.2698  0.2001
11490TIP3    H255886   3.167   4.824   4.428 -0.7251  0.2708  0.0529
11491TIP3   OH255887   3.631   3.298  14.775 -0.0817  0.0579  0.0234
11491TIP3    H155888   3.567   3.239  14.814  0.5455  0.2920  1.4548
11491TIP3    H255889   3.580   3.360  14.723 -0.8802 -0.6683 -0.0542
11492TIP3   OH255890   0.349   1.229  16.580  0.2989 -0.5010 -0.7203
11492TIP3    H155891   0.301   1.166  16.526  0.7013 -1.3817 -0.0709
11492TIP3    H255892   0.441   1.216  16.555  0.6169 -1.7275  0.9561
11493TIP3   OH255893   4.562   1.869  11.580  0.1498  1.0502 -0.1114
11493TIP3    H155894   4.487   1.860  11.638 -0.9277 -2.6923 -1.9349
11493TIP3    H255895   4.638   1.854  11.637 -0.9072 -3.2085  0.3859
11494TIP3   OH255896   0.340   6.656  16.762 -0.0571 -0.3775  0.0642
11494TIP3    H155897   0.274   6.693  16.702  0.5052 -0.6160 -0.7172
11494TIP3    H255898   0.419   6.706  16.743 -0.9135  2.6160  3.7474
11495TIP3   OH255899   2.952   0.317  11.612 -0.2959 -0.3302 -0.0421
11495TIP3    H155900   2.935   0.331  11.519 -0.6569  1.6517  0.3047
11495TIP3    H255901   3.004   0.236  11.615 -0.4163 -0.4976 -1.9398
11496TIP3   OH255902   0.834   4.195   0.064 -0.0342 -0.0095 -0.2459
11496TIP3    H155903   0.862   4.271   0.116  0.7046 -0.4016 -0.0622
11496TIP3    H255904   0.857   4.119   0.117  4.1944 -0.5786 -2.6612
11497TIP3   OH255905   4.730   5.423   0.857  0.7610  0.1546  0.7129
11497TIP3    H155906   4.781   5.405   0.936 -0.7165 -1.0175  1.4269
11497TIP3    H255907   4.667   5.490   0.885  0.7765  0.3384  0.3066
11498TIP3   OH255908   2.957   2.294  11.452 -0.6429 -0.3826 -0.1457
11498TIP3    H155909   2.989   2.372  11.497 -2.8992 -0.7749  2.2234
11498TIP3    H255910   2.927   2.325  11.367 -0.5679  1.1672  0.3909
11499TIP3   OH255911   2.270   0.276  14.528  0.0040  0.8446  0.3178
11499TIP3    H155912   2.268   0.297  14.621  2.3575  0.3231  0.5276
11499TIP3    H255913   2.181   0.248  14.507 -0.2217 -0.3533  2.7274
11500TIP3   OH255914   3.354   6.735  12.180  0.2709  0.2961 -0.3749
11500TIP3    H155915   3.354   6.819  12.133 -0.8562 -0.5487 -1.9345
11500TIP3    H255916   3.281   6.742  12.241  1.7691  1.4176  1.3280
11501TIP3   OH255917   4.074   4.222  12.024  0.2441  0.1314  0.2479
11501TIP3    H155918   4.010   4.285  11.989  1.6609  0.2277 -2.2481
11501TIP3    H255919   4.152   4.275  12.041  0.0796 -0.2073  2.1566
11502TIP3   OH255920   2.456   3.056  11.702  0.6523 -0.2722 -0.2248
11502TIP3    H155921   2.544   3.089  11.687  0.2686  1.6187  1.4152
11502TIP3    H255922   2.442   2.990  11.634  2.5567  0.8805 -1.7549
11503TIP3   OH255923   5.373   6.740  14.461 -0.6916 -0.1530  0.2731
11503TIP3    H155924   5.362   6.820  14.408 -1.0008 -0.6162 -0.3640
11503TIP3    H255925   5.331   6.761  14.544 -0.3542  0.5218  0.2839
11504TIP3   OH255926   2.408   6.234   0.088 -0.2445 -0.1313  0.0188
11504TIP3    H155927   2.484   6.259   0.141 -0.9928  0.3925  0.8607
11504TIP3    H255928   2.416   6.286   0.008  0.1957  0.0483  0.1778
11505TIP3   OH255929   6.497   2.118   1.988  0.3223  0.1621 -0.2234
11505TIP3    H155930   6.491   2.113   2.083 -0.7973 -2.2066 -0.3972
11505TIP3    H255931   6.589   2.098   1.969 -0.1038 -2.3931  0.2170
11506TIP3   OH255932   4.727   2.990  15.696  0.0279  0.4883 -0.1559
11506TIP3    H155933   4.776   3.066  15.728  2.2523 -0.6267 -0.8243
11506TIP3    H255934   4.732   2.927  15.768 -0.8838  0.5699 -0.0213
11507TIP3   OH255935   1.941   4.949  12.704 -0.8895 -0.0069  0.2084
11507TIP3    H155936   1.962   4.998  12.783 -0.6457  0.2842 -0.0374
11507TIP3    H255937   2.004   4.979  12.639  1.5613 -3.1769  1.0079
11508TIP3   OH255938   5.717   1.613   4.892 -0.0969 -0.8262 -0.1103
11508TIP3    H155939   5.665   1.684   4.855  1.9740  0.6999 -0.1391
11508TIP3    H255940   5.675   1.593   4.976  0.9078  2.3017  1.1855
11509TIP3   OH255941   4.351   2.041  15.734 -0.1091 -0.0572 -0.5758
11509TIP3    H155942   4.401   2.062  15.813  1.1116 -3.3508 -0.3921
11509TIP3    H255943   4.364   2.116  15.677  3.7814 -0.1069  0.1155
11510TIP3   OH255944   1.337   0.998  13.368  0.7621  0.1198 -0.1847
11510TIP3    H155945   1.399   1.045  13.313  1.4709  2.3270  2.4081
11510TIP3    H255946   1.391   0.958  13.436 -0.4680  0.6824  1.1410
11511TIP3   OH255947   2.069   6.041   3.772 -0.1406  0.0571  0.2299
11511TIP3    H155948   2.077   6.124   3.819  2.8591  0.7716 -1.3872
11511TIP3    H255949   2.010   6.060   3.699 -1.9823 -0.1203  1.6416
11512TIP3   OH255950   3.876   3.993  16.216  0.4157 -0.2366 -0.5082
11512TIP3    H155951   3.793   3.967  16.257  0.3847 -0.0562 -0.4570
11512TIP3    H255952   3.939   3.992  16.288 -0.0970  2.2575 -0.0055
11513TIP3   OH255953   5.752   4.701  11.285 -0.2124  0.7211  0.1443
11513TIP3    H155954   5.755   4.789  11.321 -1.0298  0.7313  0.2005
11513TIP3    H255955   5.659   4.684  11.272 -0.0788 -0.2590  0.4365
11514TIP3   OH255956   0.770   6.081  15.984  0.4776  0.1499 -0.2765
11514TIP3    H155957   0.818   6.117  16.058 -0.2537 -0.4826  0.5103
11514TIP3    H255958   0.760   5.988  16.005  0.6306 -0.1238 -1.3668
11515TIP3   OH255959   4.107   3.707   5.453 -0.5816  0.2232 -0.5074
11515TIP3    H155960   4.073   3.694   5.364  1.1178  1.5936 -1.4137
11515TIP3    H255961   4.049   3.772   5.492  0.0537  1.4027 -1.4868
11516TIP3   OH255962   3.877   5.917  16.516  0.3104  0.1850  0.3832
11516TIP3    H155963   3.863   5.972  16.439 -1.0746  0.5490  0.8872
11516TIP3    H255964   3.969   5.890  16.510  0.8845  2.1983 -0.0814
11517TIP3   OH255965   0.132   0.453   3.382  0.3874 -0.4104 -0.1773
11517TIP3    H155966   0.180   0.408   3.451 -0.4396  0.7460  1.1718
11517TIP3    H255967   0.146   0.546   3.398  3.2230 -0.1144 -3.7691
11518TIP3   OH255968   5.577   3.973  13.774 -0.4236  0.0285  0.1515
11518TIP3    H155969   5.640   3.999  13.841  2.3277 -1.6956 -1.6573
11518TIP3    H255970   5.534   3.895  13.811  0.9963 -0.8462 -0.0028
11519TIP3   OH255971   2.516   4.087  14.477 -0.3661  0.1666 -0.1768
11519TIP3    H155972   2.555   4.175  14.481 -1.1924  0.5133  0.4128
11519TIP3    H255973   2.474   4.084  14.390  1.7360 -0.5530 -1.2000
11520TIP3   OH255974   2.452   6.303  15.067 -0.2994 -0.1997  0.1382
11520TIP3    H155975   2.463   6.233  15.133 -0.9851 -0.5212 -0.0894
11520TIP3    H255976   2.431   6.381  15.118  1.0533 -0.0120  0.4426
11521TIP3   OH255977   6.125   2.075   3.985 -0.3894  0.1182  0.0896
11521TIP3    H155978   6.041   2.114   3.962  0.0803  1.2511  0.2865
11521TIP3    H255979   6.123   1.989   3.943 -1.1717  0.5903 -0.8648
11522TIP3   OH255980   6.226   1.844   2.918  0.0262 -0.0252 -0.0100
11522TIP3    H155981   6.317   1.866   2.941  0.7844 -1.5850 -1.4332
11522TIP3    H255982   6.173   1.890   2.983  1.9190 -0.6891  2.0599
11523TIP3   OH255983   6.096   5.982  13.037 -0.2625 -0.9409  0.3617
11523TIP3    H155984   6.184   5.979  13.000 -1.0125 -1.1266 -1.4453
11523TIP3    H255985   6.064   6.070  13.018 -0.6893 -1.0577  0.5121
11524TIP3   OH255986   3.909   3.384  14.028  0.3207 -0.1089 -0.6181
11524TIP3    H155987   3.863   3.452  13.980 -1.2540 -0.7439 -0.0436
11524TIP3    H255988   3.907   3.308  13.970 -2.0558 -1.0428  0.5725
11525TIP3   OH255989   2.628   2.812  15.860 -0.4307  0.2699  0.2684
11525TIP3    H155990   2.674   2.853  15.933  1.2878 -1.9060  0.4561
11525TIP3    H255991   2.663   2.855  15.782  0.7218 -0.2065  0.5146
11526TIP3   OH255992   0.678   1.500   1.368 -0.3286 -0.0758  0.4046
11526TIP3    H155993   0.619   1.479   1.295  0.6552 -1.1619 -0.0998
11526TIP3    H255994   0.723   1.580   1.341  2.1318 -2.0259 -1.5069
11527TIP3   OH255995   6.158   1.990  11.378 -0.2958  0.1737 -0.2224
11527TIP3    H155996   6.254   1.988  11.386 -0.3117 -0.2155 -0.1259
11527TIP3    H255997   6.130   2.052  11.444 -0.2958 -1.6291  1.5143
11528TIP3   OH255998   5.607   3.265  11.155  0.5299 -0.7581 -0.2520
11528TIP3    H155999   5.564   3.344  11.186 -2.1109 -1.8023 -1.0719
11528TIP3    H256000   5.603   3.271  11.060  3.7441 -0.1092 -0.3904
11529TIP3   OH256001   4.781   5.594   6.332  0.6762 -0.0773 -0.2118
11529TIP3    H156002   4.834   5.673   6.320 -0.1784  0.5147 -0.1473
11529TIP3    H256003   4.842   5.522   6.318  1.3626  0.5954 -0.7419
11530TIP3   OH256004   6.559   5.394  14.231  0.5540  0.4263 -0.2951
11530TIP3    H156005   6.508   5.337  14.289 -0.4035  1.4556 -0.1095
11530TIP3    H256006   6.516   5.385  14.146  0.8615  0.2789 -0.4304
11531TIP3   OH256007   3.710   2.667   2.677 -0.6729 -0.0066  0.3002
11531TIP3    H156008   3.727   2.757   2.646  0.1978  0.0524  0.9206
11531TIP3    H256009   3.727   2.612   2.600 -0.5407  0.3031  0.1049
11532TIP3   OH256010   5.521   6.466  15.245 -0.8229  0.1477  0.1099
11532TIP3    H156011   5.516   6.448  15.151 -1.5860  0.6033  0.0587
11532TIP3    H256012   5.571   6.392  15.280  0.9786  0.8631 -0.8964
11533TIP3   OH256013   4.496   2.668  12.943  0.3536  0.2457  0.0920
11533TIP3    H156014   4.512   2.616  12.865  1.1581  0.7698 -0.0874
11533TIP3    H256015   4.433   2.735  12.915  1.6962  1.2955 -0.4678
11534TIP3   OH256016   5.078   6.775  11.495 -0.1027  0.5982  0.7741
11534TIP3    H156017   4.996   6.731  11.519  0.0788 -0.3766 -0.3042
11534TIP3    H256018   5.089   6.844  11.560 -2.2045  1.2633  0.4835
11535TIP3   OH256019   5.327   1.667  15.661  0.0601 -0.0183  0.5225
11535TIP3    H156020   5.250   1.720  15.681  0.6156  0.9943  0.0409
11535TIP3    H256021   5.349   1.625  15.744 -0.6781  0.1409  0.7976
11536TIP3   OH256022   1.854   0.014  12.138  0.2388 -0.9204 -0.3284
11536TIP3    H156023   1.888   0.062  12.214  0.3462  0.3847 -1.1999
11536TIP3    H256024   1.759   0.024  12.144  0.2009 -1.4431  0.0342
11537TIP3   OH256025   4.965   3.133   2.251  0.3276  0.1107 -0.2069
11537TIP3    H156026   5.020   3.111   2.176  0.6664  2.2123 -0.6226
11537TIP3    H256027   5.020   3.115   2.327 -0.3556 -2.9345 -0.4108
11538TIP3   OH256028   0.534   0.185  16.258 -0.1728  0.1087  0.0213
11538TIP3    H156029   0.468   0.219  16.318 -0.4472  0.9414 -0.7504
11538TIP3    H256030   0.567   0.106  16.302 -0.1487  0.8808  1.4082
11539TIP3   OH256031   4.033   4.697   6.272 -0.7971  0.1108 -0.1832
11539TIP3    H156032   4.034   4.783   6.230  0.8241  0.0939 -0.2151
11539TIP3    H256033   4.114   4.655   6.243 -1.1588 -1.0960  0.5153
11540TIP3   OH256034   3.576   4.269   0.986  0.4057  0.8968 -0.1244
11540TIP3    H156035   3.620   4.261   0.902 -2.2677  0.5952 -1.5612
11540TIP3    H256036   3.615   4.346   1.027  3.5923 -0.4786 -0.4331
11541TIP3   OH256037   6.113   1.189   3.597  0.2407 -0.2020  0.3534
11541TIP3    H156038   6.172   1.184   3.521 -0.2783 -0.3745 -0.0400
11541TIP3    H256039   6.073   1.102   3.601 -0.6440  0.1874  0.0898
11542TIP3   OH256040   6.433   4.560   1.012 -0.3565  0.3572  0.1436
11542TIP3    H156041   6.457   4.467   1.011 -1.7501 -0.0287  1.6086
11542TIP3    H256042   6.501   4.601   1.065 -0.0650  0.0886 -0.0195
11543TIP3   OH256043   0.767   2.142   3.225  0.5569  0.1103 -0.4424
11543TIP3    H156044   0.779   2.161   3.318  0.7303  2.1011 -0.8476
11543TIP3    H256045   0.809   2.057   3.212 -0.0132 -0.4778  1.4188
11544TIP3   OH256046   5.619   1.753  15.268 -0.3063 -0.0953 -0.0934
11544TIP3    H156047   5.697   1.804  15.244 -0.1534 -0.1205  0.3413
11544TIP3    H256048   5.610   1.688  15.198  1.3660 -1.5400  0.9834
11545TIP3   OH256049   3.736   2.751  13.575  0.2162 -0.6361  0.4221
11545TIP3    H156050   3.677   2.761  13.649  0.2615 -3.4194  0.8674
11545TIP3    H256051   3.775   2.838  13.564 -1.4675  0.3789  2.2052
11546TIP3   OH256052   6.600   5.632   0.067 -0.0317  0.3627  0.1963
11546TIP3    H156053   6.529   5.574   0.095 -0.8536  1.6155  0.7755
11546TIP3    H256054   6.556   5.715   0.047  0.9557  0.4091 -1.8597
11547TIP3   OH256055   3.564   1.994  13.348 -0.5269  0.0361  0.0656
11547TIP3    H156056   3.509   2.052  13.400  1.6327  2.2574 -0.0117
11547TIP3    H256057   3.645   2.044  13.334  1.0308 -2.6375 -0.8310
11548TIP3   OH256058   5.948   1.386   1.728 -0.6438  0.1706 -0.3475
11548TIP3    H156059   5.901   1.318   1.776 -0.5938  0.3755 -0.0092
11548TIP3    H256060   5.941   1.464   1.783  0.0197  0.2210 -0.3321
11549TIP3   OH256061   5.164   2.832   0.619 -0.4463  0.3874  0.2767
11549TIP3    H156062   5.112   2.783   0.555 -1.8377  0.1520  1.5654
11549TIP3    H256063   5.216   2.893   0.566 -1.8379  0.4480 -1.0576
11550TIP3   OH256064   3.592   2.095  15.294  0.0092 -0.0232 -0.4001
11550TIP3    H156065   3.597   2.014  15.344 -1.6179 -0.6870 -1.2835
11550TIP3    H256066   3.680   2.133  15.302  0.5668 -1.4775  0.6530
11551TIP3   OH256067   3.709   0.799   5.773 -0.5909  0.2259 -0.0848
11551TIP3    H156068   3.630   0.772   5.821 -1.2785  1.0149 -0.7621
11551TIP3    H256069   3.714   0.893   5.787  0.2879  0.1684  0.0245
11552TIP3   OH256070   6.335   5.030   1.173  0.1671 -0.0064  0.2493
11552TIP3    H156071   6.255   4.989   1.207 -0.0240  1.9383  2.2661
11552TIP3    H256072   6.396   5.029   1.246  1.2217  0.5569 -0.6007
11553TIP3   OH256073   6.417   4.095   2.458  0.1341 -0.5660  0.2961
11553TIP3    H156074   6.471   4.170   2.435 -0.6328 -0.2743 -0.5723
11553TIP3    H256075   6.475   4.019   2.447 -0.2305 -0.4420 -2.7350
11554TIP3   OH256076   1.587   0.751  16.880  0.3488 -0.1153 -0.8972
11554TIP3    H156077   1.557   0.725  16.793  1.6101  2.0507 -2.0310
11554TIP3    H256078   1.672   0.792  16.865  0.4589  0.5540  1.3207
11555TIP3   OH256079   6.395   3.061  13.017  0.2363 -0.6028 -0.1974
11555TIP3    H156080   6.341   3.130  12.978  0.6460 -0.5333 -0.6419
11555TIP3    H256081   6.371   2.982  12.968 -0.4874 -0.8540  0.5398
11556TIP3   OH256082   1.359   0.208  11.190  0.0079 -0.8002 -0.2214
11556TIP3    H156083   1.416   0.236  11.119 -1.2134 -1.7076 -1.5954
11556TIP3    H256084   1.272   0.237  11.163 -0.4571 -1.0923  0.9420
11557TIP3   OH256085   3.310   2.148   5.039  0.4845 -0.2471  0.3495
11557TIP3    H156086   3.330   2.222   5.096  1.9527  0.3371 -0.8923
11557TIP3    H256087   3.223   2.167   5.003  0.9690  1.0212 -0.1730
11558TIP3   OH256088   6.711   3.088  11.628  0.6252  0.3869  0.0779
11558TIP3    H156089   6.753   3.069  11.712 -0.9241  1.0123  0.9981
11558TIP3    H256090   6.687   3.002  11.593  0.3749  0.1876  0.7440
11559TIP3   OH256091   1.690   1.446  16.119  0.2563 -0.1628 -0.4772
11559TIP3    H156092   1.639   1.384  16.171 -0.8107  1.6287  0.6712
11559TIP3    H256093   1.781   1.424  16.137 -0.0711 -2.2662 -1.1672
11560TIP3   OH256094   5.049   0.593   1.031 -0.3275  0.2739 -0.1073
11560TIP3    H156095   5.124   0.551   0.989 -0.3136  0.3662 -0.1739
11560TIP3    H256096   5.062   0.687   1.015  1.0254  0.5321  2.2669
11561TIP3   OH256097   3.522   6.224  12.223  0.1923 -0.4385 -0.2861
11561TIP3    H156098   3.458   6.178  12.277 -0.5186  0.9328  0.0526
11561TIP3    H256099   3.601   6.226  12.277 -0.3186  0.3456  0.4363
11562TIP3   OH256100   6.177   0.374   0.127  0.5967  0.4501 -0.1380
11562TIP3    H156101   6.104   0.324   0.165  0.3400  0.4142 -0.6688
11562TIP3    H256102   6.255   0.331   0.160  0.3799 -0.7302 -1.1367
11563TIP3   OH256103   6.553   0.348  16.082  0.0552 -0.0461 -0.9140
11563TIP3    H156104   6.617   0.279  16.066  1.4177  0.4937  1.8609
11563TIP3    H256105   6.575   0.382  16.169 -3.3646  0.8805 -0.3318
11564TIP3   OH256106   0.760   5.930  17.226 -0.1411 -0.0586  0.9029
11564TIP3    H156107   0.755   6.025  17.218 -1.7629  0.2316  4.3694
11564TIP3    H256108   0.836   5.915  17.283 -0.5173 -0.7799  1.2158
11565TIP3   OH256109   3.807   5.518   2.623  0.0569  0.4813  0.5192
11565TIP3    H156110   3.757   5.598   2.607  0.3719  0.2562 -1.8516
11565TIP3    H256111   3.880   5.545   2.678  0.3611  1.9198 -0.5557
11566TIP3   OH256112   5.927   1.104  12.155 -0.1584 -0.0781  0.3160
11566TIP3    H156113   5.847   1.069  12.116 -0.0192 -0.2882  0.2194
11566TIP3    H256114   5.899   1.186  12.196 -0.0649  0.7482 -1.2294
11567TIP3   OH256115   2.078   5.671   3.638 -0.3975 -0.0880 -0.5248
11567TIP3    H156116   2.071   5.588   3.686 -2.0658  2.0230  3.0536
11567TIP3    H256117   2.169   5.698   3.650  0.0698 -1.1932 -1.4418
11568TIP3   OH256118   4.399   2.953  13.413  0.4116  0.1587  0.2069
11568TIP3    H156119   4.412   2.886  13.346  0.4976  2.3404 -2.0568
11568TIP3    H256120   4.450   2.923  13.488 -0.2126 -2.6772 -0.4549
11569TIP3   OH256121   5.623   6.303   0.363  0.5635  0.2079 -0.1605
11569TIP3    H156122   5.684   6.248   0.413 -0.7505 -0.9547  0.1869
11569TIP3    H256123   5.557   6.329   0.427  1.3454  2.4839 -0.2499
11570TIP3   OH256124   2.398   0.146   5.123  0.0779 -0.0468  0.2628
11570TIP3    H156125   2.449   0.225   5.138  1.0616 -0.8230  1.0982
11570TIP3    H256126   2.311   0.166   5.157 -0.0393  1.1013 -0.6903
11571TIP3   OH256127   1.084   6.472  13.942  0.2381  0.0751  0.1931
11571TIP3    H156128   1.030   6.414  13.889  1.0879 -0.4207 -0.1391
11571TIP3    H256129   1.079   6.557  13.897 -2.6607  0.8230  1.7958
11572TIP3   OH256130   5.659   1.640   1.000 -0.3480  0.1726 -0.3944
11572TIP3    H156131   5.572   1.680   0.999 -0.2414  0.4251  0.0209
11572TIP3    H256132   5.716   1.706   0.959 -0.5770 -0.5414 -1.8732
11573TIP3   OH256133   4.585   1.584  13.730  0.2640  0.0158  0.0305
11573TIP3    H156134   4.670   1.542  13.721  0.4778  0.2044  1.0919
11573TIP3    H256135   4.599   1.674  13.701  0.0968 -0.3062 -1.0794
11574TIP3   OH256136   2.161   2.192  15.755 -0.1829  0.1627 -0.2585
11574TIP3    H156137   2.080   2.241  15.772 -1.4296 -2.2639  0.9294
11574TIP3    H256138   2.224   2.260  15.730 -2.3559  2.1859 -0.4728
11575TIP3   OH256139   2.581   4.997  16.996  0.0523  0.2342 -0.3303
11575TIP3    H156140   2.527   5.073  17.017 -1.0406 -1.2610  2.4735
11575TIP3    H256141   2.671   5.029  17.003 -0.3889  1.2040  1.1900
11576TIP3   OH256142   6.237   3.694  11.790 -0.1784  0.4887 -0.1252
11576TIP3    H156143   6.308   3.754  11.766  0.4435 -0.2957 -0.2372
11576TIP3    H256144   6.158   3.737  11.756  0.1680  1.6244  0.4540
11577TIP3   OH256145   4.756   4.329  16.223 -0.4299 -0.0822  0.1812
11577TIP3    H156146   4.781   4.242  16.191  0.0893 -0.1907  0.8680
11577TIP3    H256147   4.784   4.330  16.315 -1.5139  0.3779  0.5210
11578TIP3   OH256148   5.392   3.773  10.534  0.4375 -0.0813  0.3186
11578TIP3    H156149   5.436   3.753  10.451  1.3068  0.1420  0.7173
11578TIP3    H256150   5.397   3.868  10.541 -4.6350  0.5380 -2.1152
11579TIP3   OH256151   5.416   2.484  16.764 -0.2586 -0.0403  0.6836
11579TIP3    H156152   5.349   2.416  16.757 -0.4641  0.0772  1.4449
11579TIP3    H256153   5.484   2.444  16.819  1.1564 -0.8344 -1.6017
11580TIP3   OH256154   6.590   6.059  12.532 -0.1889 -0.1782 -0.1690
11580TIP3    H156155   6.504   6.067  12.492 -0.5254  3.2401  1.1108
11580TIP3    H256156   6.642   6.130  12.493  1.1390 -0.3208  1.2795
11581TIP3   OH256157   3.239   1.388  15.485 -0.2333  0.2324 -0.2968
11581TIP3    H156158   3.149   1.390  15.516  0.1799  0.5011  0.9568
11581TIP3    H256159   3.252   1.300  15.450 -0.3415 -0.5498  1.5518
11582TIP3   OH256160   4.600   6.328   0.039 -0.0004 -0.3943 -0.2156
11582TIP3    H156161   4.669   6.306  -0.023 -0.0377 -2.6516  0.5026
11582TIP3    H256162   4.638   6.307   0.125  0.0168  2.5567  0.5625
11583TIP3   OH256163   2.153   3.403  16.841  0.5500  0.0621 -0.2512
11583TIP3    H156164   2.081   3.452  16.879 -0.1317 -0.6953 -0.5480
11583TIP3    H256165   2.134   3.401  16.747  0.2767 -1.2249 -0.1763
11584TIP3   OH256166   2.955   5.468   3.870  0.0022 -0.1778 -0.5032
11584TIP3    H156167   2.879   5.526   3.871  0.2210  0.1104 -0.4979
11584TIP3    H256168   2.956   5.428   3.957  0.1178  0.1618 -0.3463
11585TIP3   OH256169   1.851   0.777  13.952 -0.7452  0.1519 -0.1391
11585TIP3    H156170   1.896   0.780  14.036 -1.3603 -1.9747  0.2936
11585TIP3    H256171   1.885   0.699  13.909  0.1608  1.6351 -2.2443
11586TIP3   OH256172   6.757   5.023   3.400 -0.8818 -0.0278  0.1898
11586TIP3    H156173   6.764   5.068   3.315 -1.5675  0.2665  0.2841
11586TIP3    H256174   6.767   5.093   3.465  1.2348 -0.4819  0.3793
11587TIP3   OH256175   5.721   0.006   4.872  0.3607  0.3522  0.5533
11587TIP3    H156176   5.716  -0.049   4.950 -1.1758 -1.5805 -0.8866
11587TIP3    H256177   5.651   0.070   4.884 -2.3522 -2.2543 -0.9569
11588TIP3   OH256178   5.125   0.420   0.127 -0.5785 -0.0022  0.4643
11588TIP3    H156179   5.106   0.448   0.216 -0.8708  2.2240 -0.2748
11588TIP3    H256180   5.061   0.466   0.073 -0.4790 -1.4133 -0.9071
11589TIP3   OH256181   3.868   4.650   5.216  0.3207 -0.2742  0.0558
11589TIP3    H156182   3.915   4.732   5.231 -0.8451  0.1525  1.4652
11589TIP3    H256183   3.799   4.672   5.154  1.4448 -0.7201 -1.3765
11590TIP3   OH256184   3.742   5.891   5.621 -0.3541  0.4414  0.3867
11590TIP3    H156185   3.650   5.867   5.633 -0.3804 -0.2345 -1.0552
11590TIP3    H256186   3.786   5.809   5.596  0.6164  0.7830  0.9266
11591TIP3   OH256187   2.740   5.195   2.574 -0.3372 -0.2996  0.0335
11591TIP3    H156188   2.827   5.175   2.540 -0.4390  0.2501 -0.5585
11591TIP3    H256189   2.754   5.264   2.638 -0.1983 -1.0375  0.8102
11592TIP3   OH256190   3.161   5.491   0.985 -0.2601 -0.7123  0.1771
11592TIP3    H156191   3.085   5.435   0.998 -0.6781  0.0939  1.2303
11592TIP3    H256192   3.130   5.562   0.928 -0.0075 -0.9551 -0.2732
11593TIP3   OH256193   2.111   2.066  16.697 -0.4430 -0.1303  0.1700
11593TIP3    H156194   2.061   2.135  16.743 -0.5142 -0.6964  0.9577
11593TIP3    H256195   2.130   2.104  16.611  0.0177  1.1052  0.7939
11594TIP3   OH256196   4.932   0.881  14.689 -0.1140 -0.1850  0.5297
11594TIP3    H156197   4.865   0.847  14.630  0.7630  1.2809 -1.3764
11594TIP3    H256198   4.886   0.944  14.744 -0.9403 -1.5406  1.4068
11595TIP3   OH256199   4.827   1.931   0.459 -0.1608  0.9332 -0.3209
11595TIP3    H156200   4.825   1.914   0.365 -1.0293 -0.8310 -0.0043
11595TIP3    H256201   4.741   1.970   0.477 -0.6556 -0.2811  0.0018
11596TIP3   OH256202   6.366   6.082   4.838 -0.0622  0.5991 -0.9819
11596TIP3    H156203   6.359   5.989   4.820 -1.2591  0.3139  0.8831
11596TIP3    H256204   6.276   6.114   4.837  0.1534  1.3009  0.5892
11597TIP3   OH256205   5.815   0.730  11.710 -0.1038  0.2084 -0.1929
11597TIP3    H156206   5.791   0.684  11.630  1.9604  0.4657 -1.0003
11597TIP3    H256207   5.869   0.803  11.680 -0.9433  1.4597  1.2965
11598TIP3   OH256208   4.258   5.319  13.675 -0.1905 -0.4059  0.2287
11598TIP3    H156209   4.282   5.238  13.629  0.5434 -0.3059  0.4179
11598TIP3    H256210   4.176   5.346  13.635 -0.2335 -1.0311 -0.1151
11599TIP3   OH256211   1.408   5.051  14.619 -0.0035 -0.0224  0.5162
11599TIP3    H156212   1.336   5.076  14.676  1.4419  1.6355  1.6974
11599TIP3    H256213   1.483   5.102  14.651  0.8298  1.1451 -2.9805
11600TIP3   OH256214   2.951   2.470   2.245  0.1711  0.0945 -0.2009
11600TIP3    H156215   2.943   2.529   2.169 -1.4009  0.2745  0.0909
11600TIP3    H256216   2.943   2.527   2.321  2.2611 -0.0180  0.1202
11601TIP3   OH256217   1.051   3.319   2.510  0.3021 -0.5194 -0.0459
11601TIP3    H156218   1.028   3.391   2.568  0.9189 -0.6460  0.3581
11601TIP3    H256219   1.021   3.241   2.555  0.1224 -0.5576 -0.2319
11602TIP3   OH256220   1.610   1.029  14.894 -0.9351  0.0488  0.7503
11602TIP3    H156221   1.520   1.001  14.878 -0.6752 -1.6950  2.2056
11602TIP3    H256222   1.651   1.027  14.807 -2.2411  0.6890  0.1086
11603TIP3   OH256223   5.720   5.830   3.548  0.1910 -0.0912 -0.1249
11603TIP3    H156224   5.737   5.919   3.517  2.7898 -1.0676 -1.6655
11603TIP3    H256225   5.698   5.840   3.640 -0.2372  2.2064 -0.4560
11604TIP3   OH256226   6.205   0.795  14.678 -0.2778 -0.1497 -0.1047
11604TIP3    H156227   6.216   0.745  14.759  2.0026  1.3706  0.6018
11604TIP3    H256228   6.189   0.730  14.611  0.3743 -1.6593  1.1794
11605TIP3   OH256229   5.403   1.674   3.093 -0.1707  0.6185  0.3976
11605TIP3    H156230   5.342   1.622   3.146 -1.5552 -0.0764 -1.7961
11605TIP3    H256231   5.376   1.765   3.108 -0.0964  0.4835  1.4078
11606TIP3   OH256232   3.479   1.510   1.581  0.3403 -0.0976  0.1749
11606TIP3    H156233   3.502   1.428   1.537 -1.2535 -0.2600 -0.3922
11606TIP3    H256234   3.421   1.482   1.653  1.0132  0.3878  0.9014
11607TIP3   OH256235   4.551   4.745  14.588  0.6267  0.0276 -0.2031
11607TIP3    H156236   4.502   4.683  14.533  0.6807  0.1252 -0.3616
11607TIP3    H256237   4.618   4.692  14.630 -0.7810 -0.4741  1.4699
11608TIP3   OH256238   3.657   5.828   1.292 -0.1469  0.5639  0.0921
11608TIP3    H156239   3.599   5.823   1.369  0.0784 -0.6192  0.2017
11608TIP3    H256240   3.614   5.889   1.233 -1.7342 -0.6135  0.0008
11609TIP3   OH256241   0.393   3.656   3.778  0.2206 -0.4826 -0.1481
11609TIP3    H156242   0.335   3.708   3.834 -1.0897 -0.3367 -1.6084
11609TIP3    H256243   0.340   3.634   3.702  0.9714 -3.3878  0.1068
11610TIP3   OH256244   1.982   4.510  12.209 -0.1586  0.4567  0.2415
11610TIP3    H156245   1.941   4.586  12.250 -0.3235  0.8768 -0.6888
11610TIP3    H256246   2.076   4.526  12.220 -0.2104  0.3075  0.9174
11611TIP3   OH256247   5.020   5.549  12.018  0.3884 -0.8073  0.2444
11611TIP3    H156248   5.075   5.625  11.996  1.1575 -1.0812  1.1656
11611TIP3    H256249   4.951   5.549  11.952  1.3450 -0.2855 -0.7827
11612TIP3   OH256250   3.996   6.105  14.673 -0.0916  0.1581  0.5419
11612TIP3    H156251   3.908   6.065  14.674  0.1248 -0.3215  0.4729
11612TIP3    H256252   4.002   6.150  14.758 -1.3159  2.2012 -0.4095
11613TIP3   OH256253   3.748   2.681   5.048  0.2723 -0.3846 -0.2241
11613TIP3    H156254   3.765   2.765   5.005 -0.6011  0.4574  1.0305
11613TIP3    H256255   3.797   2.617   4.996  0.9017  0.8873 -1.2328
11614TIP3   OH256256   5.728   5.507  15.308  0.5796  0.2928 -0.1030
11614TIP3    H156257   5.640   5.476  15.290  0.3760  1.2691 -0.8353
11614TIP3    H256258   5.784   5.459  15.247  0.1888  1.7901 -1.6762
11615TIP3   OH256259   5.820   3.795  14.032 -0.4105 -0.5660 -0.2817
11615TIP3    H156260   5.779   3.882  14.032 -0.9714 -0.8330 -0.2625
11615TIP3    H256261   5.914   3.814  14.032 -0.4981  0.0564  1.9964
11616TIP3   OH256262   5.628   2.410   2.191  0.2226  0.1273  0.4141
11616TIP3    H156263   5.691   2.338   2.185  0.7474  0.6413 -0.3433
11616TIP3    H256264   5.625   2.446   2.103  0.3060  1.3265  0.8959
11617TIP3   OH256265   2.156   4.294   6.387 -1.3185 -0.3512  0.0622
11617TIP3    H156266   2.198   4.309   6.472  0.1774 -2.6231 -0.2395
11617TIP3    H256267   2.068   4.263   6.409 -1.4089  0.3981  0.7632
11618TIP3   OH256268   0.085   3.789   3.802  0.1054  0.0616 -0.4484
11618TIP3    H156269   0.109   3.710   3.850 -0.3757 -0.0280 -0.3547
11618TIP3    H256270   0.156   3.851   3.821  0.5647 -0.3949 -0.6477
11619TIP3   OH256271   6.489   1.021  10.981  0.0944 -0.3865  0.2405
11619TIP3    H156272   6.578   1.035  10.951  0.4681 -1.5772  0.7513
11619TIP3    H256273   6.478   1.081  11.054  0.1660  0.4184 -0.4077
11620TIP3   OH256274   5.164   6.392  14.858  0.0455 -0.4330  0.6532
11620TIP3    H156275   5.116   6.457  14.806 -0.1301 -0.6133  0.5926
11620TIP3    H256276   5.099   6.359  14.921  0.1227 -0.5830  0.6540
11621TIP3   OH256277   6.549   0.400  13.936  0.4141 -0.0054  0.0287
11621TIP3    H156278   6.600   0.418  13.858  0.0798  0.4015 -0.0943
11621TIP3    H256279   6.590   0.453  14.005 -0.2975  0.9020 -0.2361
11622TIP3   OH256280   4.426   4.093  11.722  0.4338  0.3011  0.4054
11622TIP3    H156281   4.357   4.159  11.732 -0.1930 -0.5487  1.9579
11622TIP3    H256282   4.499   4.127  11.774  1.1415  1.1405 -1.1335
11623TIP3   OH256283   6.571   2.756   1.955  0.0242 -0.3410 -0.2419
11623TIP3    H156284   6.560   2.708   1.872 -0.7837 -2.4829  1.0662
11623TIP3    H256285   6.486   2.797   1.970 -0.2932 -1.1709  0.2575
11624TIP3   OH256286   3.614   0.143   3.574 -0.0425  0.2491 -0.0408
11624TIP3    H156287   3.616   0.056   3.534 -1.6271  0.7420 -1.2283
11624TIP3    H256288   3.686   0.190   3.532 -1.3083  0.5692 -1.8978
11625TIP3   OH256289   4.529   1.831   0.098 -0.2693  0.0156  0.1789
11625TIP3    H156290   4.439   1.807   0.121 -0.6074 -1.0288 -2.0913
11625TIP3    H256291   4.527   1.842   0.003  1.8249  0.7957  0.2076
11626TIP3   OH256292   0.015   2.888   2.068  0.2735 -0.3940  0.0494
11626TIP3    H156293   0.009   2.967   2.014  1.5491 -1.0434 -1.0740
11626TIP3    H256294  -0.068   2.843   2.053  0.0232  0.1477 -0.2285
11627TIP3   OH256295   0.818   4.154  15.905 -0.2518 -0.4608 -0.7694
11627TIP3    H156296   0.818   4.161  15.809  1.6058  0.6953 -0.7118
11627TIP3    H256297   0.788   4.239  15.935  0.9789 -0.1870 -0.3062
11628TIP3   OH256298   0.991   3.341  13.795  0.1713  0.9391 -0.3622
11628TIP3    H156299   0.983   3.409  13.862 -0.5198 -0.0055  0.5457
11628TIP3    H256300   1.039   3.270  13.840 -1.6699 -0.3309 -0.3567
11629TIP3   OH256301   1.739   2.546  13.915  0.7587 -0.1629 -0.5144
11629TIP3    H156302   1.712   2.476  13.974  1.7024  0.2400  0.4263
11629TIP3    H256303   1.827   2.521  13.885  0.4428 -0.1734 -1.4479
11630TIP3   OH256304   2.200   1.678  12.171  0.2550  0.4086  0.1300
11630TIP3    H156305   2.240   1.595  12.148  0.1978  0.0905  1.1536
11630TIP3    H256306   2.106   1.664  12.162  0.2630  0.4743 -0.0557
11631TIP3   OH256307   4.197   6.612   4.664 -0.0298  0.8141  0.8287
11631TIP3    H156308   4.201   6.640   4.573 -0.2106 -0.0761  0.5423
11631TIP3    H256309   4.242   6.682   4.712 -1.7137  2.3086  0.3132
11632TIP3   OH256310   4.910   1.492  15.257  0.1441  0.6813 -0.2708
11632TIP3    H156311   4.830   1.440  15.261  0.3482  0.4702  1.7436
11632TIP3    H256312   4.882   1.581  15.280  0.1841  0.9776 -1.3658
11633TIP3   OH256313   2.369   5.480  12.749  0.3188  0.1599  0.1389
11633TIP3    H156314   2.350   5.470  12.842  1.2621 -0.6757  0.2611
11633TIP3    H256315   2.432   5.410  12.730 -0.1734  0.0668 -1.2155
11634TIP3   OH256316   1.080   4.515  15.426  0.3738 -0.3960  0.2818
11634TIP3    H156317   1.169   4.506  15.459  0.6957  3.4393  0.6526
11634TIP3    H256318   1.029   4.544  15.501 -1.0024 -1.6513 -0.1523
11635TIP3   OH256319   4.612   4.210  14.946  0.2727  0.0375 -0.5001
11635TIP3    H156320   4.676   4.276  14.921 -0.0338 -0.2142 -1.9763
11635TIP3    H256321   4.664   4.137  14.979  0.6527  0.6084  0.1822
11636TIP3   OH256322   5.489   2.093   2.523 -0.6930  0.1013  0.1313
11636TIP3    H156323   5.517   2.185   2.522 -0.8533  0.1683  1.0316
11636TIP3    H256324   5.394   2.097   2.518 -0.6503 -0.0489 -0.7677
11637TIP3   OH256325   6.579   6.454  14.675  0.7506  0.2736  0.5440
11637TIP3    H156326   6.517   6.430  14.743 -0.2592 -2.0715 -1.1147
11637TIP3    H256327   6.573   6.549  14.668 -0.6479  0.3231  2.2753
11638TIP3   OH256328   4.798   2.246  11.672  0.1270  0.3358  0.2352
11638TIP3    H156329   4.742   2.210  11.741 -0.1098  2.3127  1.1286
11638TIP3    H256330   4.817   2.336  11.701  4.2614 -0.4348  0.2635
11639TIP3   OH256331   4.523   6.650   4.260 -0.5490 -0.4856  0.5765
11639TIP3    H156332   4.569   6.570   4.284 -0.7857 -0.7784  0.0650
11639TIP3    H256333   4.555   6.716   4.322  1.3068 -0.4347 -0.3958
11640TIP3   OH256334   5.272   4.945  13.393  0.4798 -0.4099 -0.0696
11640TIP3    H156335   5.362   4.942  13.362  0.5677  0.9426 -0.0057
11640TIP3    H256336   5.265   5.030  13.437  0.0299 -1.7479  2.5673
11641TIP3   OH256337   4.588   3.950   2.771 -0.0907 -0.5202  0.5167
11641TIP3    H156338   4.499   3.916   2.761 -1.8426  2.5526  4.0383
11641TIP3    H256339   4.598   4.014   2.701 -0.5813 -1.0333 -0.0209
11642TIP3   OH256340   2.814   1.545  17.205 -0.0201 -0.2824 -0.5777
11642TIP3    H156341   2.801   1.621  17.262 -0.0995 -0.5919 -0.1907
11642TIP3    H256342   2.903   1.516  17.223  0.0821 -0.1558 -0.8774
11643TIP3   OH256343   5.504   6.602  16.600 -0.2795  0.0431  0.4038
11643TIP3    H156344   5.438   6.670  16.615  0.5385  0.6309  1.4359
11643TIP3    H256345   5.566   6.612  16.673  1.3234 -0.0447 -0.8990
11644TIP3   OH256346   4.258   4.959  13.809 -0.2399  0.2367 -0.0343
11644TIP3    H156347   4.196   5.018  13.766 -0.7432 -0.3122 -0.0649
11644TIP3    H256348   4.213   4.930  13.888  0.0109 -0.0997 -0.0134
11645TIP3   OH256349   0.768   6.007   2.733 -0.3083  0.0921 -0.1171
11645TIP3    H156350   0.827   6.049   2.671  0.7794 -1.4722 -0.1780
11645TIP3    H256351   0.741   5.927   2.689 -1.1890  0.0057  0.5849
11646TIP3   OH256352   0.445   1.504  11.210 -0.5086  0.0476  0.0635
11646TIP3    H156353   0.477   1.417  11.187 -2.7687 -0.6192 -0.7876
11646TIP3    H256354   0.500   1.532  11.283  0.1954 -2.1546  0.4221
11647TIP3   OH256355   5.053   1.815  15.582 -0.1501  0.4881  0.5019
11647TIP3    H156356   5.045   1.751  15.511  0.0061  0.5986  0.3850
11647TIP3    H256357   4.969   1.810  15.629 -0.4600  0.7989 -0.0117
11648TIP3   OH256358   6.409   5.039  13.790  0.3671 -0.2436 -0.2194
11648TIP3    H156359   6.406   5.124  13.834  1.7639  0.4496 -1.4063
11648TIP3    H256360   6.454   4.982  13.852 -1.5527 -0.4170  1.0398
11649TIP3   OH256361   5.044   3.575   1.220 -0.5475  0.3343  0.0059
11649TIP3    H156362   5.126   3.537   1.188  0.5313  0.9359  1.9324
11649TIP3    H256363   5.027   3.649   1.161  0.5299  0.4516 -0.1746
11650TIP3   OH256364   6.716   1.903  16.444 -0.0154  0.1186  0.1054
11650TIP3    H156365   6.705   1.995  16.419  0.4049  0.0393 -0.3885
11650TIP3    H256366   6.723   1.857  16.360  1.4705 -0.1578  0.3768
11651TIP3   OH256367   0.328   0.133  13.033 -0.4337  0.1290 -0.4347
11651TIP3    H156368   0.318   0.228  13.038 -1.2126  0.0236  0.0677
11651TIP3    H256369   0.261   0.099  13.092 -1.3307 -0.8031 -1.9839
11652TIP3   OH256370   2.726   2.476  14.038 -0.8968  0.3762 -0.6510
11652TIP3    H156371   2.801   2.461  14.096 -0.4429  1.5974 -0.9002
11652TIP3    H256372   2.707   2.390  14.000 -0.0002 -0.0615 -0.1340
11653TIP3   OH256373   1.726   4.115   1.220  0.0919 -1.0875 -0.6217
11653TIP3    H156374   1.654   4.104   1.159 -0.7235 -0.7127  0.2585
11653TIP3    H256375   1.685   4.142   1.302  1.4054  1.5448 -0.7597
11654TIP3   OH256376   0.088   2.709  14.007 -0.1914 -0.0966  0.2293
11654TIP3    H156377   0.009   2.750  13.971 -0.1490 -2.8565 -3.2951
11654TIP3    H256378   0.055   2.642  14.067 -0.5853 -0.8735 -0.8219
11655TIP3   OH256379   2.048   5.081   6.001  0.2888 -0.1597  0.2046
11655TIP3    H156380   1.965   5.037   6.017 -1.4186  2.5649 -0.8949
11655TIP3    H256381   2.087   5.091   6.088 -0.5601 -1.3688  0.7362
11656TIP3   OH256382   4.086   4.246   5.496 -0.4785 -0.0985 -0.6316
11656TIP3    H156383   4.014   4.304   5.469  0.5039  1.3147 -0.2720
11656TIP3    H256384   4.157   4.266   5.436 -0.5864 -2.0203 -1.4494
11657TIP3   OH256385   0.399   3.334   3.533 -0.2067 -0.1696 -0.0477
11657TIP3    H156386   0.428   3.364   3.619  1.3939  0.1408 -0.6730
11657TIP3    H256387   0.422   3.241   3.531 -0.1526 -0.1534 -0.1733
11658TIP3   OH256388   5.560   3.038  11.680  0.8610  0.0742  0.2103
11658TIP3    H156389   5.573   2.943  11.670  0.3112  0.1139 -1.0420
11658TIP3    H256390   5.548   3.069  11.590 -0.8150  1.0674  0.7607
11659TIP3   OH256391   0.355   0.856   6.694 -0.1408  0.1524 -0.1168
11659TIP3    H156392   0.274   0.906   6.703  0.7202  1.4175  0.7109
11659TIP3    H256393   0.325   0.767   6.674 -1.6776  1.2023 -2.8059
11660TIP3   OH256394   1.324   2.609  10.667 -0.0952  0.2219 -0.6288
11660TIP3    H156395   1.392   2.541  10.665  0.6638  0.8656  1.8263
11660TIP3    H256396   1.264   2.580  10.736 -1.3940  0.5524 -1.6066
11661TIP3   OH256397   5.022   0.688  16.122 -0.4928 -0.8595 -0.2648
11661TIP3    H156398   5.037   0.622  16.190  0.7619  0.8300  1.1661
11661TIP3    H256399   5.038   0.642  16.040 -0.3108 -2.5138  0.6805
11662TIP3   OH256400   3.707   1.413  16.523 -0.3247  0.1952 -0.7410
11662TIP3    H156401   3.743   1.467  16.453 -1.0094 -0.7482 -1.8487
11662TIP3    H256402   3.781   1.397  16.581 -0.2842  2.9105 -0.0004
11663TIP3   OH256403   2.927   1.895   3.858  0.2739 -0.0134 -0.0027
11663TIP3    H156404   2.915   1.922   3.949  1.6238 -1.8683  0.7433
11663TIP3    H256405   2.874   1.816   3.848  0.3977 -0.0111 -0.7444
11664TIP3   OH256406   2.489   4.332   1.721 -0.2268  0.4729 -0.0285
11664TIP3    H156407   2.505   4.318   1.814 -1.1681 -0.2539  0.0334
11664TIP3    H256408   2.534   4.259   1.677  1.1872  1.4515 -0.2305
11665TIP3   OH256409   6.671   4.110  15.810  0.1028  0.4026  0.3677
11665TIP3    H156410   6.717   4.192  15.825  0.6434  0.3823 -1.1337
11665TIP3    H256411   6.629   4.091  15.894  2.3966  0.6772  1.6347
11666TIP3   OH256412   0.979   2.775   4.576 -0.5133 -0.2758  0.1746
11666TIP3    H156413   1.039   2.850   4.569 -0.6727 -0.0391  1.1724
11666TIP3    H256414   1.016   2.709   4.518 -0.6710  0.7744 -1.1294
11667TIP3   OH256415   3.823   1.740  15.777  0.4662  0.4145 -0.1395
11667TIP3    H156416   3.852   1.722  15.866 -0.1997  0.3565  0.0639
11667TIP3    H256417   3.731   1.714  15.775  0.2567  1.1691 -0.6261
11668TIP3   OH256418   1.118   1.640   3.022  0.7289 -0.2675 -0.7501
11668TIP3    H156419   1.027   1.615   3.006 -0.4947  2.4959  1.4674
11668TIP3    H256420   1.134   1.711   2.961  1.0521 -0.0416 -0.4042
11669TIP3   OH256421   1.418   1.106  15.177 -0.1550  0.0421 -0.4043
11669TIP3    H156422   1.394   1.188  15.220 -1.2476 -0.0419 -0.8359
11669TIP3    H256423   1.337   1.076  15.135  0.2807 -1.1596 -0.4135
11670TIP3   OH256424   6.099   4.625  13.944  0.0622  0.3726  0.0911
11670TIP3    H156425   6.136   4.562  14.005 -0.7374 -1.0017 -0.8111
11670TIP3    H256426   6.170   4.644  13.882  0.1798  0.0292  0.1205
11671TIP3   OH256427   6.110   0.743   3.163 -0.0311  0.7738 -0.0421
11671TIP3    H156428   6.136   0.704   3.080 -1.0538  0.3349 -0.1601
11671TIP3    H256429   6.133   0.836   3.154 -0.1676  0.7365 -0.8259
11672TIP3   OH256430   1.303   6.308  14.834 -0.5494 -0.5674 -0.8228
11672TIP3    H156431   1.259   6.393  14.847 -1.1846 -0.7634 -1.5967
11672TIP3    H256432   1.357   6.296  14.912 -0.0687  0.7877 -0.9294
11673TIP3   OH256433   5.539   1.638   4.574  0.6417 -0.3492  0.4758
11673TIP3    H156434   5.561   1.686   4.654  0.5223  0.4400  0.0407
11673TIP3    H256435   5.616   1.649   4.518  1.3809 -2.2281  1.0809
11674TIP3   OH256436   5.316   4.196   5.721  0.0857 -0.0286 -0.1789
11674TIP3    H156437   5.385   4.172   5.784 -1.3355  0.6448  1.6790
11674TIP3    H256438   5.275   4.113   5.698  0.3578 -0.2422  0.0932
11675TIP3   OH256439   0.741   2.375  12.175 -0.7895  0.5337  0.3003
11675TIP3    H156440   0.790   2.296  12.198 -0.4942  0.8145  0.6552
11675TIP3    H256441   0.678   2.346  12.109 -0.3722  0.0990  0.0879
11676TIP3   OH256442   5.397   2.780   2.081 -0.0618 -0.5169  0.2564
11676TIP3    H156443   5.401   2.685   2.093  0.4986 -0.5899 -0.4799
11676TIP3    H256444   5.369   2.792   1.990 -0.2012  0.0273  0.3664
11677TIP3   OH256445   2.049   6.378   0.450 -0.0200 -0.2129 -0.5658
11677TIP3    H156446   1.994   6.329   0.389  1.7194  0.1422 -2.4976
11677TIP3    H256447   2.122   6.409   0.396  2.1174 -0.7553  1.9376
11678TIP3   OH256448   3.128   3.983  10.812 -0.1952  0.2414  0.1753
11678TIP3    H156449   3.219   4.008  10.826 -0.1292  0.8415 -1.2172
11678TIP3    H256450   3.084   4.065  10.789 -1.0045 -0.1063  0.4761
11679TIP3   OH256451   0.763   1.932  15.698  0.4676  0.0793 -0.2216
11679TIP3    H156452   0.817   1.919  15.620 -1.6135 -1.9835 -1.3571
11679TIP3    H256453   0.796   1.868  15.761  1.7346  1.3264  0.4259
11680TIP3   OH256454   0.866   1.160  16.386 -0.0301  0.2879 -0.3563
11680TIP3    H156455   0.900   1.077  16.420 -0.2941 -0.3802 -1.6824
11680TIP3    H256456   0.814   1.196  16.457 -0.7635 -1.1945 -0.1188
11681TIP3   OH256457   3.084   2.839  12.161  0.4056 -0.1774  0.2338
11681TIP3    H156458   3.008   2.893  12.138  0.4759 -0.4866 -0.7354
11681TIP3    H256459   3.157   2.882  12.117  0.7245 -0.1434  0.7927
11682TIP3   OH256460   1.813   4.351   2.564 -0.0400  0.3679 -0.2021
11682TIP3    H156461   1.756   4.297   2.509  0.1671 -0.3235  0.2542
11682TIP3    H256462   1.799   4.440   2.533  0.2042 -0.0390 -1.4776
11683TIP3   OH256463   5.351   0.802   1.744  0.4183 -0.2376 -0.0364
11683TIP3    H156464   5.438   0.778   1.713  0.9923  1.6199  0.0574
11683TIP3    H256465   5.367   0.862   1.817 -0.9452  0.0232  0.0675
11684TIP3   OH256466   5.967   3.026  12.314  0.4370 -0.0609 -0.2369
11684TIP3    H156467   5.939   2.935  12.304 -0.5804 -0.0490  2.1697
11684TIP3    H256468   5.886   3.076  12.315  0.8827  0.6702  0.2233
11685TIP3   OH256469   5.789   3.248   3.989  0.0354 -0.6619  0.3320
11685TIP3    H156470   5.809   3.332   4.031  1.6612 -0.8752  0.0186
11685TIP3    H256471   5.843   3.184   4.036 -2.3272 -1.7905  1.5585
11686TIP3   OH256472   1.894   0.782  13.469  0.1067 -0.4278 -0.1404
11686TIP3    H156473   1.855   0.702  13.506  1.0788 -0.6412  0.4511
11686TIP3    H256474   1.987   0.776  13.493  0.0848  1.1665  0.4184
11687TIP3   OH256475   0.049   4.933  16.185 -0.2324 -0.4540  0.3645
11687TIP3    H156476   0.060   4.980  16.268 -0.4757 -1.2193  0.8358
11687TIP3    H256477  -0.035   4.965  16.151  1.1360  1.9028 -0.9489
11688TIP3   OH256478   0.781   6.198   4.872  0.1903 -0.0894  0.2140
11688TIP3    H156479   0.770   6.159   4.959  2.2945 -1.6848 -0.1775
11688TIP3    H256480   0.804   6.289   4.889  0.1628 -0.2777  1.3088
11689TIP3   OH256481   4.274   3.305  15.256 -0.1013 -0.1957 -0.1005
11689TIP3    H156482   4.276   3.303  15.352 -0.0398 -0.2331 -0.1026
11689TIP3    H256483   4.341   3.242  15.229  1.1128  1.0940 -0.1534
11690TIP3   OH256484   2.650   6.135   1.803 -0.1574  0.6157 -0.3625
11690TIP3    H156485   2.654   6.181   1.887  1.8063  0.6473 -0.4463
11690TIP3    H256486   2.670   6.202   1.737  0.3851  0.1508 -0.6774
11691TIP3   OH256487   3.338   6.590  11.872  0.0493 -0.2826  0.2655
11691TIP3    H156488   3.290   6.521  11.918 -0.2160 -0.4770 -0.3086
11691TIP3    H256489   3.276   6.663  11.869 -0.0003 -0.3349  0.0442
11692TIP3   OH256490   2.711   0.867  14.019  1.0438  0.0261  0.4595
11692TIP3    H156491   2.637   0.899  13.968  1.6582  0.7515  0.0224
11692TIP3    H256492   2.761   0.813  13.958  1.6809  0.7437  0.3455
11693TIP3   OH256493   2.941   0.567  15.226  0.2063  0.3372 -0.5579
11693TIP3    H156494   2.856   0.608  15.241  1.5253  2.3612  1.6288
11693TIP3    H256495   2.938   0.486  15.278  0.0811  1.0573  0.5743
11694TIP3   OH256496   4.872   1.613   3.186  0.8367  0.6647 -0.2013
11694TIP3    H156497   4.891   1.651   3.271  0.5658  2.1241 -0.7753
11694TIP3    H256498   4.957   1.584   3.153  0.9692  0.2798  0.4861
11695TIP3   OH256499   4.204   4.101  12.764 -0.0589 -0.6378  0.0257
11695TIP3    H156500   4.220   4.135  12.676  3.3038 -1.7650  0.1252
11695TIP3    H256501   4.180   4.009  12.751 -0.0870 -0.6637  0.2541
11696TIP3   OH256502   3.612   1.812   1.133  0.3199  0.4920 -0.0667
11696TIP3    H156503   3.619   1.782   1.043  0.7832 -0.9582  0.4288
11696TIP3    H256504   3.604   1.732   1.184  0.6229  1.2662  1.2227
11697TIP3   OH256505   1.176   2.732   3.931 -0.3152 -0.3561  0.7957
11697TIP3    H156506   1.101   2.719   3.988 -1.7203  2.2781 -0.3449
11697TIP3    H256507   1.148   2.699   3.845 -0.3105  0.9436  0.2825
11698TIP3   OH256508   4.284   1.332   2.120 -0.7156  0.5104  0.2511
11698TIP3    H156509   4.302   1.394   2.190 -0.2288 -0.3944  0.9408
11698TIP3    H256510   4.194   1.351   2.092 -0.8687  0.9484  1.0452
11699TIP3   OH256511   0.377   0.455  15.810  0.0342  0.3362  0.3138
11699TIP3    H156512   0.438   0.529  15.817 -1.0758  1.0960  2.1134
11699TIP3    H256513   0.354   0.434  15.900 -0.2660 -1.7315 -0.2195
11700TIP3   OH256514   3.240   0.211   4.615 -0.1470 -0.1134 -0.6317
11700TIP3    H156515   3.295   0.184   4.541 -0.0219 -1.8767  0.0734
11700TIP3    H256516   3.205   0.296   4.589  0.7002 -0.2430 -2.2853
11701TIP3   OH256517   2.514   0.053  15.213  0.2076 -0.6286  0.4973
11701TIP3    H156518   2.464  -0.026  15.232  0.7875 -0.9495  0.7056
11701TIP3    H256519   2.459   0.103  15.153  0.5157 -1.9305 -0.8868
11702TIP3   OH256520   6.268   2.661   1.370  0.3590  0.7653 -0.5673
11702TIP3    H156521   6.180   2.686   1.342 -0.0956 -1.7389 -1.4734
11702TIP3    H256522   6.256   2.585   1.426  1.9143  0.6784 -0.3170
11703TIP3   OH256523   4.510   3.388   0.299 -0.0309  0.1323  0.1605
11703TIP3    H156524   4.522   3.478   0.268  3.0667 -0.3661 -0.2679
11703TIP3    H256525   4.504   3.335   0.219 -1.4139 -0.1153  0.4108
11704TIP3   OH256526   2.478   0.850  15.961  0.0644  0.8165  0.2919
11704TIP3    H156527   2.550   0.884  15.908  0.0822  2.6847  1.4596
11704TIP3    H256528   2.401   0.898  15.933 -0.6272 -0.7140 -0.4935
11705TIP3   OH256529   4.997   4.095   4.863  0.3829  0.0617 -0.1468
11705TIP3    H156530   5.059   4.140   4.806  0.7791  1.9938  1.7557
11705TIP3    H256531   4.926   4.068   4.804  1.4520  0.7246 -1.7887
11706TIP3   OH256532   5.094   3.929   4.254  0.2718 -0.2081  0.5748
11706TIP3    H156533   5.062   3.969   4.335 -0.9734 -0.5927  0.2880
11706TIP3    H256534   5.183   3.900   4.275 -0.0107 -0.2332  1.7791
11707TIP3   OH256535   3.060   3.019  15.579  0.5963 -0.4905  0.0748
11707TIP3    H156536   3.101   3.068  15.650  0.6985  1.8967 -1.5904
11707TIP3    H256537   3.132   2.970  15.539  0.4049 -2.4915  2.0630
11708TIP3   OH256538   4.004   0.221  15.920 -0.4992  0.0658 -0.3208
11708TIP3    H156539   4.030   0.312  15.935  1.3257 -0.4420 -0.1931
11708TIP3    H256540   4.040   0.174  15.996  2.9944 -1.5164 -2.8057
11709TIP3   OH256541   4.163   6.758  13.483  0.3713  0.8465  0.1948
11709TIP3    H156542   4.249   6.797  13.504  0.8031 -0.3989  0.7684
11709TIP3    H256543   4.110   6.775  13.561  0.0254  1.8197 -0.2529
11710TIP3   OH256544   1.755   2.453  12.273 -0.1460  0.0403 -0.5688
11710TIP3    H156545   1.706   2.495  12.201  1.1230 -0.2409 -1.6128
11710TIP3    H256546   1.823   2.515  12.295 -1.0421  0.4924  0.9960
11711TIP3   OH256547   0.136   1.383   0.574 -0.3148 -0.0274  0.3470
11711TIP3    H156548   0.184   1.397   0.656 -0.6803 -1.7345  0.8758
11711TIP3    H256549   0.191   1.324   0.523 -0.3569  0.5784 -0.4194
11712TIP3   OH256550   6.348   0.785  11.554  0.4586  0.7234 -0.1798
11712TIP3    H156551   6.303   0.794  11.638  1.1261  0.3296  0.2237
11712TIP3    H256552   6.310   0.706  11.515  1.0909  0.1515  0.3488
11713TIP3   OH256553   0.034   1.660  13.924 -0.2408 -0.2875  0.5639
11713TIP3    H156554   0.042   1.749  13.891  0.3036  0.5391  2.8601
11713TIP3    H256555  -0.057   1.636  13.908 -0.1846  0.3661 -0.7980
11714TIP3   OH256556   0.009   2.456  14.515  0.2734  0.3227  0.1101
11714TIP3    H156557   0.067   2.386  14.546  0.4769  0.4525  0.0218
11714TIP3    H256558  -0.045   2.477  14.592 -0.4196 -0.5610 -0.1174
11715TIP3   OH256559   5.762   5.963  12.952  0.6383 -0.1030  0.0411
11715TIP3    H156560   5.779   5.905  12.877  1.6032 -1.4106  1.2520
11715TIP3    H256561   5.685   6.013  12.926 -0.1454 -1.8305 -1.1003
11716TIP3   OH256562   5.206   3.946  12.854  0.7081  0.1700 -0.1152
11716TIP3    H156563   5.268   3.952  12.782  0.1248  0.3115 -0.6092
11716TIP3    H256564   5.212   4.031  12.899  0.9618  0.1351 -0.0866
11717TIP3   OH256565   1.434   2.742   4.869  0.1696 -0.5375 -0.4594
11717TIP3    H156566   1.520   2.771   4.837  0.5385  0.4813  1.3862
11717TIP3    H256567   1.445   2.734   4.964 -1.3972 -1.7367 -0.3613
11718TIP3   OH256568   3.009   5.377   3.105 -0.1180  0.2939 -0.0642
11718TIP3    H156569   2.968   5.443   3.048  0.6811  0.2836 -0.6527
11718TIP3    H256570   3.056   5.428   3.170  1.7652  0.3452 -1.4126
11719TIP3   OH256571   1.545   3.971   0.838 -0.0181  0.8579 -0.3111
11719TIP3    H156572   1.510   3.886   0.813 -0.8833  0.7527  1.2127
11719TIP3    H256573   1.639   3.963   0.827  0.0752 -0.8855  1.5105
11720TIP3   OH256574   1.523   4.628  11.322  0.1364  0.4880  0.3740
11720TIP3    H156575   1.606   4.670  11.300 -0.6267  1.3125 -0.9903
11720TIP3    H256576   1.462   4.657  11.254 -1.5019  0.5975  1.8542
11721TIP3   OH256577   5.041   2.803  11.443  0.2243 -0.2965  0.1710
11721TIP3    H156578   5.083   2.831  11.362 -0.3705  0.7474  0.2148
11721TIP3    H256579   5.073   2.864  11.509 -1.8646  0.9499  0.0800
11722TIP3   OH256580   4.160   3.983   4.616 -0.3572 -0.2593 -0.4532
11722TIP3    H156581   4.157   3.972   4.521 -0.5583  1.0550 -0.6090
11722TIP3    H256582   4.097   3.919   4.650 -0.9283 -0.1246 -1.2530
11723TIP3   OH256583   0.485   4.866   3.451 -0.2962 -0.2538 -0.1559
11723TIP3    H156584   0.406   4.891   3.498 -0.1889  1.2051 -0.7223
11723TIP3    H256585   0.509   4.944   3.401  1.1477 -0.8818 -0.4753
11724TIP3   OH256586   0.279   1.208   0.393 -0.2197  0.4260 -0.1572
11724TIP3    H156587   0.288   1.296   0.355 -0.2554  0.0730 -0.9920
11724TIP3    H256588   0.351   1.158   0.355  0.1894  0.2688  0.8247
11725TIP3   OH256589   0.494   2.028   3.151  0.2670  0.2679 -0.1526
11725TIP3    H156590   0.556   2.101   3.161  1.7459 -0.7202 -1.7693
11725TIP3    H256591   0.546   1.958   3.113 -1.4882 -1.1576  0.0174
11726TIP3   OH256592   5.648   1.939  13.148 -0.0302 -0.1664 -0.0995
11726TIP3    H156593   5.688   1.946  13.234 -1.3047  1.2409  0.4195
11726TIP3    H256594   5.637   1.845  13.133  1.6212 -0.4756  0.5825
11727TIP3   OH256595   0.011   4.212  16.494  0.4077  0.0097 -0.5131
11727TIP3    H156596   0.035   4.165  16.574 -2.0105  2.2913  1.6326
11727TIP3    H256597  -0.063   4.162  16.458  1.6693 -1.1725 -1.5296
11728TIP3   OH256598   5.315   0.529   1.217 -0.0501  0.2729  0.1516
11728TIP3    H156599   5.270   0.444   1.216  0.0627  0.2160 -0.0916
11728TIP3    H256600   5.291   0.567   1.301  1.1637 -0.6874  0.9499
11729TIP3   OH256601   5.840   4.024   2.310 -0.3437  0.0234  0.3490
11729TIP3    H156602   5.881   4.039   2.395 -1.3149  2.5598  0.4236
11729TIP3    H256603   5.907   4.046   2.246 -0.8245  2.0016  0.4822
11730TIP3   OH256604   6.055   3.563   4.280 -0.5163  0.1724 -0.3345
11730TIP3    H156605   6.056   3.469   4.300  0.0618  0.0944 -0.6881
11730TIP3    H256606   6.130   3.575   4.221 -3.8954 -0.2228 -5.0384
11731TIP3   OH256607   0.423   3.161   0.588 -0.0443 -0.1128  0.5125
11731TIP3    H156608   0.340   3.142   0.545  0.3517 -0.0638 -0.2818
11731TIP3    H256609   0.440   3.253   0.569  0.6886 -0.3841 -0.1960
11732TIP3   OH256610   5.792   3.449   5.370 -0.4127  0.1723 -0.1535
11732TIP3    H156611   5.748   3.374   5.331  0.1864  0.2186 -0.9316
11732TIP3    H256612   5.848   3.412   5.438 -2.7678  0.2444  1.9025
11733TIP3   OH256613   4.302   2.953   4.231 -0.5104  0.1947  0.3366
11733TIP3    H156614   4.346   3.038   4.236 -0.2313  0.2104 -1.7681
11733TIP3    H256615   4.369   2.893   4.198 -1.7119  0.0007 -1.8769
11734TIP3   OH256616   1.189   3.475   1.945  0.4488  0.4969 -0.4325
11734TIP3    H156617   1.280   3.498   1.963  0.0478  2.6779 -1.0132
11734TIP3    H256618   1.156   3.440   2.027  1.1751  1.8638  0.4566
11735TIP3   OH256619   4.558   6.413   3.266 -0.4260  0.0576 -0.5123
11735TIP3    H156620   4.579   6.505   3.276  0.4846 -0.3412  1.5355
11735TIP3    H256621   4.464   6.408   3.285 -0.1309  0.3445  1.1108
11736TIP3   OH256622   2.961   3.501  15.396 -0.3269  0.2189  0.2407
11736TIP3    H156623   2.930   3.414  15.423 -0.2129  0.9695  2.9013
11736TIP3    H256624   3.053   3.503  15.424  0.3761  0.3405 -1.9724
11737TIP3   OH256625   4.084   6.747  13.226 -0.2823 -0.0136 -0.7156
11737TIP3    H156626   4.090   6.767  13.320  0.5937  0.2059 -0.8168
11737TIP3    H256627   3.989   6.743  13.209 -0.4476 -1.1134  0.3913
11738TIP3   OH256628   0.573   5.900  12.870  0.2843 -0.1397 -0.6655
11738TIP3    H156629   0.653   5.952  12.874  1.0997 -1.3267 -1.5609
11738TIP3    H256630   0.586   5.830  12.933  0.0292 -0.4659 -0.9748
11739TIP3   OH256631   5.538   3.094  13.972  0.2213 -0.0406 -0.3273
11739TIP3    H156632   5.608   3.037  13.940  1.0102  0.1807  0.9639
11739TIP3    H256633   5.535   3.077  14.066 -0.3238  1.2063 -0.1168
11740TIP3   OH256634   6.334   5.903   5.818 -0.1863 -0.2024 -0.2334
11740TIP3    H156635   6.398   5.858   5.763  0.2615 -0.8941  0.8325
11740TIP3    H256636   6.262   5.839   5.827 -0.1452 -0.1904  0.1873
11741TIP3   OH256637   5.554   5.827  12.583 -0.1121 -0.5044 -0.2249
11741TIP3    H156638   5.470   5.832  12.629  0.4751  0.1423  0.8180
11741TIP3    H256639   5.614   5.877  12.639  0.9947 -1.0829 -0.8849
11742TIP3   OH256640   2.421   1.717   5.172  0.8496 -0.7785 -0.0055
11742TIP3    H156641   2.449   1.658   5.241 -0.1221  0.3884  1.4345
11742TIP3    H256642   2.352   1.770   5.213  1.5877  1.2240 -1.2954
11743TIP3   OH256643   5.554   2.334   3.822 -0.7046 -0.5801 -0.9380
11743TIP3    H156644   5.542   2.429   3.826  1.0610 -0.3907  0.5732
11743TIP3    H256645   5.475   2.299   3.863 -0.6215  0.3189  0.0420
11744TIP3   OH256646   0.104   3.385   2.199 -0.3237  0.2042 -0.5974
11744TIP3    H156647   0.175   3.422   2.251  1.3038  0.0493 -2.6444
11744TIP3    H256648   0.144   3.310   2.155 -1.7869  0.0590 -1.6989
11745TIP3   OH256649   2.242   4.595   5.248  0.4239 -0.4154 -0.1370
11745TIP3    H156650   2.183   4.622   5.179  0.8225 -0.2530 -0.4172
11745TIP3    H256651   2.263   4.504   5.228  0.6818 -0.3146 -0.3382
11746TIP3   OH256652   5.134   2.554  15.944 -0.6337 -0.1919  0.0020
11746TIP3    H156653   5.117   2.605  16.024 -1.4495 -0.5038  0.0247
11746TIP3    H256654   5.049   2.548  15.901 -0.3493 -0.7228 -0.4805
11747TIP3   OH256655   4.312   5.986  13.374 -0.3609 -0.3809 -0.1329
11747TIP3    H156656   4.288   5.996  13.466  0.2487 -2.7046  0.2959
11747TIP3    H256657   4.233   6.010  13.325 -0.1306  2.6896  0.8898
11748TIP3   OH256658   4.438   4.576   0.949 -0.3023  0.3597  0.6249
11748TIP3    H156659   4.446   4.568   0.854  0.4869  0.8387  0.6427
11748TIP3    H256660   4.475   4.495   0.983 -1.0264 -0.0192  0.5069
11749TIP3   OH256661   1.750   3.275   4.456 -0.6622 -0.9325 -0.4357
11749TIP3    H156662   1.687   3.346   4.469 -0.3638 -0.8246  0.4315
11749TIP3    H256663   1.803   3.305   4.382 -2.4337 -1.6093 -2.0376
11750TIP3   OH256664   2.272   1.035  12.729  0.1148  0.1604 -0.4811
11750TIP3    H156665   2.202   1.087  12.769  0.3388 -0.7946  1.1910
11750TIP3    H256666   2.237   1.009  12.644 -1.2229  0.4422 -0.0245
11751TIP3   OH256667   3.351   1.731  12.268 -0.1858 -0.1316  0.1154
11751TIP3    H156668   3.380   1.819  12.294 -0.3867  0.2487 -0.9397
11751TIP3    H256669   3.385   1.720  12.180 -0.7112 -0.8660  0.0068
11752TIP3   OH256670   5.375   3.754   2.865 -0.4067 -0.0921 -0.4117
11752TIP3    H156671   5.450   3.751   2.806  1.3921  0.7337  1.7852
11752TIP3    H256672   5.401   3.702   2.941 -2.5111 -0.7421 -0.0819
11753TIP3   OH256673   6.149   0.672   1.250  0.1362  0.0521  0.4015
11753TIP3    H156674   6.089   0.702   1.318 -0.3252 -1.6411  0.7544
11753TIP3    H256675   6.170   0.582   1.273  0.2319 -0.4524 -1.5187
11754TIP3   OH256676   2.066   5.531   2.827  0.9535 -0.2198 -0.2546
11754TIP3    H156677   2.042   5.552   2.917 -1.1183  0.4854 -0.9441
11754TIP3    H256678   2.104   5.443   2.832 -1.2425 -1.1472  1.0105
11755TIP3   OH256679   1.133   0.454  12.381  0.3609 -0.3466 -0.3194
11755TIP3    H156680   1.126   0.502  12.298  0.6072 -0.7779 -0.5931
11755TIP3    H256681   1.060   0.486  12.434 -0.8340 -1.3260 -1.3466
11756TIP3   OH256682   0.136   5.486   5.441  0.3051  0.4522 -0.2645
11756TIP3    H156683   0.137   5.415   5.505  0.1602 -0.8782 -1.7118
11756TIP3    H256684   0.141   5.566   5.494  1.0163 -0.6402  1.3515
11757TIP3   OH256685   0.660   2.006  16.458 -0.2400  0.2172  0.5097
11757TIP3    H156686   0.729   2.008  16.391 -2.6654 -2.2596 -2.1911
11757TIP3    H256687   0.691   1.940  16.520  1.5188  1.7644  1.3376
11758TIP3   OH256688   5.289   4.875   5.690 -0.4468  0.4695 -0.0926
11758TIP3    H156689   5.373   4.833   5.670 -0.0170  1.7869 -1.1713
11758TIP3    H256690   5.272   4.853   5.781  0.0122 -1.5933 -0.4860
11759TIP3   OH256691   5.331   5.824  16.524  0.0126  0.1989 -0.7186
11759TIP3    H156692   5.422   5.848  16.536 -0.3786  1.4670 -0.2399
11759TIP3    H256693   5.309   5.771  16.600 -0.0256  1.0145 -0.1593
11760TIP3   OH256694   2.073   4.401  11.720 -0.5031 -0.5424  0.0449
11760TIP3    H156695   2.011   4.331  11.701  0.5086 -1.3215 -0.4842
11760TIP3    H256696   2.119   4.371  11.799 -0.0035 -0.5380 -0.2400
11761TIP3   OH256697   2.730   3.871  13.613  0.3880 -0.3469 -0.0725
11761TIP3    H156698   2.641   3.866  13.646  0.0710 -2.3102 -1.1453
11761TIP3    H256699   2.733   3.807  13.542  2.4390  0.2104 -0.5204
11762TIP3   OH256700   5.738   3.221   2.479  0.2498 -0.1752  0.9536
11762TIP3    H156701   5.678   3.227   2.405  2.3498  1.2526 -0.7157
11762TIP3    H256702   5.693   3.265   2.551 -0.3941  1.5715 -0.4822
11763TIP3   OH256703   2.185   2.073  15.130  0.1167 -0.1852  0.4215
11763TIP3    H156704   2.145   2.110  15.208 -1.3545  1.0954 -0.8983
11763TIP3    H256705   2.247   2.139  15.100 -0.6023  0.0925 -0.4710
11764TIP3   OH256706   1.402   3.589   2.116 -0.2083  0.0862  0.4079
11764TIP3    H156707   1.396   3.629   2.203 -3.5905 -0.1311  0.3423
11764TIP3    H256708   1.452   3.651   2.064  0.6576  0.8778  2.1505
11765TIP3   OH256709   5.401   4.419  15.648 -0.5680 -0.0564  0.1932
11765TIP3    H156710   5.329   4.423  15.711 -0.0289  0.1955  0.7880
11765TIP3    H256711   5.427   4.327  15.647 -1.9917 -0.4634 -1.2494
11766TIP3   OH256712   4.774   0.513  16.405 -0.0582 -0.4498 -0.5265
11766TIP3    H156713   4.820   0.580  16.455 -0.9377  0.5537 -1.0400
11766TIP3    H256714   4.722   0.465  16.470  2.0197 -1.8722  0.1226
11767TIP3   OH256715   5.256   5.148   3.573  0.2460  0.0359 -0.4434
11767TIP3    H156716   5.216   5.096   3.503 -0.0926  0.8499 -0.8607
11767TIP3    H256717   5.265   5.086   3.646 -0.1406 -0.6106 -0.9320
11768TIP3   OH256718   3.092   3.889  13.559  0.1067  0.1579  0.3894
11768TIP3    H156719   3.185   3.879  13.579 -0.3133 -1.9260  1.4562
11768TIP3    H256720   3.052   3.915  13.642 -0.2594  1.1720 -0.0987
11769TIP3   OH256721   1.131   5.728  13.559 -0.0089  0.2249  0.1088
11769TIP3    H156722   1.138   5.714  13.465  1.6902 -3.0610  0.6571
11769TIP3    H256723   1.105   5.643  13.594  0.3826  1.1266  2.7073
11770TIP3   OH256724   2.251   1.571  13.928  0.2782 -0.0613  0.3696
11770TIP3    H156725   2.333   1.540  13.966  0.4111 -1.5405 -1.0575
11770TIP3    H256726   2.220   1.498  13.875 -1.4839  0.8289  0.1283
11771TIP3   OH256727   1.188   2.048   6.282 -0.2708 -0.1802  0.2005
11771TIP3    H156728   1.160   2.119   6.224 -0.1308 -0.5274 -0.2995
11771TIP3    H256729   1.107   2.004   6.307 -0.1740 -1.4068 -1.5320
11772TIP3   OH256730   4.376   1.644   1.175 -0.6869 -0.1479  0.3640
11772TIP3    H156731   4.352   1.552   1.187  0.0175 -0.3036  0.6108
11772TIP3    H256732   4.378   1.656   1.080  0.8285 -0.8243  0.2988
11773TIP3   OH256733   2.572   5.264  12.705  0.1761  0.3843 -0.8404
11773TIP3    H156734   2.509   5.194  12.717 -0.1396  1.0370  1.5240
11773TIP3    H256735   2.658   5.222  12.715  0.0717 -0.0721 -1.7831
11774TIP3   OH256736   6.555   6.372   0.008 -1.1189  0.2396 -0.2550
11774TIP3    H156737   6.649   6.391   0.008 -0.9650 -0.4551 -1.0135
11774TIP3    H256738   6.514   6.453   0.037 -0.3275  0.8323 -0.7505
11775TIP3   OH256739   6.666   4.170   4.432  0.0217  0.3608 -0.4443
11775TIP3    H156740   6.599   4.204   4.374 -1.1962 -1.5984 -0.2279
11775TIP3    H256741   6.746   4.171   4.379 -0.5405  1.0372 -1.2905
11776TIP3   OH256742   2.750   3.183   5.426  0.0678 -0.1185 -1.0174
11776TIP3    H156743   2.812   3.141   5.367  1.3775 -2.2811  1.7612
11776TIP3    H256744   2.758   3.277   5.407  0.6729 -0.7408 -3.9951
11777TIP3   OH256745   2.908   1.968   1.816 -0.9196  0.7949 -0.6201
11777TIP3    H156746   2.820   1.976   1.854 -0.1602 -0.8034  1.5594
11777TIP3    H256747   2.909   1.880   1.779 -0.1023  0.6412 -0.2337
11778TIP3   OH256748   4.523   0.120   4.425  0.2637 -0.2673 -0.1317
11778TIP3    H156749   4.581   0.194   4.409  0.7930 -0.2092  1.8690
11778TIP3    H256750   4.439   0.160   4.446  0.7560 -0.1727  1.7631
11779TIP3   OH256751   0.306   3.668   1.482  0.2666  0.4040 -0.2467
11779TIP3    H156752   0.327   3.735   1.416  0.0675  1.4417  0.7268
11779TIP3    H256753   0.313   3.585   1.434  0.9829  1.0810 -1.3617
11780TIP3   OH256754   6.700   2.367   2.462  0.5621 -0.3391  0.4123
11780TIP3    H156755   6.643   2.432   2.502  0.5017 -0.6661  0.8578
11780TIP3    H256756   6.786   2.408   2.462  0.3559  0.1056 -0.1467
11781TIP3   OH256757   1.758   2.425   2.747 -0.2656  0.4111 -0.4067
11781TIP3    H156758   1.819   2.486   2.788  0.9898 -0.3926 -1.0492
11781TIP3    H256759   1.786   2.339   2.778 -1.1639  0.0335 -0.6107
11782TIP3   OH256760   0.551   5.075   3.763 -0.0003 -0.3030 -0.2752
11782TIP3    H156761   0.547   5.028   3.847  0.4657 -0.5070 -0.3650
11782TIP3    H256762   0.515   5.161   3.782 -0.2116 -0.4643  0.0582
11783TIP3   OH256763   0.950   6.604   2.559 -0.3180  0.2408 -1.1322
11783TIP3    H156764   0.939   6.579   2.650 -0.2434  1.9549 -0.6534
11783TIP3    H256765   1.045   6.604   2.545 -0.3110  0.4666 -1.0798
11784TIP3   OH256766   2.014   3.272   0.423 -0.1414 -0.1543  0.7790
11784TIP3    H156767   2.040   3.218   0.497  0.9765  1.6836  1.7656
11784TIP3    H256768   2.073   3.348   0.426 -2.0334  1.4208 -0.1841
11785TIP3   OH256769   6.691   6.270   3.477  0.5228 -0.0605  0.1571
11785TIP3    H156770   6.599   6.297   3.466  0.9419  1.3218 -0.0767
11785TIP3    H256771   6.701   6.196   3.417 -0.6341 -0.7231  0.7482
11786TIP3   OH256772   2.892   2.735  14.566  0.1470  0.0678  0.2254
11786TIP3    H156773   2.966   2.674  14.567 -0.3330 -0.5207  0.0631
11786TIP3    H256774   2.926   2.814  14.609  0.0121 -1.2034  2.8246
11787TIP3   OH256775   5.825   1.316   0.533 -0.4438 -0.1668 -0.1836
11787TIP3    H156776   5.743   1.287   0.492 -1.3888 -1.0959  2.2279
11787TIP3    H256777   5.870   1.235   0.556 -0.6346  0.2916  1.8971
11788TIP3   OH256778   3.686   6.254   0.515 -0.1835  0.2259 -0.0311
11788TIP3    H156779   3.713   6.340   0.482  0.1362  0.1668  0.0762
11788TIP3    H256780   3.643   6.273   0.598  1.9434  0.0857  1.1440
11789TIP3   OH256781   5.290   0.197   4.801  0.4249  0.1488 -0.5917
11789TIP3    H156782   5.258   0.228   4.886  0.4223  0.0563 -0.5588
11789TIP3    H256783   5.259   0.107   4.795 -0.5500  0.5219 -1.2006
11790TIP3   OH256784   3.837   4.771  12.269 -0.0001 -0.4223  0.8196
11790TIP3    H156785   3.874   4.686  12.294 -1.7025 -2.0585 -1.9038
11790TIP3    H256786   3.888   4.798  12.192 -0.8594 -0.0601  0.3650
11791TIP3   OH256787   6.679   0.403   4.279 -0.2961 -0.4381  0.1201
11791TIP3    H156788   6.693   0.361   4.195 -0.3029  0.5786 -0.3922
11791TIP3    H256789   6.706   0.494   4.266 -2.8724  0.4108  0.4214
11792TIP3   OH256790   2.905   4.047   6.040  0.7855  0.2991 -0.1042
11792TIP3    H156791   2.958   3.989   5.986 -0.4878 -0.7179 -0.2859
11792TIP3    H256792   2.819   4.005   6.043  0.5290  0.8996  1.8053
11793TIP3   OH256793   0.964   0.151   6.146 -0.2222 -0.0892 -0.3880
11793TIP3    H156794   0.904   0.216   6.183 -0.1778 -0.8400  1.0197
11793TIP3    H256795   1.031   0.139   6.213  0.1014 -1.1447 -0.8860
11794TIP3   OH256796   4.648   0.646  11.606  0.5482  0.5912  0.1164
11794TIP3    H156797   4.624   0.687  11.689  1.6800  1.1542  0.1774
11794TIP3    H256798   4.615   0.556  11.614 -0.3961  0.9786  0.6856
11795TIP3   OH256799   0.230   4.660   3.577  0.4483  0.0380 -0.1544
11795TIP3    H156800   0.284   4.716   3.633  0.7695  0.6663 -1.0926
11795TIP3    H256801   0.205   4.716   3.504 -1.5437 -0.2023  0.2852
11796TIP3   OH256802   2.410   5.582   2.618  0.1033  0.4411  0.9642
11796TIP3    H156803   2.366   5.661   2.648 -1.8120 -0.3993  0.4765
11796TIP3    H256804   2.338   5.520   2.602  1.5798 -1.4840  1.6516
11797TIP3   OH256805   1.425   2.217   4.831  0.1980 -0.1122 -0.1292
11797TIP3    H156806   1.424   2.122   4.840  0.5805 -0.0145  1.0474
11797TIP3    H256807   1.514   2.238   4.805 -0.2885 -0.1926 -1.9272
11798TIP3   OH256808   3.512   2.654   1.362 -0.3550 -0.5067  0.2158
11798TIP3    H156809   3.495   2.560   1.372  0.5434 -0.5721  1.1925
11798TIP3    H256810   3.508   2.669   1.268 -0.7514 -1.4761  0.0727
11799TIP3   OH256811   0.635   3.187  13.505 -0.7530  0.0842  0.3712
11799TIP3    H156812   0.594   3.271  13.484  0.5610  0.7100  0.2237
11799TIP3    H256813   0.690   3.168  13.430  0.1196 -0.1490  1.0592
11800TIP3   OH256814   0.794   4.445   1.861  0.2352 -0.2483 -0.3234
11800TIP3    H156815   0.806   4.350   1.853 -2.0237 -0.7045  1.3784
11800TIP3    H256816   0.831   4.467   1.946 -1.2393  0.0457  0.2421
11801TIP3   OH256817   6.103   1.491   1.487  0.0902 -0.0015  0.8399
11801TIP3    H156818   6.058   1.448   1.560 -0.3153 -0.8849  0.0757
11801TIP3    H256819   6.034   1.506   1.422  0.4171  0.9360  0.7046
11802TIP3   OH256820   0.415   4.747   3.981  0.4646 -0.0285  0.4471
11802TIP3    H156821   0.339   4.801   3.958  1.3096  1.2589  0.6258
11802TIP3    H256822   0.380   4.682   4.042 -0.4554  0.7253  0.7383
11803TIP3   OH256823   0.875   1.540   0.406 -0.4831 -0.1128 -0.3391
11803TIP3    H156824   0.932   1.532   0.482 -0.2519 -1.6179 -0.6465
11803TIP3    H256825   0.885   1.631   0.378  1.1734 -0.1416  0.0714
11804TIP3   OH256826   3.063   1.451  16.655  0.7922 -0.0328 -0.1484
11804TIP3    H156827   3.009   1.372  16.658  0.6220 -0.0288 -2.4498
11804TIP3    H256828   3.078   1.473  16.747 -1.3276 -1.2492  0.5128
11805TIP3   OH256829   2.203   0.117   6.215 -0.5434 -0.6254 -0.3630
11805TIP3    H156830   2.136   0.078   6.272 -0.2282 -1.3577 -0.4879
11805TIP3    H256831   2.274   0.140   6.274 -0.9598  0.2840 -0.2108
11806TIP3   OH256832   1.223   6.018  13.865  0.2069  0.1891  0.6688
11806TIP3    H156833   1.130   5.995  13.865  0.2491 -0.0570  2.1263
11806TIP3    H256834   1.256   5.984  13.948  1.7619 -0.3554 -0.1426
11807TIP3   OH256835   0.433   5.661   1.442 -0.0382 -0.3315 -0.5117
11807TIP3    H156836   0.502   5.595   1.441  0.2913  0.0061 -0.0578
11807TIP3    H256837   0.352   5.610   1.432  0.1918 -0.8357  0.1433
11808TIP3   OH256838   1.195   1.285  12.703 -0.6121 -0.0558  0.3212
11808TIP3    H156839   1.171   1.231  12.778 -1.1819 -0.0444  0.1430
11808TIP3    H256840   1.236   1.224  12.641 -0.0579 -0.0498  0.6718
11809TIP3   OH256841   1.606   2.002  14.680 -0.2710 -0.1676  0.1151
11809TIP3    H156842   1.609   2.039  14.768 -0.8389 -0.8548  0.4317
11809TIP3    H256843   1.686   1.950  14.673 -0.3577 -0.3282  0.3236
11810TIP3   OH256844   1.023   0.485  13.934 -0.0499 -0.2104 -0.1941
11810TIP3    H156845   1.109   0.459  13.966 -1.8703 -0.7680  4.6984
11810TIP3    H256846   1.021   0.580  13.946 -1.0334 -0.5143  2.3982
11811TIP3   OH256847   6.181   1.160   0.930 -0.0251 -0.3547 -0.5913
11811TIP3    H156848   6.096   1.140   0.889 -0.6985  3.8615 -1.4977
11811TIP3    H256849   6.158   1.197   1.015  1.0064 -0.9368 -0.0515
11812TIP3   OH256850   6.629   2.734   4.899  0.1937 -0.0725  0.1100
11812TIP3    H156851   6.694   2.692   4.955  0.1743  0.5037  0.5756
11812TIP3    H256852   6.545   2.706   4.934  0.1759  0.7272  0.7198
11813TIP3   OH256853   2.154   5.431   1.967  0.1140  0.2557  0.1959
11813TIP3    H156854   2.245   5.460   1.978 -0.0828  0.2279  2.1994
11813TIP3    H256855   2.129   5.461   1.880  1.9560  0.5200 -0.2594
11814TIP3   OH256856   4.805   5.283   4.429 -0.3843  0.3603 -0.0020
11814TIP3    H156857   4.727   5.336   4.414 -0.1240  0.2200 -1.9436
11814TIP3    H256858   4.852   5.285   4.346  1.3674 -0.0880  0.9610
11815TIP3   OH256859   0.551   1.492   1.094  0.0068  0.2726  0.0619
11815TIP3    H156860   0.471   1.440   1.084  0.2993 -0.3786  0.9825
11815TIP3    H256861   0.619   1.439   1.053  0.7718 -1.3023  3.1866
11816TIP3   OH256862   5.898   2.393   0.943 -0.4282 -0.1377 -0.3636
11816TIP3    H156863   5.843   2.323   0.910  0.3520 -0.6200 -0.6531
11816TIP3    H256864   5.967   2.403   0.878  1.7248 -1.8070  1.5819
11817TIP3   OH256865   6.075   5.367  16.943  0.0226 -0.2055 -0.4943
11817TIP3    H156866   5.987   5.363  16.980  0.1052 -0.0945 -0.2854
11817TIP3    H256867   6.090   5.460  16.925  0.6313 -0.0529  0.7636
11818TIP3   OH256868   3.620   2.068   6.409 -0.9026  0.6281 -0.2501
11818TIP3    H156869   3.554   2.015   6.453  1.3358 -1.0093  1.2835
11818TIP3    H256870   3.637   2.140   6.469  0.9245 -0.6741  0.8402
11819TIP3   OH256871   3.747   1.750  13.144 -0.1668 -0.1538  0.5719
11819TIP3    H156872   3.658   1.770  13.173 -0.0555  0.5034  0.4665
11819TIP3    H256873   3.763   1.662  13.178 -1.5317 -1.0371 -0.9926
11820TIP3   OH256874   6.692   0.886  12.387 -0.6675 -0.2197  0.1177
11820TIP3    H156875   6.603   0.911  12.361 -0.3645 -1.0690 -1.8868
11820TIP3    H256876   6.699   0.795  12.359  0.3481 -0.5927  1.5917
11821TIP3   OH256877   1.864   4.657  12.444  0.3501 -0.1442  0.0909
11821TIP3    H156878   1.959   4.666  12.454  0.3832 -1.2002  0.8387
11821TIP3    H256879   1.832   4.747  12.438  1.4143  0.2110 -0.3391
11822TIP3   OH256880   1.215   5.512  15.751 -0.0692  0.0948 -0.0606
11822TIP3    H156881   1.282   5.454  15.714 -0.6868 -0.2407 -0.6513
11822TIP3    H256882   1.141   5.455  15.771 -0.3785  0.5494  0.1077
11823TIP3   OH256883   0.181   3.839   4.950 -0.3411  0.0847  0.5394
11823TIP3    H156884   0.209   3.748   4.963  1.3396  0.7930  1.9858
11823TIP3    H256885   0.217   3.863   4.865 -0.6119 -0.5343  0.2462
11824TIP3   OH256886   2.659   6.329   4.515  0.2124 -0.8756 -0.1037
11824TIP3    H156887   2.744   6.366   4.540  0.0240 -0.5378  0.0356
11824TIP3    H256888   2.605   6.405   4.493  0.3388 -1.1679 -1.4373
11825TIP3   OH256889   3.970   0.939  12.131 -0.3202 -0.0016  0.5206
11825TIP3    H156890   3.878   0.959  12.115 -0.6440 -1.9333 -0.0915
11825TIP3    H256891   4.010   0.933  12.044 -0.1406 -1.5523  0.6999
11826TIP3   OH256892   6.447   5.649  12.699  0.7792 -0.0919 -0.5576
11826TIP3    H156893   6.463   5.640  12.793  0.5710 -1.1981 -0.6267
11826TIP3    H256894   6.501   5.724  12.673  1.0084  0.0832  0.3990
11827TIP3   OH256895   3.368   6.478  10.962 -0.0011  0.3689  0.4003
11827TIP3    H156896   3.340   6.539  11.030 -1.9079  0.5568 -0.5085
11827TIP3    H256897   3.424   6.531  10.904 -1.3614  1.2028 -0.1934
11828TIP3   OH256898   1.356   4.897  12.018 -0.2075  0.2904 -0.3037
11828TIP3    H156899   1.265   4.929  12.017 -0.3496 -0.1165 -1.2040
11828TIP3    H256900   1.348   4.803  12.003  0.2543 -0.0808  1.5639
11829TIP3   OH256901   2.283   0.119   0.417 -0.6490 -0.0463 -0.2435
11829TIP3    H156902   2.209   0.067   0.385  0.3483 -1.1667 -0.7672
11829TIP3    H256903   2.360   0.067   0.394  0.3500  1.5004 -0.4368
11830TIP3   OH256904   5.258   3.205   2.198  0.3446  0.4664 -0.0787
11830TIP3    H156905   5.230   3.114   2.192 -0.5804  0.7662 -0.5145
11830TIP3    H256906   5.202   3.243   2.266  0.6275  0.7389  0.0026
11831TIP3   OH256907   5.128   6.061  11.724 -0.3491  0.0021  0.2797
11831TIP3    H156908   5.078   5.981  11.739 -0.4357 -0.1351 -0.7460
11831TIP3    H256909   5.212   6.030  11.690 -0.2039  0.3259  0.3450
11832TIP3   OH256910   6.159   0.609  11.062  0.2152 -0.6636  0.3484
11832TIP3    H156911   6.240   0.657  11.046  0.3054 -0.6998  0.6974
11832TIP3    H256912   6.170   0.527  11.014 -0.9321  0.6500 -2.2723
11833TIP3   OH256913   6.644   1.467  13.294 -0.2291  0.3896  0.9825
11833TIP3    H156914   6.581   1.452  13.364  0.7000 -2.0125  1.3325
11833TIP3    H256915   6.604   1.428  13.216 -0.5263  1.5954  0.5195
11834TIP3   OH256916   3.767   5.000  15.293 -0.0024 -0.0531  0.0749
11834TIP3    H156917   3.741   4.921  15.342 -1.6948  0.2556 -0.2900
11834TIP3    H256918   3.700   5.009  15.225  1.1876  0.6955 -1.0175
11835TIP3   OH256919   1.246   3.467   3.548 -0.3267 -0.0180 -0.0269
11835TIP3    H156920   1.266   3.459   3.455  2.7039 -1.7505  0.6833
11835TIP3    H256921   1.259   3.560   3.568  1.2467 -0.0370 -0.9012
11836TIP3   OH256922   5.325   1.950   3.114 -0.3789 -0.4846 -0.3909
11836TIP3    H156923   5.310   1.968   3.022  0.0939  1.5737 -0.0857
11836TIP3    H256924   5.240   1.921   3.147 -0.8104 -0.1993 -1.2400
11837TIP3   OH256925   2.581   4.342  14.300 -0.2913  0.3578 -0.1909
11837TIP3    H156926   2.540   4.386  14.226  0.7434  0.2343 -0.8448
11837TIP3    H256927   2.640   4.278  14.260 -0.6600 -0.5765  0.7408
11838TIP3   OH256928   3.510   4.113   1.919  0.8730  0.1129  0.4849
11838TIP3    H156929   3.592   4.069   1.895 -0.1626 -1.1064 -0.9637
11838TIP3    H256930   3.507   4.190   1.862  0.5773 -0.3357 -0.1067
11839TIP3   OH256931   4.874   6.222  13.357  0.4806 -0.1095  0.1618
11839TIP3    H156932   4.785   6.187  13.369  0.2598  0.4169  0.0861
11839TIP3    H256933   4.931   6.145  13.362  0.0886 -0.3449  1.0073
11840TIP3   OH256934   6.571   5.618   2.923  0.0817  0.0250  0.4404
11840TIP3    H156935   6.554   5.571   3.004 -0.1274  0.9682  0.9467
11840TIP3    H256936   6.493   5.671   2.909  0.2932  0.1847 -0.1592
11841TIP3   OH256937   2.731   3.347  14.806 -0.1339 -0.6893 -0.1493
11841TIP3    H156938   2.714   3.358  14.899  0.8806 -0.2077 -0.0174
11841TIP3    H256939   2.669   3.405  14.763  0.2347  0.0276  0.2765
11842TIP3   OH256940   6.614   1.873   2.656  0.3000 -0.2014  0.4445
11842TIP3    H156941   6.636   1.943   2.595 -0.1819 -0.3384  0.1124
11842TIP3    H256942   6.575   1.918   2.731 -1.7668 -0.2580 -0.5753
11843TIP3   OH256943   1.852   1.749   0.474 -0.5770  0.0162  0.1774
11843TIP3    H156944   1.801   1.768   0.554  0.5104 -1.6809  1.3047
11843TIP3    H256945   1.935   1.714   0.507  0.7754  1.4124 -1.6816
11844TIP3   OH256946   3.294   5.354  14.073 -0.3008 -0.6748  0.2458
11844TIP3    H156947   3.249   5.311  14.146  1.2959 -1.0874  1.0059
11844TIP3    H256948   3.264   5.307  13.996 -1.1878 -0.9358  0.7359
11845TIP3   OH256949   3.435   1.772  17.025  0.3744 -0.1833  0.0320
11845TIP3    H156950   3.454   1.796  16.934  1.3176  0.0517  0.2937
11845TIP3    H256951   3.505   1.811  17.076 -0.7037  0.5481  0.9917
11846TIP3   OH256952   0.546   6.249  17.020 -0.2693 -0.7723  0.4409
11846TIP3    H156953   0.536   6.204  17.103 -1.7603 -1.1238  0.0877
11846TIP3    H256954   0.475   6.315  17.020  1.0835  0.7172  0.4034
11847TIP3   OH256955   5.951   3.483   3.821 -0.0712 -0.4675  0.1880
11847TIP3    H156956   5.908   3.503   3.904 -2.4000 -0.7202 -0.9083
11847TIP3    H256957   5.880   3.459   3.762  1.7322 -2.3738 -1.3023
11848TIP3   OH256958   2.766   5.037  15.832  0.3899  0.1139 -0.9090
11848TIP3    H156959   2.775   4.963  15.892  0.6821  0.5480 -0.4242
11848TIP3    H256960   2.796   5.002  15.748 -0.5681 -0.6635 -0.9351
11849TIP3   OH256961   2.100   5.590  12.986 -0.5466 -0.1603 -0.4685
11849TIP3    H156962   2.082   5.609  13.078  2.3608 -0.2870  0.1885
11849TIP3    H256963   2.159   5.660  12.958 -1.1615 -0.2957 -2.1461
11850TIP3   OH256964   3.314   5.162   4.395  0.1238  0.2848  0.4199
11850TIP3    H156965   3.348   5.247   4.424 -2.3894  1.2714  0.6372
11850TIP3    H256966   3.365   5.098   4.444  1.0561  1.6993  1.3634
11851TIP3   OH256967   4.079   6.142   1.234 -0.4613  0.1111 -0.1442
11851TIP3    H156968   4.062   6.180   1.320 -1.6966  2.9165 -1.5602
11851TIP3    H256969   3.993   6.139   1.192  0.1719 -0.9756 -1.3820
11852TIP3   OH256970   5.459   1.847  11.641 -0.1096  0.8119 -0.0206
11852TIP3    H156971   5.448   1.752  11.645  0.9501  0.6636 -0.3738
11852TIP3    H256972   5.479   1.873  11.731 -0.1029  0.6566  0.0235
11853TIP3   OH256973   4.479   6.012   4.738 -0.0944 -0.0004  0.2673
11853TIP3    H156974   4.493   6.029   4.832 -2.1642  0.6255  0.4793
11853TIP3    H256975   4.390   5.978   4.733 -0.4489  1.1579 -1.6305
11854TIP3   OH256976   0.698   3.137   5.921  0.5169 -0.0258  0.0616
11854TIP3    H156977   0.643   3.113   5.996 -1.7980  1.5071 -1.0960
11854TIP3    H256978   0.766   3.069   5.919 -0.0208 -0.7264  2.8515
11855TIP3   OH256979   2.383   5.332   3.419  0.0701  0.3932  0.3902
11855TIP3    H156980   2.365   5.413   3.371 -0.9265  0.2573  0.5161
11855TIP3    H256981   2.344   5.347   3.505  2.2607  0.8281  1.3443
11856TIP3   OH256982   4.005   2.397  10.667 -0.2193 -0.5165 -0.2094
11856TIP3    H156983   4.046   2.316  10.638  0.3950 -0.1276 -0.4318
11856TIP3    H256984   4.077   2.451  10.698 -0.7177 -0.3760  0.7262
11857TIP3   OH256985   1.958   4.791   1.321 -0.3951  0.4480  0.2138
11857TIP3    H156986   1.989   4.879   1.341  1.7422 -0.4615  1.0030
11857TIP3    H256987   1.974   4.781   1.227  3.2938 -0.5670  0.8726
11858TIP3   OH256988   2.191   2.525  12.569  0.1139  0.5575 -0.6230
11858TIP3    H156989   2.151   2.492  12.489 -1.6210  0.0672  0.4152
11858TIP3    H256990   2.207   2.618  12.552 -2.0652  0.9151 -0.8508
11859TIP3   OH256991   0.290   2.844   3.938 -0.3595 -0.4106 -0.3540
11859TIP3    H156992   0.312   2.785   4.010  0.1917 -0.5293 -0.6210
11859TIP3    H256993   0.373   2.862   3.895 -0.6835 -0.2989 -0.9376
11860TIP3   OH256994   3.411   2.075  14.679 -0.0104  0.0168 -0.4993
11860TIP3    H156995   3.448   2.121  14.754 -2.3043 -3.1573  2.8211
11860TIP3    H256996   3.428   1.982  14.697 -3.9246 -1.0912 -1.9503
11861TIP3   OH256997   4.047   3.526  11.736 -0.9322 -0.2819 -0.3270
11861TIP3    H156998   4.111   3.480  11.791 -0.3317  1.0521  0.1232
11861TIP3    H256999   4.036   3.469  11.660 -0.5769 -1.3999  0.4395
11862TIP3   OH257000   6.508   3.687  13.169 -0.0441  0.3336 -0.3771
11862TIP3    H157001   6.425   3.712  13.127 -0.3052 -1.1467 -0.7632
11862TIP3    H257002   6.558   3.769  13.174 -0.5737  0.7907 -2.3161
11863TIP3   OH257003   2.574   0.132  11.322  0.7294  0.2924 -0.1557
11863TIP3    H157004   2.485   0.099  11.339  0.8601 -0.2061 -0.4208
11863TIP3    H257005   2.564   0.227  11.321  0.2180  0.2462 -0.0624
11864TIP3   OH257006   2.938   2.725   2.336  0.6520 -0.1374  0.3215
11864TIP3    H157007   2.858   2.746   2.384  0.6868  1.0145 -0.1001
11864TIP3    H257008   2.983   2.809   2.327  0.6522 -0.3239 -1.6919
11865TIP3   OH257009   1.756   4.076   5.555 -0.5291 -0.3116  0.5073
11865TIP3    H157010   1.705   4.071   5.473  0.5256  1.2210 -0.2629
11865TIP3    H257011   1.709   4.141   5.608  0.4026  0.8441 -0.0639
11866TIP3   OH257012   4.155   4.769  11.133  0.1929  0.2885  0.4167
11866TIP3    H157013   4.201   4.768  11.049 -0.3605 -0.9107  0.1200
11866TIP3    H257014   4.064   4.750  11.111  0.1252 -0.4709  1.3209
11867TIP3   OH257015   4.283   5.984  12.911 -0.0268 -0.5129 -0.3014
11867TIP3    H157016   4.214   6.020  12.856 -0.8439  0.8754  1.5920
11867TIP3    H257017   4.238   5.920  12.966  0.0453  0.8469  1.3785
11868TIP3   OH257018   0.280   5.554  14.409  0.2718  0.1470 -0.0113
11868TIP3    H157019   0.231   5.474  14.425  0.9501 -0.3244 -0.2591
11868TIP3    H257020   0.346   5.556  14.478  0.4993  0.2981 -0.2338
11869TIP3   OH257021   4.435   5.664   4.474 -0.1774  0.0220  0.7866
11869TIP3    H157022   4.360   5.698   4.522 -1.2317 -1.6435  0.3537
11869TIP3    H257023   4.423   5.694   4.384 -0.6015 -0.6562  0.6112
11870TIP3   OH257024   5.730   4.647   1.595 -0.1868  0.7606 -0.3915
11870TIP3    H157025   5.733   4.716   1.661  1.7501  0.1142  0.2106
11870TIP3    H257026   5.774   4.572   1.635  0.5063  0.1623 -2.2007
11871TIP3   OH257027   6.644   2.087   0.823 -0.3731  0.6347 -1.0924
11871TIP3    H157028   6.658   2.078   0.917  1.3024 -0.3739 -1.4104
11871TIP3    H257029   6.558   2.050   0.807  0.4236 -1.6566 -0.2977
11872TIP3   OH257030   1.499   2.726   2.641  0.1229  0.1463 -0.2553
11872TIP3    H157031   1.491   2.664   2.713  3.1817  1.7649  1.5973
11872TIP3    H257032   1.431   2.791   2.658  0.5616  0.3033  0.9836
11873TIP3   OH257033   1.042   4.922  16.232  0.1347 -0.0291 -0.2434
11873TIP3    H157034   0.989   4.847  16.260  1.1152 -0.7615 -0.3273
11873TIP3    H257035   1.085   4.892  16.152  1.0356  0.3967  0.0798
11874TIP3   OH257036   1.427   2.313  16.889 -0.2398  0.2701 -0.5382
11874TIP3    H157037   1.491   2.247  16.918  0.0954  0.5029 -0.7515
11874TIP3    H257038   1.468   2.397  16.908 -0.3489  0.4215 -0.9703
11875TIP3   OH257039   1.231   5.439   2.591  0.1458  0.0957  0.6195
11875TIP3    H157040   1.275   5.524   2.597  1.7144 -0.7214  0.9335
11875TIP3    H257041   1.158   5.454   2.531  1.2408  1.3290 -0.4317
11876TIP3   OH257042   2.744   2.878  13.690 -0.5447 -0.1051 -0.3065
11876TIP3    H157043   2.747   2.790  13.651 -0.6693 -0.3524  0.2458
11876TIP3    H257044   2.781   2.867  13.777 -0.6791  0.3670 -0.1901
11877TIP3   OH257045   0.306   1.179   6.542 -1.0086 -0.3008 -0.1412
11877TIP3    H157046   0.277   1.106   6.597 -1.7310 -0.3787 -0.6255
11877TIP3    H257047   0.332   1.247   6.605  0.7851 -1.3892  0.3324
11878TIP3   OH257048   3.262   4.787  13.014 -0.2955 -0.0636 -0.0908
11878TIP3    H157049   3.343   4.782  12.963  1.4723 -0.4776  2.6319
11878TIP3    H257050   3.244   4.881  13.021  0.8297  0.1114  0.5938
11879TIP3   OH257051   0.817   6.394  13.125  0.5088  0.0177 -0.1167
11879TIP3    H157052   0.741   6.435  13.085  0.6953  0.6691  0.1873
11879TIP3    H257053   0.850   6.333  13.058 -1.1259 -1.3548  0.2932
11880TIP3   OH257054   4.427   5.319  15.487 -0.6868 -0.4064  0.1863
11880TIP3    H157055   4.445   5.407  15.520 -0.8237  0.6959 -2.5405
11880TIP3    H257056   4.339   5.299  15.520 -0.0313 -0.2056  2.1331
11881TIP3   OH257057   3.475   0.522   1.562  0.8221  0.0721 -0.8403
11881TIP3    H157058   3.548   0.574   1.530  0.1782  1.1227 -0.6534
11881TIP3    H257059   3.500   0.497   1.651  1.2566 -0.1656 -1.0324
11882TIP3   OH257060   4.906   1.542   1.604  0.0605 -0.1605  0.5778
11882TIP3    H157061   4.882   1.630   1.576 -1.9073 -0.8242  0.1052
11882TIP3    H257062   4.823   1.500   1.625  0.7918 -2.5558 -1.1091
11883TIP3   OH257063   3.982   1.554  12.789  0.4733 -0.4278 -0.3112
11883TIP3    H157064   4.031   1.544  12.871  0.3521  1.0599 -0.0408
11883TIP3    H257065   3.906   1.608  12.812  1.0234  0.9543 -1.6034
11884TIP3   OH257066   5.326   2.262  15.741 -0.4437 -0.6423  0.0751
11884TIP3    H157067   5.401   2.206  15.723 -0.4578 -0.5624 -0.2377
11884TIP3    H257068   5.251   2.203  15.737 -0.5976 -0.3506 -1.6630
11885TIP3   OH257069   0.790   1.323  13.826  0.5406  0.7414 -0.2578
11885TIP3    H157070   0.719   1.371  13.785 -0.3809  0.0515  0.5206
11885TIP3    H257071   0.806   1.248  13.767 -0.5424 -0.0539  0.4549
11886TIP3   OH257072   3.150   0.597  16.910  0.0627  0.4917 -0.0329
11886TIP3    H157073   3.203   0.553  16.976  0.5595 -2.0181 -2.0628
11886TIP3    H257074   3.196   0.680  16.894  1.3316 -0.0148  0.8840
11887TIP3   OH257075   4.766   3.862  14.765 -0.3324 -0.4980 -0.3625
11887TIP3    H157076   4.800   3.774  14.753  1.8542  0.1818  0.6668
11887TIP3    H257077   4.823   3.917  14.711 -0.1839  0.5901  0.8984
11888TIP3   OH257078   0.078   5.515  14.084  0.5809  0.3665 -0.2344
11888TIP3    H157079   0.044   5.494  14.171 -0.1690  0.7691 -0.4241
11888TIP3    H257080   0.141   5.585  14.099  2.7023 -1.5907  0.3374
11889TIP3   OH257081   2.344   6.690   5.333 -0.2987  0.1962 -0.1873
11889TIP3    H157082   2.326   6.784   5.328 -0.0331  0.3422  1.3604
11889TIP3    H257083   2.297   6.662   5.411  1.3626 -0.5513  0.5549
11890TIP3   OH257084   3.438   0.802  12.230 -0.0126 -0.5449 -0.4070
11890TIP3    H157085   3.475   0.773  12.314  0.1773  0.6875 -0.0476
11890TIP3    H257086   3.495   0.873  12.203 -0.4348 -0.5431 -1.2944
11891TIP3   OH257087   0.590   5.233  17.195  0.3095 -0.1383  0.7651
11891TIP3    H157088   0.665   5.175  17.182 -0.5554 -1.7484  2.6299
11891TIP3    H257089   0.621   5.301  17.254  0.9466  0.5774 -0.3604
11892TIP3   OH257090   0.240   0.933   5.949  0.6777 -0.2082  0.1309
11892TIP3    H157091   0.170   0.974   6.000 -1.2289  0.8039 -3.1161
11892TIP3    H257092   0.209   0.844   5.934  0.4541 -0.0101 -0.6073
11893TIP3   OH257093   5.342   6.533   1.977  0.0333 -0.1367  0.2418
11893TIP3    H157094   5.279   6.605   1.978  0.9203  0.6513  1.2092
11893TIP3    H257095   5.353   6.513   1.884 -2.8194 -1.3688  0.1260
11894TIP3   OH257096   3.594   5.713  11.845  0.0584 -0.0575  0.4538
11894TIP3    H157097   3.645   5.644  11.803  0.9649 -0.3054  1.9050
11894TIP3    H257098   3.613   5.792  11.794 -0.0907 -0.6520 -0.5244
11895TIP3   OH257099   0.877   6.634  16.879 -0.2644 -0.2123 -0.3392
11895TIP3    H157100   0.917   6.651  16.794  0.7730 -0.2832  0.1351
11895TIP3    H257101   0.831   6.551  16.868 -0.2030 -0.1823 -0.8489
11896TIP3   OH257102   5.858   5.252  10.886  0.3189  0.2743  0.6731
11896TIP3    H157103   5.874   5.209  10.802  0.2529  1.0037  0.2838
11896TIP3    H257104   5.867   5.182  10.951  0.7234 -0.2175  0.0891
11897TIP3   OH257105   1.833   5.173   4.934 -0.3467  0.3636  0.0434
11897TIP3    H157106   1.924   5.174   4.905 -0.1023 -4.2109  0.2128
11897TIP3    H257107   1.837   5.194   5.027  0.5947 -0.2597  0.1482
11898TIP3   OH257108   6.364   2.450  15.752  0.5715 -0.2035  0.3598
11898TIP3    H157109   6.277   2.409  15.755 -0.3135  1.5394 -0.5260
11898TIP3    H257110   6.357   2.524  15.812  0.6918  1.3046 -1.4431
11899TIP3   OH257111   4.954   1.165  14.352  0.1151 -0.6606  0.6761
11899TIP3    H157112   4.862   1.143  14.364  0.3670 -2.0481  0.0983
11899TIP3    H257113   5.002   1.101  14.404  0.7784 -0.1674  0.6806
11900TIP3   OH257114   6.056   0.550   5.071  0.8141 -0.1469  0.6757
11900TIP3    H157115   6.043   0.575   5.162 -0.3623  0.8638  0.2522
11900TIP3    H257116   5.988   0.484   5.055  1.6649 -1.0705  0.8030
11901TIP3   OH257117   6.461   5.461   2.137  0.3769 -0.8504  0.4874
11901TIP3    H157118   6.368   5.470   2.122  0.3744 -1.7868 -0.0745
11901TIP3    H257119   6.495   5.551   2.138 -0.4193 -0.5509  0.0490
11902TIP3   OH257120   4.036   2.409   5.037  0.0011 -0.1734  0.7617
11902TIP3    H157121   4.083   2.482   5.077 -0.2784  1.8207 -2.4493
11902TIP3    H257122   4.101   2.339   5.029  1.6158  1.4563 -0.7091
11903TIP3   OH257123   2.103   3.950  12.099 -0.8065 -0.0772 -0.9688
11903TIP3    H157124   2.054   4.031  12.110 -1.5768 -0.5759 -0.6568
11903TIP3    H257125   2.045   3.882  12.134  0.1552 -0.6605 -0.5045
11904TIP3   OH257126   2.079   2.366   1.673  0.3352  0.6074 -0.2509
11904TIP3    H157127   2.105   2.336   1.585 -1.0466  1.4455 -0.9647
11904TIP3    H257128   2.141   2.435   1.694 -0.1103  1.2957 -1.1356
11905TIP3   OH257129   5.482   4.519   1.849 -0.1608  0.3058  0.0659
11905TIP3    H157130   5.569   4.546   1.879 -0.4809  1.7085 -0.2215
11905TIP3    H257131   5.431   4.600   1.849 -2.1210 -0.8538  2.4545
11906TIP3   OH257132   5.704   4.490  12.414  0.7216  0.5332 -1.0935
11906TIP3    H157133   5.663   4.447  12.489  0.3417  2.3923 -0.2159
11906TIP3    H257134   5.755   4.420  12.372 -0.3890 -0.9237 -0.0859
11907TIP3   OH257135   6.086   3.456   2.046  0.6774  0.3704 -0.4546
11907TIP3    H157136   6.014   3.420   1.994 -0.6037 -0.0663  1.5651
11907TIP3    H257137   6.068   3.550   2.049  0.6867  0.3806 -0.6963
11908TIP3   OH257138   1.935   4.516  16.365  0.2869  0.3820  0.3889
11908TIP3    H157139   1.944   4.568  16.285 -1.8463 -0.7223 -0.6133
11908TIP3    H257140   1.893   4.576  16.428 -1.3046  0.1700 -0.4624
11909TIP3   OH257141   0.551   1.438   2.538  0.8514 -0.1861  0.1007
11909TIP3    H157142   0.531   1.460   2.628  1.6658  0.1583  0.2015
11909TIP3    H257143   0.472   1.394   2.505  0.2063  0.5325  0.6857
11910TIP3   OH257144   3.475   0.286   1.389 -0.5568 -0.2204 -0.1796
11910TIP3    H157145   3.570   0.298   1.392 -0.0558 -3.6603  0.0138
11910TIP3    H257146   3.439   0.375   1.394  2.6308  1.1235 -0.0690
11911TIP3   OH257147   1.991   6.682  12.596 -0.1310 -0.1690  0.1571
11911TIP3    H157148   2.044   6.671  12.675  2.6479 -1.6293 -1.8404
11911TIP3    H257149   1.962   6.593  12.574 -1.6730  0.3407  0.0044
11912TIP3   OH257150   0.842   6.375  12.116  0.0744 -0.1261 -0.1949
11912TIP3    H157151   0.787   6.364  12.039  2.4785 -0.6582 -1.8656
11912TIP3    H257152   0.856   6.286  12.149  0.7905 -0.0889 -0.3914
11913TIP3   OH257153   0.740   4.239   0.882  0.2277 -0.3136 -0.0928
11913TIP3    H157154   0.820   4.226   0.933  1.0926 -0.8922 -1.5871
11913TIP3    H257155   0.742   4.332   0.857  2.2011 -1.1029 -3.0429
11914TIP3   OH257156   0.545   1.087   3.148  0.0096 -0.7133  0.6608
11914TIP3    H157157   0.465   1.035   3.139 -0.5564 -0.1658  2.2703
11914TIP3    H257158   0.515   1.178   3.146  0.4130 -0.5125  2.5199
11915TIP3   OH257159   6.316   6.259   2.207  0.6518 -0.4268 -0.1680
11915TIP3    H157160   6.275   6.344   2.226 -0.1097 -0.9708  0.6976
11915TIP3    H257161   6.403   6.281   2.175  0.9983  0.6353  1.4489
11916TIP3   OH257162   5.787   6.569   4.428  0.2358 -0.0986  1.0047
11916TIP3    H157163   5.806   6.663   4.417  0.3467 -0.4084 -1.8616
11916TIP3    H257164   5.742   6.544   4.347 -0.6523 -2.3166  2.1552
11917TIP3   OH257165   3.455   3.147  14.938  0.1404  0.3015  0.1616
11917TIP3    H157166   3.372   3.128  14.894  0.6746  0.1119 -0.7806
11917TIP3    H257167   3.448   3.240  14.961 -0.0895  0.4503 -0.4755
11918TIP3   OH257168   2.756   0.578   3.947  0.6650  0.0308  0.5295
11918TIP3    H157169   2.833   0.534   3.912  0.8135 -0.5030  1.5235
11918TIP3    H257170   2.791   0.646   4.004  0.4018  0.2732  0.4074
11919TIP3   OH257171   4.182   1.752  12.771 -0.2391 -0.2669 -0.4765
11919TIP3    H157172   4.210   1.660  12.769  0.7882  0.0513 -0.9187
11919TIP3    H257173   4.134   1.765  12.689 -0.4466 -0.4241 -0.3805
11920TIP3   OH257174   2.807   3.007   3.980  0.0799 -0.0991  0.2946
11920TIP3    H157175   2.814   2.949   3.905 -0.8615  0.3098 -0.1156
11920TIP3    H257176   2.895   3.042   3.992  0.4143 -0.8090 -0.0959
11921TIP3   OH257177   4.290   6.683  12.556  0.1090 -0.5677 -0.0980
11921TIP3    H157178   4.355   6.664  12.489  0.1616  0.2924 -0.3005
11921TIP3    H257179   4.208   6.696  12.508  0.1992  0.2986 -0.0304
11922TIP3   OH257180   4.568   2.295   6.466  0.4107  0.0739  0.0716
11922TIP3    H157181   4.514   2.355   6.415  0.5222 -0.1285 -0.2819
11922TIP3    H257182   4.658   2.323   6.448  0.4802 -0.4448 -0.4030
11923TIP3   OH257183   6.739   2.680  14.909  0.0315 -0.3051 -0.1648
11923TIP3    H157184   6.807   2.740  14.939 -2.3584  2.2908  0.2803
11923TIP3    H257185   6.688   2.659  14.988 -1.6248  0.3832 -1.0192
11924TIP3   OH257186   5.329   5.269  11.301 -0.2195  0.6541  0.4493
11924TIP3    H157187   5.305   5.234  11.215  2.1852 -0.3893  0.1714
11924TIP3    H257188   5.359   5.358  11.282 -1.8894  1.2569  0.5407
11925TIP3   OH257189   3.116   5.740  13.344  0.1298 -0.0018 -0.6832
11925TIP3    H157190   3.185   5.723  13.408  0.6608  0.0441 -1.2440
11925TIP3    H257191   3.157   5.796  13.278  0.0791 -1.4316 -1.9540
11926TIP3   OH257192   1.601   1.147   4.292  0.0580 -0.0524  0.4398
11926TIP3    H157193   1.612   1.145   4.387  2.3930 -0.2593  0.2035
11926TIP3    H257194   1.534   1.081   4.274 -0.3614 -0.0497  1.9428
11927TIP3   OH257195   0.878   1.506   2.955  0.0863 -0.2904  0.3887
11927TIP3    H157196   0.928   1.483   2.877  1.1046  1.4856  0.4776
11927TIP3    H257197   0.812   1.568   2.923 -1.7817 -2.2427  0.3555
11928TIP3   OH257198   0.873   5.842   0.389 -0.1177  0.2742 -0.6255
11928TIP3    H157199   0.849   5.757   0.352  1.7929  0.1080 -1.5779
11928TIP3    H257200   0.957   5.826   0.432  0.1309  1.6066 -0.6037
11929TIP3   OH257201   4.138   4.099   3.797  0.1534  0.4124 -0.2491
11929TIP3    H157202   4.150   4.074   3.889 -0.0411  0.0539 -0.3193
11929TIP3    H257203   4.044   4.102   3.784  0.1747  1.7705 -0.0942
11930TIP3   OH257204   0.969   0.270   1.573 -0.4639  0.7762 -0.2959
11930TIP3    H157205   1.044   0.317   1.537  1.1996  0.4832  2.6512
11930TIP3    H257206   0.894   0.328   1.557  0.4434  1.3192 -2.7633
11931TIP3   OH257207   4.918   2.262   0.274 -0.3806 -0.2202 -0.4461
11931TIP3    H157208   5.009   2.233   0.284 -0.2472  0.0662 -0.8073
11931TIP3    H257209   4.892   2.229   0.188 -0.5444 -0.1023 -0.4414
11932TIP3   OH257210   0.930   1.020  12.664  0.1339 -0.5594  0.6793
11932TIP3    H157211   0.947   1.008  12.757 -3.2347 -1.0294  1.2731
11932TIP3    H257212   0.894   1.109  12.657 -0.1164 -0.7155 -0.1036
11933TIP3   OH257213   5.114   3.908  16.519  0.9157 -0.4210 -0.1440
11933TIP3    H157214   5.127   3.849  16.593  1.6104 -2.5171 -1.8712
11933TIP3    H257215   5.030   3.950  16.536  1.3787 -0.4020  2.1408
11934TIP3   OH257216   4.866   4.811  13.749  0.3062 -0.2136 -0.3528
11934TIP3    H157217   4.794   4.781  13.804 -0.5585  1.6126 -0.4230
11934TIP3    H257218   4.847   4.904  13.735  2.6315  0.2669 -0.4649
11935TIP3   OH257219   1.244   5.643  12.376 -0.5818  0.8561 -0.4546
11935TIP3    H157220   1.248   5.587  12.298  0.2285  0.5554 -0.2004
11935TIP3    H257221   1.282   5.590  12.446  0.4912  1.8489 -0.2794
11936TIP3   OH257222   3.421   5.866  15.129  0.2663  0.5596 -0.4518
11936TIP3    H157223   3.439   5.776  15.157 -0.2098  0.4401 -0.5262
11936TIP3    H257224   3.442   5.919  15.206 -0.8115  0.2498  0.0722
11937TIP3   OH257225   1.484   1.142   4.775 -0.2552  0.0146  0.0656
11937TIP3    H157226   1.507   1.196   4.700  1.4665 -1.1196 -0.2582
11937TIP3    H257227   1.398   1.105   4.753  0.8999 -1.4689 -2.0137
11938TIP3   OH257228   1.780   0.201   2.881 -0.1494 -0.2489  0.0363
11938TIP3    H157229   1.809   0.291   2.867 -0.1992  0.0706  1.7693
11938TIP3    H257230   1.734   0.204   2.965 -0.4447 -1.8273 -0.0483
11939TIP3   OH257231   4.739   2.699  13.066 -0.2076 -0.0232  0.3754
11939TIP3    H157232   4.654   2.688  13.022 -0.7876  3.1909  0.6108
11939TIP3    H257233   4.717   2.705  13.159  0.4186 -0.2495  0.5431
11940TIP3   OH257234   4.923   2.006  13.145  0.3274  0.4805 -1.0053
11940TIP3    H157235   4.983   1.938  13.113 -0.8299 -0.1083 -1.9518
11940TIP3    H257236   4.882   1.967  13.222  0.3674  0.4860 -0.9813
11941TIP3   OH257237   0.034   2.114  12.959  0.1832 -0.7260 -0.4792
11941TIP3    H157238  -0.052   2.083  12.933 -1.1195  3.3472 -1.3298
11941TIP3    H257239   0.040   2.093  13.053 -2.3033  0.1081 -0.0991
11942TIP3   OH257240   5.996   5.992   4.395  0.0380 -0.7131  0.1037
11942TIP3    H157241   6.001   5.941   4.314  1.1743 -2.5224  1.2786
11942TIP3    H257242   6.084   6.027   4.407 -0.7190  1.5471 -0.6629
11943TIP3   OH257243   1.587   2.061  14.961  0.9494  0.1053 -0.0649
11943TIP3    H157244   1.680   2.056  14.982  0.8662  0.6325  0.4541
11943TIP3    H257245   1.571   2.154  14.944  0.6508 -0.0713 -0.7851
11944TIP3   OH257246   6.417   2.609  14.378 -0.1654  0.1600 -0.0527
11944TIP3    H157247   6.405   2.683  14.319  0.9224 -0.3442 -0.9197
11944TIP3    H257248   6.361   2.629  14.453 -1.8265  0.6527 -1.3864
11945TIP3   OH257249   2.763   2.643   4.656 -0.3445  0.3187  0.4379
11945TIP3    H157250   2.682   2.659   4.607 -1.5340  0.3156  2.3411
11945TIP3    H257251   2.747   2.682   4.742  2.2118  1.5146  0.4024
11946TIP3   OH257252   5.099   4.451  11.813 -0.7140 -0.5295  0.1962
11946TIP3    H157253   5.011   4.451  11.776 -0.7705  0.2067  0.3122
11946TIP3    H257254   5.136   4.536  11.787  0.1297 -1.0266 -0.2521
11947TIP3   OH257255   2.865   5.867   3.781  0.4282  0.9538 -0.5910
11947TIP3    H157256   2.952   5.849   3.816 -0.1053 -1.2243 -0.3145
11947TIP3    H257257   2.879   5.884   3.688  0.9717 -1.1954 -0.9218
11948TIP3   OH257258   2.405   6.089   3.577 -0.4156  0.1374  0.3005
11948TIP3    H157259   2.352   6.113   3.653 -1.8650  0.5853 -0.8160
11948TIP3    H257260   2.470   6.159   3.570  0.2398 -0.3181  1.5786
11949TIP3   OH257261   0.566   2.464   2.279  0.1374 -0.3661  1.0116
11949TIP3    H157262   0.483   2.484   2.235  0.4924  1.1220  0.9980
11949TIP3    H257263   0.624   2.536   2.254  1.7188 -1.8545  0.3039
11950TIP3   OH257264   1.264   2.086  14.192  0.1326  0.2081  0.5551
11950TIP3    H157265   1.279   2.151  14.261  0.4376 -0.6942  1.3593
11950TIP3    H257266   1.320   2.113  14.120  0.7847  0.4411  1.1494
11951TIP3   OH257267   5.366   4.151  15.990  0.5534 -0.2342 -0.3068
11951TIP3    H157268   5.306   4.077  15.980  0.3979 -0.3516  1.3283
11951TIP3    H257269   5.405   4.138  16.077 -0.5928  2.4174  0.6350
11952TIP3   OH257270   5.708   6.785   3.932  0.5223 -0.1005 -0.1134
11952TIP3    H157271   5.663   6.866   3.957 -1.2361 -0.9039 -0.5346
11952TIP3    H257272   5.720   6.794   3.837  0.7213 -0.1498 -0.0924
11953TIP3   OH257273   6.534   2.195  13.483 -0.0840 -0.5454  0.3151
11953TIP3    H157274   6.466   2.130  13.500 -0.0263 -0.3675  1.3146
11953TIP3    H257275   6.561   2.180  13.393 -1.4839 -0.5801 -0.1092
11954TIP3   OH257276   1.365   6.340   3.350  0.0359 -0.1364 -0.1473
11954TIP3    H157277   1.424   6.320   3.423 -0.4269 -0.5417  0.1198
11954TIP3    H257278   1.356   6.257   3.303  2.8851  0.8282 -2.5628
11955TIP3   OH257279   0.581   2.385  14.960 -0.2121 -0.0717  0.1095
11955TIP3    H157280   0.488   2.374  14.981 -0.1819 -0.4479  0.0459
11955TIP3    H257281   0.601   2.474  14.989 -0.3787 -0.2904  0.9004
11956TIP3   OH257282   4.426   3.434   6.295  0.3282 -0.1792  0.2547
11956TIP3    H157283   4.431   3.429   6.199 -0.2968 -1.3933  0.2791
11956TIP3    H257284   4.336   3.460   6.313  0.7860  1.2681  0.4793
11957TIP3   OH257285   2.230   3.989  13.306 -0.2289  0.1721  0.2466
11957TIP3    H157286   2.158   4.044  13.333 -1.3036 -0.3660 -1.4063
11957TIP3    H257287   2.268   4.034  13.230  0.8541  0.2022  0.7970
11958TIP3   OH257288   4.450   4.356  13.757 -0.1600 -0.4369  0.1614
11958TIP3    H157289   4.359   4.357  13.784 -0.6404 -0.6256 -1.4280
11958TIP3    H257290   4.460   4.274  13.710  0.6856 -0.1550 -0.1613
11959TIP3   OH257291   5.407   2.410   0.199 -0.0257 -0.3398 -0.0340
11959TIP3    H157292   5.381   2.469   0.128 -2.1493 -1.7189 -0.4197
11959TIP3    H257293   5.345   2.338   0.195  1.9926 -2.1873  1.0138
11960TIP3   OH257294   0.310   3.869   3.461 -0.3347 -0.0211 -1.0739
11960TIP3    H157295   0.240   3.811   3.434  0.2463 -1.4834  0.5308
11960TIP3    H257296   0.389   3.830   3.423 -0.1103  0.4808 -1.1310
11961TIP3   OH257297   1.028   4.909   2.637  0.4731 -0.3735 -0.1590
11961TIP3    H157298   1.104   4.966   2.653  2.9343 -2.9710 -2.1830
11961TIP3    H257299   1.003   4.927   2.546 -1.7005  0.7858  0.6174
11962TIP3   OH257300   4.713   1.895  14.429 -0.1265 -0.1390 -0.2008
11962TIP3    H157301   4.771   1.962  14.464 -0.6967  0.1973  0.0921
11962TIP3    H257302   4.758   1.812  14.448 -0.2933  0.0522  1.0695
11963TIP3   OH257303   2.891   0.543  13.452  0.0164 -0.0343 -0.0946
11963TIP3    H157304   2.914   0.477  13.516  0.7851  0.1395 -0.1889
11963TIP3    H257305   2.800   0.567  13.473  0.2967  0.0885  0.9765
11964TIP3   OH257306   5.404   5.023  15.298  0.0137  0.3818  0.4442
11964TIP3    H157307   5.314   5.022  15.266  0.4636  3.2873 -0.9954
11964TIP3    H257308   5.396   5.031  15.393 -1.2164 -0.4169  0.4184
11965TIP3   OH257309   0.278   5.166  11.357  0.7735 -0.4281  0.5932
11965TIP3    H157310   0.265   5.201  11.269  3.6388 -0.9337 -0.0675
11965TIP3    H257311   0.340   5.225  11.398  0.4854 -0.9529  1.8055
11966TIP3   OH257312   1.661   4.516  10.805 -0.2586 -0.7790  0.6128
11966TIP3    H157313   1.566   4.528  10.799 -0.0068  0.3633 -1.6047
11966TIP3    H257314   1.672   4.427  10.840 -2.1592 -2.2981 -2.4548
11967TIP3   OH257315   3.523   0.315   3.990 -0.2271  0.2268 -0.3050
11967TIP3    H157316   3.463   0.328   4.063 -1.6436  0.2771 -1.4635
11967TIP3    H257317   3.594   0.378   4.006 -1.4771  1.5701  0.0072
11968TIP3   OH257318   5.847   5.197  14.110 -0.3009 -0.3117  0.1497
11968TIP3    H157319   5.777   5.247  14.153 -0.1432 -0.2334  0.3116
11968TIP3    H257320   5.871   5.251  14.035  0.5207  0.3052  0.8513
11969TIP3   OH257321   2.901   3.267  13.389  0.1033  0.0285  0.7980
11969TIP3    H157322   2.843   3.239  13.460  0.1555 -0.3555  0.6900
11969TIP3    H257323   2.844   3.267  13.312  0.5199 -1.4425  0.4849
11970TIP3   OH257324   5.187   6.124   3.130  0.5285 -0.2539 -0.0145
11970TIP3    H157325   5.267   6.072   3.131  1.8674  1.7565  1.5219
11970TIP3    H257326   5.120   6.067   3.168  1.4564 -1.5744 -0.3287
11971TIP3   OH257327   0.137   1.229  16.766 -0.1372 -0.1281  0.1301
11971TIP3    H157328   0.230   1.228  16.747 -0.7773 -0.3861 -3.4039
11971TIP3    H257329   0.103   1.304  16.716 -1.8224 -0.0686  1.3042
11972TIP3   OH257330   6.691   5.009  16.592 -0.0488 -0.0856 -0.2742
11972TIP3    H157331   6.725   4.920  16.600  0.1052  0.1156  1.5833
11972TIP3    H257332   6.732   5.056  16.665 -2.3644  0.7844  0.4902
11973TIP3   OH257333   1.266   4.244   4.030 -0.2435 -0.0685  0.0076
11973TIP3    H157334   1.349   4.274   3.992 -0.5058 -1.0518 -1.3554
11973TIP3    H257335   1.286   4.159   4.069 -0.9845 -1.0926 -1.7998
11974TIP3   OH257336   5.729   2.561   5.259  0.0434  0.0795  0.0686
11974TIP3    H157337   5.823   2.577   5.260 -0.1565  1.3533 -0.1672
11974TIP3    H257338   5.720   2.467   5.241  1.2745 -0.2368  1.0934
11975TIP3   OH257339   4.351   3.179  11.964  0.4708  0.5448 -0.4333
11975TIP3    H157340   4.340   3.105  11.904 -1.6041  0.8893 -0.5375
11975TIP3    H257341   4.335   3.141  12.051 -1.4286  0.9964 -0.5566
11976TIP3   OH257342   0.227   0.678  11.012 -0.2936 -0.4959  0.2141
11976TIP3    H157343   0.139   0.684  10.976 -0.6044 -1.6625  0.7564
11976TIP3    H257344   0.270   0.611  10.958  0.2138 -0.0516  0.0582
11977TIP3   OH257345   3.213   2.082  14.941 -0.1869 -0.1514  0.1565
11977TIP3    H157346   3.303   2.050  14.933 -0.3431 -0.4017 -0.5904
11977TIP3    H257347   3.182   2.046  15.024  0.1539 -0.6693  0.0564
11978TIP3   OH257348   4.319   6.149   6.127  0.4919 -0.1354 -0.1658
11978TIP3    H157349   4.346   6.237   6.102  1.4093  0.4896  2.7717
11978TIP3    H257350   4.386   6.092   6.090  0.0239  0.3988 -1.8846
11979TIP3   OH257351   5.705   3.417   4.939  0.5091  0.0842 -0.6015
11979TIP3    H157352   5.633   3.471   4.904 -0.8570 -2.5669 -1.9928
11979TIP3    H257353   5.709   3.440   5.031 -0.1899  2.4040 -1.1058
11980TIP3   OH257354   4.161   0.426   4.335 -0.0804  0.5022  0.1166
11980TIP3    H157355   4.090   0.462   4.282  1.1186  1.1940 -1.0508
11980TIP3    H257356   4.177   0.492   4.402 -1.6282 -0.3922  1.3952
11981TIP3   OH257357   0.672   1.761  16.844 -0.2746  0.4500  0.1899
11981TIP3    H157358   0.625   1.783  16.924 -0.1662 -2.1406  1.0422
11981TIP3    H257359   0.605   1.728  16.784  0.2297 -2.0390  0.9422
11982TIP3   OH257360   5.632   6.058  16.480  0.4593  0.0762  0.3640
11982TIP3    H157361   5.685   6.097  16.549 -1.0733  1.4869  0.7837
11982TIP3    H257362   5.603   5.974  16.516 -0.4870  0.8868  1.5483
11983TIP3   OH257363   0.168   4.100  13.422 -0.3001  0.4252 -0.2369
11983TIP3    H157364   0.081   4.099  13.381 -0.3058  0.6518 -0.2293
11983TIP3    H257365   0.218   4.163  13.371 -0.4062  0.9473  0.2980
11984TIP3   OH257366   0.518   6.312  12.743 -0.6010 -0.3228 -0.6178
11984TIP3    H157367   0.482   6.257  12.673 -0.1406 -0.2612 -0.9081
11984TIP3    H257368   0.538   6.396  12.699  0.7076 -0.6473 -0.6647
11985TIP3   OH257369   3.298   5.587   0.250  1.0279  0.6563  0.0108
11985TIP3    H157370   3.294   5.635   0.168  1.9867  1.5291  0.4618
11985TIP3    H257371   3.373   5.624   0.296 -0.1903  0.9818  1.7799
11986TIP3   OH257372   2.117   4.506  13.086  0.0670 -0.3871  0.2151
11986TIP3    H157373   2.210   4.489  13.103  0.6181  0.7537 -1.5548
11986TIP3    H257374   2.093   4.573  13.151  1.4319  1.9095 -1.5661
11987TIP3   OH257375   1.766   3.709  10.305  0.2916  0.3501 -0.2257
11987TIP3    H157376   1.850   3.748  10.329  0.4203 -0.0257 -0.0621
11987TIP3    H257377   1.702   3.778  10.322  0.0071 -0.7422  3.9044
11988TIP3   OH257378   0.143   3.277   5.673  0.0597  0.2989 -0.4656
11988TIP3    H157379   0.214   3.338   5.652  1.2888 -0.9432  0.0565
11988TIP3    H257380   0.180   3.219   5.739 -1.7476  0.2089  0.4934
11989TIP3   OH257381   1.101   4.591   2.678  0.3056  0.0665 -0.1631
11989TIP3    H157382   1.054   4.675   2.677  0.5060  0.1843  0.2120
11989TIP3    H257383   1.107   4.568   2.770 -1.4515 -1.3259 -0.3612
11990TIP3   OH257384   1.400   1.061  16.972 -0.1295 -0.2450 -0.8434
11990TIP3    H157385   1.456   0.987  16.994 -1.1323 -0.5816  0.6487
11990TIP3    H257386   1.384   1.105  17.055 -2.4033 -0.4037 -1.1473
11991TIP3   OH257387   6.569   0.282  13.052  0.0222 -0.1065  0.7202
11991TIP3    H157388   6.499   0.301  13.114  0.7242  0.3992  1.3777
11991TIP3    H257389   6.583   0.365  13.005  2.0366  0.6406  2.5168
11992TIP3   OH257390   5.567   3.091   0.586 -0.2809  0.2100  0.0592
11992TIP3    H157391   5.640   3.140   0.547 -1.4981  0.7120 -1.6226
11992TIP3    H257392   5.532   3.038   0.514 -0.6974 -1.0891  1.2054
11993TIP3   OH257393   6.588   1.373  14.501 -0.1343  0.1499  0.2569
11993TIP3    H157394   6.616   1.463  14.485 -1.2591  0.5370  0.4078
11993TIP3    H257395   6.503   1.366  14.457  1.4046 -1.8083 -2.5987
11994TIP3   OH257396   1.266   6.210  12.998 -0.0919 -0.0852  0.1192
11994TIP3    H157397   1.258   6.303  13.016  0.1924 -0.0804  0.2199
11994TIP3    H257398   1.286   6.171  13.083  0.9215 -0.1010 -0.1265
11995TIP3   OH257399   0.743   3.732   3.066  0.1519 -0.3013  0.0890
11995TIP3    H157400   0.819   3.774   3.026  0.1400  0.1743  0.5521
11995TIP3    H257401   0.674   3.742   3.001 -0.3015  1.8989  0.8289
11996TIP3   OH257402   3.554   2.602  14.860  0.3907  0.5636  1.2023
11996TIP3    H157403   3.627   2.656  14.888  0.9802 -0.2157  1.1895
11996TIP3    H257404   3.585   2.512  14.872  0.5734  0.2117 -1.7457
11997TIP3   OH257405   4.037   6.470  16.367  0.5549  0.3205  0.4831
11997TIP3    H157406   4.094   6.479  16.443 -0.4068  0.3388  1.2053
11997TIP3    H257407   4.071   6.534  16.304  3.3593 -1.9527 -0.3738
11998TIP3   OH257408   3.543   3.563  15.261  0.6728 -0.2566  0.1795
11998TIP3    H157409   3.452   3.533  15.252 -0.0121  1.8683 -0.3134
11998TIP3    H257410   3.554   3.578  15.355  0.6466 -0.9095  0.2885
11999TIP3   OH257411   1.976   2.773   6.408 -0.1954  0.0001 -0.5057
11999TIP3    H157412   1.921   2.845   6.377  0.3296  1.0500  0.9645
11999TIP3    H257413   2.046   2.767   6.343 -0.9141 -0.0020 -1.2902
12000TIP3   OH257414   1.573   5.461  16.874  0.0672  0.4283 -0.6680
12000TIP3    H157415   1.658   5.428  16.905 -0.9471 -1.0676  0.6460
12000TIP3    H257416   1.587   5.555  16.862  1.1993  0.6908  2.1479
12001TIP3   OH257417   3.258   3.660   3.775  0.8039 -0.1494  0.2996
12001TIP3    H157418   3.230   3.620   3.692  0.3572  1.7773 -0.4954
12001TIP3    H257419   3.295   3.744   3.750 -0.3827  0.9570  2.1730
12002TIP3   OH257420   3.758   5.697  14.773 -0.1368 -0.3223 -0.2346
12002TIP3    H157421   3.801   5.669  14.692 -1.7395  0.0837 -1.2450
12002TIP3    H257422   3.693   5.629  14.790  0.8844 -0.9406  1.2890
12003TIP3   OH257423   4.079   3.697  14.588 -0.2902  0.4718  0.5508
12003TIP3    H157424   4.072   3.761  14.659  2.1918 -0.0915  1.3616
12003TIP3    H257425   4.172   3.675  14.585 -0.8102 -1.6876 -0.9674
12004TIP3   OH257426   1.120   6.529  17.198 -0.0001 -0.2988 -0.3871
12004TIP3    H157427   1.042   6.583  17.194 -0.2295 -0.6690 -1.0575
12004TIP3    H257428   1.159   6.548  17.283  0.1212  1.1912 -0.7591
12005TIP3   OH257429   6.706   2.858   4.075  0.1168 -0.0585  0.4062
12005TIP3    H157430   6.623   2.848   4.029 -0.2178  0.3848  0.8973
12005TIP3    H257431   6.744   2.771   4.076 -0.5254 -0.3449  0.5059
12006TIP3   OH257432   5.808   3.636   1.873  0.2661 -0.1247 -0.0497
12006TIP3    H157433   5.890   3.669   1.910 -0.5412  0.1368  1.5413
12006TIP3    H257434   5.780   3.567   1.933 -1.1399  0.3983 -0.0849
12007TIP3   OH257435   5.223   0.784   2.416  0.1094 -0.0743 -0.3807
12007TIP3    H157436   5.233   0.715   2.351 -1.5085  0.4552 -1.2278
12007TIP3    H257437   5.129   0.787   2.433  0.3817  0.6527  1.0430
12008TIP3   OH257438   5.265   4.983   0.905 -0.2318  0.0641 -0.4456
12008TIP3    H157439   5.246   4.991   0.999  0.3571  0.5116 -0.3617
12008TIP3    H257440   5.203   5.042   0.863 -0.3808 -0.0080 -0.3303
12009TIP3   OH257441   3.132   1.112   6.365 -0.0431  0.3886  0.0634
12009TIP3    H157442   3.192   1.140   6.433 -0.4759 -0.6286  0.8648
12009TIP3    H257443   3.158   1.023   6.344  0.0053  0.6458 -1.0149
12010TIP3   OH257444   5.223   6.300  13.420  0.5603 -0.7511 -0.3256
12010TIP3    H157445   5.162   6.231  13.446  0.6507 -1.1036 -1.0289
12010TIP3    H257446   5.245   6.345  13.502  1.6052 -2.4535  0.3489
12011TIP3   OH257447   2.838   4.444   3.490 -0.0232 -0.2304  0.1679
12011TIP3    H157448   2.829   4.368   3.431 -1.2222  0.3364 -0.4051
12011TIP3    H257449   2.764   4.500   3.467  0.5795  0.8876  0.9308
12012TIP3   OH257450   1.939   5.705  14.446  0.2142  0.1239 -0.0120
12012TIP3    H157451   1.854   5.682  14.408  0.5325  0.9923 -1.2708
12012TIP3    H257452   1.987   5.622  14.450 -0.7448 -0.4105  0.9028
12013TIP3   OH257453   3.732   5.097  14.693  0.8092 -0.0301  0.5633
12013TIP3    H157454   3.758   5.008  14.718  1.9564 -0.3428 -1.6158
12013TIP3    H257455   3.803   5.153  14.726  1.3406 -0.2109 -0.2784
12014TIP3   OH257456   4.503   2.937  12.650  0.9354 -0.0362  0.5323
12014TIP3    H157457   4.556   2.972  12.721  0.8772  1.2680 -0.0532
12014TIP3    H257458   4.426   2.900  12.693  0.8563  0.8191  1.1421
12015TIP3   OH257459   6.751   4.759  14.373 -0.1393  0.2557 -0.4883
12015TIP3    H157460   6.835   4.732  14.411 -1.8566 -1.0446  2.5015
12015TIP3    H257461   6.707   4.677  14.352 -1.6677  0.8830  0.2287
12016TIP3   OH257462   6.434   3.807  13.699  0.1475  0.7553  0.3006
12016TIP3    H157463   6.392   3.735  13.651 -0.3183  0.6176  0.9132
12016TIP3    H257464   6.501   3.764  13.752 -2.1726  0.3756  3.0202
12017TIP3   OH257465   3.154   1.754   3.276 -0.0717  0.3808 -0.2524
12017TIP3    H157466   3.215   1.681   3.271 -0.8084 -0.3009  0.5950
12017TIP3    H257467   3.149   1.787   3.186  0.9726 -0.0124 -0.4634
12018TIP3   OH257468   1.953   6.349   5.348  0.0992 -0.6448  0.3527
12018TIP3    H157469   2.002   6.327   5.269  0.7390 -0.4050  0.6765
12018TIP3    H257470   1.866   6.311   5.334 -0.6306  1.6864 -1.6057
12019TIP3   OH257471   6.721   3.050  15.617 -0.1985 -0.1365 -0.4507
12019TIP3    H157472   6.705   3.132  15.571  2.4449  3.2932  4.3137
12019TIP3    H257473   6.640   3.033  15.666 -0.1828  0.4765 -0.2166
12020TIP3   OH257474   1.878   4.804  13.079 -0.2171  0.1147 -0.2121
12020TIP3    H157475   1.818   4.736  13.050 -1.4591  0.9676  0.3225
12020TIP3    H257476   1.950   4.802  13.015 -1.3952 -0.1079 -1.5536
12021TIP3   OH257477   2.166   3.918   0.335 -0.7182  0.1464  0.5871
12021TIP3    H157478   2.116   3.973   0.395 -2.2869 -1.1287  0.4836
12021TIP3    H257479   2.203   3.849   0.390 -0.3816  0.2026  0.4301
12022TIP3   OH257480   3.470   5.484   1.878  0.1442  0.2124  0.2742
12022TIP3    H157481   3.558   5.469   1.911  0.1349 -0.8062 -0.1379
12022TIP3    H257482   3.480   5.482   1.782 -0.3320  0.0310  0.2284
12023TIP3   OH257483   2.390   6.155   2.189 -0.2527  0.1922  0.0468
12023TIP3    H157484   2.472   6.175   2.235  0.4230 -2.5029  0.0956
12023TIP3    H257485   2.339   6.236   2.195  1.9174  1.5312  1.0554
12024TIP3   OH257486   2.542   4.691   3.144 -0.7517  0.0713  0.0127
12024TIP3    H157487   2.461   4.694   3.194 -1.1978  2.5051 -0.7818
12024TIP3    H257488   2.603   4.643   3.200 -2.1227  0.0725  1.5414
12025TIP3   OH257489   4.762   3.270   6.006 -0.0250 -0.0207  0.2099
12025TIP3    H157490   4.853   3.292   6.027  0.0118 -1.7174  2.0052
12025TIP3    H257491   4.766   3.234   5.918  1.2922 -1.3937  0.8008
12026TIP3   OH257492   1.469   1.434  12.800  0.0304  0.0348  0.3814
12026TIP3    H157493   1.375   1.429  12.818  0.1828  3.3911  2.5007
12026TIP3    H257494   1.477   1.498  12.730  0.7074 -0.8849 -0.4002
12027TIP3   OH257495   3.977   3.301   2.601  0.1324 -0.6422 -0.2477
12027TIP3    H157496   4.072   3.310   2.607  0.1977 -2.0750  1.7946
12027TIP3    H257497   3.954   3.249   2.678 -2.3312 -0.1727 -0.6266
12028TIP3   OH257498   2.644   2.922  15.402 -0.5829 -0.5230  0.3952
12028TIP3    H157499   2.560   2.876  15.391 -0.8378  0.3127 -1.2402
12028TIP3    H257500   2.699   2.888  15.332 -0.3472  0.7111 -0.0264
12029TIP3   OH257501   3.988   0.056  11.147  0.2113 -0.0752  0.4759
12029TIP3    H157502   3.958   0.047  11.237  2.0070 -0.4222  1.0431
12029TIP3    H257503   3.922   0.112  11.106 -1.4444 -1.1775  1.5823
12030TIP3   OH257504   2.763   0.815   4.378  0.1669 -0.1399 -0.1297
12030TIP3    H157505   2.675   0.777   4.380  0.6878 -1.3265  0.8895
12030TIP3    H257506   2.751   0.904   4.410 -0.8280  0.0558 -1.0228
12031TIP3   OH257507   5.143   3.771  15.302  0.2024  0.0540  0.4860
12031TIP3    H157508   5.179   3.774  15.390  0.7322 -0.2016  0.2756
12031TIP3    H257509   5.216   3.745  15.246 -0.0572  0.4895 -0.0682
12032TIP3   OH257510   0.193   2.748  16.293  0.2549 -0.2173  0.0723
12032TIP3    H157511   0.182   2.687  16.220  0.2758  1.7210 -1.6121
12032TIP3    H257512   0.133   2.820  16.273 -0.0070  0.1578  2.1731
12033TIP3   OH257513   2.134   5.151   0.740  0.5194  0.4271  0.3166
12033TIP3    H157514   2.063   5.089   0.758  2.1230 -1.5711  0.0238
12033TIP3    H257515   2.093   5.221   0.690 -1.7635  0.6445  2.3868
12034TIP3   OH257516   6.777   5.766  15.831  0.6575 -0.0906  0.2349
12034TIP3    H157517   6.800   5.798  15.918  1.7785  0.1326 -0.1357
12034TIP3    H257518   6.827   5.821  15.771  0.3347 -0.6183 -0.5256
12035TIP3   OH257519   4.657   0.682  17.134  0.0403  0.5081  0.0600
12035TIP3    H157520   4.570   0.708  17.164  0.3521  1.7770 -0.1052
12035TIP3    H257521   4.671   0.595  17.172 -1.2814  0.3182  0.1097
12036TIP3   OH257522   6.151   5.999  16.288  0.6603 -0.1920  0.0072
12036TIP3    H157523   6.219   6.065  16.277  0.5290  0.3026  1.9250
12036TIP3    H257524   6.139   5.993  16.383 -2.0474 -0.2001 -0.3100
12037TIP3   OH257525   5.580   4.637  10.913 -0.4630  0.2838 -0.4522
12037TIP3    H157526   5.519   4.564  10.907 -0.9906  0.7194 -0.4600
12037TIP3    H257527   5.660   4.599  10.950 -1.1806 -0.0348  0.8064
12038TIP3   OH257528   3.405   6.361   4.298 -0.4474 -0.1538  0.4620
12038TIP3    H157529   3.444   6.361   4.210 -2.4758  1.7394 -0.4822
12038TIP3    H257530   3.442   6.438   4.340  0.4887 -1.0380  1.2681
12039TIP3   OH257531   1.741   5.736   5.911  0.3212 -0.0751 -0.1416
12039TIP3    H157532   1.827   5.779   5.912 -0.4418  1.4636  0.2905
12039TIP3    H257533   1.690   5.785   5.847  0.5579 -2.6520 -2.3969
12040TIP3   OH257534   3.530   1.635   0.460  0.1290  0.3166  0.2016
12040TIP3    H157535   3.555   1.644   0.552 -0.4870  0.7795  0.3293
12040TIP3    H257536   3.447   1.587   0.462  0.3204 -0.0269 -0.1335
12041TIP3   OH257537   4.289   2.902   2.064 -0.4324 -0.2938 -0.3139
12041TIP3    H157538   4.292   2.810   2.090  3.7929 -0.0585  0.4454
12041TIP3    H257539   4.321   2.902   1.973  0.0472  0.4754 -0.1510
12042TIP3   OH257540   1.527   5.957  15.990 -0.3106 -0.4804 -0.4674
12042TIP3    H157541   1.493   5.955  16.080  1.6701 -1.5662  0.2967
12042TIP3    H257542   1.491   5.878  15.949  1.5069 -1.8412  0.4609
12043TIP3   OH257543   0.764   5.303  11.819 -0.4999 -0.3960 -0.7074
12043TIP3    H157544   0.755   5.399  11.817 -0.9751 -0.2809  2.7579
12043TIP3    H257545   0.673   5.271  11.820 -0.3419 -0.8708 -1.4522
12044TIP3   OH257546   1.169   2.081   1.497 -0.0514  0.2679 -0.0114
12044TIP3    H157547   1.115   2.041   1.429 -0.5881 -0.2338  0.6943
12044TIP3    H257548   1.253   2.036   1.491 -0.2667 -0.1342 -0.0043
12045TIP3   OH257549   6.026   3.549   5.214  0.2538  0.3883 -0.1703
12045TIP3    H157550   5.978   3.479   5.169 -1.1167  1.3144 -0.1808
12045TIP3    H257551   6.007   3.535   5.307  0.2950  0.5144 -0.1435
12046TIP3   OH257552   4.947   3.736   4.784  0.1470 -0.8535  0.5553
12046TIP3    H157553   4.900   3.673   4.729  0.3978 -1.8349  1.4445
12046TIP3    H257554   5.040   3.721   4.763  0.1766 -0.3646  0.3337
12047TIP3   OH257555   5.604   0.737   1.625 -0.3094  0.2204  0.3056
12047TIP3    H157556   5.658   0.809   1.658 -2.0806  1.9018 -0.3768
12047TIP3    H257557   5.578   0.765   1.537 -1.2884 -1.1140  0.1657
12048TIP3   OH257558   1.719   5.477   3.043 -0.3206 -0.0977  0.0645
12048TIP3    H157559   1.732   5.388   3.012 -1.1161 -0.9881  2.1662
12048TIP3    H257560   1.633   5.502   3.010 -0.4434 -0.4170  0.1454
12049TIP3   OH257561   5.219   1.956  15.126  0.6462  0.0122  0.0596
12049TIP3    H157562   5.268   1.874  15.118  0.7560 -0.1704  2.3276
12049TIP3    H257563   5.192   1.976  15.036  1.0815 -2.2055 -0.6060
12050TIP3   OH257564   3.832   0.965   0.424  0.4024  0.1763 -0.9889
12050TIP3    H157565   3.822   0.935   0.334  1.8000  2.0777 -1.8130
12050TIP3    H257566   3.755   1.018   0.440 -0.5023 -1.2377 -0.6030
12051TIP3   OH257567   1.382   1.373  13.567 -0.1761 -0.4107  0.0244
12051TIP3    H157568   1.361   1.393  13.658  3.2477  0.6929  0.6634
12051TIP3    H257569   1.436   1.446  13.538 -1.7651 -0.4005 -3.1687
12052TIP3   OH257570   0.289   6.312   0.909 -0.1452 -0.3846  0.5830
12052TIP3    H157571   0.370   6.314   0.858  0.5565 -2.1343  1.5873
12052TIP3    H257572   0.254   6.224   0.894 -0.3450 -0.6420  2.4279
12053TIP3   OH257573   3.429   4.289   1.548  0.3370 -0.2428  0.0456
12053TIP3    H157574   3.473   4.240   1.479 -2.0959 -1.0873 -0.9774
12053TIP3    H257575   3.391   4.365   1.504  2.1460  1.3993  1.2148
12054TIP3   OH257576   2.562   5.382  15.334 -0.0729 -0.4405  0.3127
12054TIP3    H157577   2.550   5.296  15.293 -0.4932 -0.3097  0.1552
12054TIP3    H257578   2.530   5.371  15.424  0.2464 -0.5551  0.4127
12055TIP3   OH257579   3.235   3.238   5.217  0.1880 -0.0464 -0.1818
12055TIP3    H157580   3.231   3.213   5.310  2.2551 -0.2220 -0.1182
12055TIP3    H257581   3.247   3.155   5.170 -0.0297  0.1231 -0.5382
12056TIP3   OH257582   0.444   6.328   5.048 -0.6981  0.2447 -0.3802
12056TIP3    H157583   0.524   6.379   5.062 -0.4356 -0.2421 -0.1037
12056TIP3    H257584   0.435   6.275   5.127  0.7995 -2.5347 -1.9828
12057TIP3   OH257585   3.906   0.638  15.335 -1.0046 -0.0937 -0.1731
12057TIP3    H157586   3.866   0.583  15.267 -0.4209  0.2197 -0.7756
12057TIP3    H257587   3.988   0.668  15.296 -1.2550  1.0963  0.2067
12058TIP3   OH257588   6.455   3.173   1.719 -0.2982 -0.0734  0.2183
12058TIP3    H157589   6.419   3.242   1.662 -0.6164  0.2507  0.8045
12058TIP3    H257590   6.427   3.198   1.807 -0.0243 -0.7112  0.4886
12059TIP3   OH257591   6.330   6.151   5.672 -0.7871 -0.5840 -0.1818
12059TIP3    H157592   6.391   6.087   5.707 -0.4423  0.0164  0.3282
12059TIP3    H257593   6.244   6.109   5.678 -0.6429 -0.7593  0.7232
12060TIP3   OH257594   2.679   2.162   5.673 -0.0557 -0.6873 -0.0633
12060TIP3    H157595   2.722   2.247   5.670  0.5423 -1.0120 -0.8292
12060TIP3    H257596   2.720   2.117   5.747  0.2500 -0.6384 -0.2017
12061TIP3   OH257597   6.109   4.356  11.056 -0.2285 -0.1665  0.4880
12061TIP3    H157598   6.081   4.371  10.966  0.0854 -0.6394  0.3101
12061TIP3    H257599   6.034   4.381  11.109 -1.3938 -2.4600 -0.0191
12062TIP3   OH257600   2.453   5.752  12.817  0.1763  0.2158 -0.0620
12062TIP3    H157601   2.370   5.791  12.846  1.5715  2.6573  0.7930
12062TIP3    H257602   2.427   5.670  12.776 -2.8471  1.6193 -1.1828
12063TIP3   OH257603   1.592   4.170   2.828  0.3096  0.1421 -1.0362
12063TIP3    H157604   1.649   4.096   2.806  1.5755 -0.6344  4.1241
12063TIP3    H257605   1.653   4.240   2.852 -0.9039  0.9927 -0.3933
12064TIP3   OH257606   5.991   0.380   2.726  0.0276  0.1530  0.1913
12064TIP3    H157607   6.079   0.362   2.693 -0.1669  0.6129 -0.5977
12064TIP3    H257608   5.983   0.476   2.722  0.6012  0.3775  3.1516
12065TIP3   OH257609   2.141   6.697  14.733  0.0218 -0.0636 -0.0528
12065TIP3    H157610   2.188   6.698  14.817  0.9421 -0.7485 -0.5630
12065TIP3    H257611   2.051   6.717  14.757  0.1417 -0.9625  1.1933
12066TIP3   OH257612   5.362   6.453   5.959  0.3862  0.0400  0.2390
12066TIP3    H157613   5.315   6.382   6.001  0.0808  1.1065  1.7286
12066TIP3    H257614   5.434   6.473   6.019  1.5253 -0.1931 -1.0254
12067TIP3   OH257615   5.878   3.774   1.350  0.0107 -0.2782 -0.0001
12067TIP3    H157616   5.887   3.717   1.426 -1.7514  0.7119  1.0112
12067TIP3    H257617   5.783   3.785   1.340  0.2762  1.3983 -0.9476
12068TIP3   OH257618   3.481   2.414  10.408  0.0065  0.2542 -0.3939
12068TIP3    H157619   3.526   2.437  10.489 -1.4224  0.3476  0.4053
12068TIP3    H257620   3.548   2.416  10.340  1.0584  0.9478  0.6684
12069TIP3   OH257621   5.013   0.535  13.834 -0.2016  0.0567  0.0308
12069TIP3    H157622   5.028   0.629  13.822  1.4315  0.0441  1.7829
12069TIP3    H257623   5.051   0.495  13.755 -2.6832  0.9540 -1.6980
12070TIP3   OH257624   6.765   2.989  16.559  0.4230 -0.4811 -0.5882
12070TIP3    H157625   6.749   3.032  16.643 -0.0291  0.9003 -1.3642
12070TIP3    H257626   6.678   2.963  16.528  0.4210  0.4374 -1.3666
12071TIP3   OH257627   0.590   5.074  12.645  0.5099  0.0534  0.1408
12071TIP3    H157628   0.639   5.129  12.584  0.5205 -0.2020 -0.0786
12071TIP3    H257629   0.534   5.020  12.589  1.1783 -0.8190  0.3177
12072TIP3   OH257630   5.137   4.324   4.763 -0.2661  0.2452 -0.5647
12072TIP3    H157631   5.070   4.392   4.755 -1.0589 -0.3551  0.8922
12072TIP3    H257632   5.219   4.371   4.753 -0.8799  1.0771 -1.8305
12073TIP3   OH257633   5.718   2.786  12.670 -0.0043  0.0213 -0.1240
12073TIP3    H157634   5.646   2.722  12.671 -1.3691  1.4919 -1.1701
12073TIP3    H257635   5.722   2.819  12.759 -1.1700  0.5022 -0.2437
12074TIP3   OH257636   5.499   4.668  13.458  0.0059  0.1933 -0.3447
12074TIP3    H157637   5.472   4.576  13.467  0.8868 -0.1913 -1.4206
12074TIP3    H257638   5.438   4.705  13.395  1.5660 -0.5179 -2.3239
12075TIP3   OH257639   4.071   1.246   4.628 -0.7962 -0.1128 -0.5095
12075TIP3    H157640   4.163   1.223   4.619 -0.5724  0.2811  0.6784
12075TIP3    H257641   4.031   1.169   4.669 -0.7244  0.2633  0.2649
12076TIP3   OH257642   0.460   6.450   2.659  0.1972  0.0900 -0.1682
12076TIP3    H157643   0.427   6.539   2.644  1.9344  0.7690 -0.0163
12076TIP3    H257644   0.457   6.409   2.573 -3.9623 -0.9103  0.3486
12077TIP3   OH257645   1.320   6.205  15.090 -0.3259 -0.3102 -0.3624
12077TIP3    H157646   1.239   6.253  15.072 -0.1687  0.1235  0.1048
12077TIP3    H257647   1.295   6.136  15.151 -1.2279 -2.8768 -3.4646
12078TIP3   OH257648   4.641   4.521   1.339 -0.1758 -0.4688  0.8813
12078TIP3    H157649   4.549   4.548   1.337 -0.5055 -1.6695 -1.0690
12078TIP3    H257650   4.639   4.426   1.340  1.0517 -0.5287 -0.5436
12079TIP3   OH257651   5.520   1.417   5.610  0.6534  0.6232  0.1230
12079TIP3    H157652   5.529   1.437   5.703 -0.8319  0.5467  0.3000
12079TIP3    H257653   5.439   1.462   5.584  0.3726 -0.4186 -0.8195
12080TIP3   OH257654   0.883   2.848  13.189 -0.4924 -0.2726  0.1989
12080TIP3    H157655   0.885   2.897  13.107 -0.7492 -1.3758 -0.4907
12080TIP3    H257656   0.919   2.907  13.254 -1.1807  0.9677 -0.5275
12081TIP3   OH257657   0.921   3.229  14.885  0.4806 -0.2246 -0.3401
12081TIP3    H157658   0.877   3.237  14.969  0.2172 -1.4072 -0.3563
12081TIP3    H257659   0.993   3.292  14.889  0.4570 -0.2622  0.7615
12082TIP3   OH257660   1.506   0.724  11.694  0.5834  0.5791  0.0241
12082TIP3    H157661   1.462   0.658  11.748  0.6899  0.0381 -0.5344
12082TIP3    H257662   1.597   0.720  11.721  0.6188  0.3813 -0.1244
12083TIP3   OH257663   6.732   1.856  14.125  0.2264 -0.0536 -0.4176
12083TIP3    H157664   6.746   1.919  14.196 -1.4369  0.0421 -0.1540
12083TIP3    H257665   6.753   1.905  14.045  0.1751  0.4377 -0.1343
12084TIP3   OH257666   5.494   4.702   5.747 -0.5155 -0.1132  0.3587
12084TIP3    H157667   5.480   4.690   5.841  1.9811 -3.0015  0.4562
12084TIP3    H257668   5.589   4.702   5.737 -0.7516 -0.2475 -2.2297
12085TIP3   OH257669   0.084   2.887   3.006  0.7754  0.2300  0.8671
12085TIP3    H157670   0.110   2.938   3.083 -3.6103  0.8308  2.0454
12085TIP3    H257671   0.088   2.950   2.934  1.8571  0.4704  1.1242
12086TIP3   OH257672   0.452   6.299   4.343 -0.3047  0.2526  0.5290
12086TIP3    H157673   0.359   6.276   4.342  0.0011 -1.0348  0.6860
12086TIP3    H257674   0.454   6.386   4.384 -1.4597  0.4115  0.2762
12087TIP3   OH257675   3.854   5.723  16.176 -0.2969  0.4575 -0.2370
12087TIP3    H157676   3.857   5.818  16.173  0.6834  0.6095  2.8497
12087TIP3    H257677   3.813   5.704  16.261 -0.1988 -1.8573 -0.6820
12088TIP3   OH257678   0.837   5.252   4.497  0.1303 -0.1472 -0.6433
12088TIP3    H157679   0.751   5.255   4.537  1.0892  0.1245  1.4477
12088TIP3    H257680   0.876   5.338   4.514  0.9126 -0.3438 -1.3600
12089TIP3   OH257681   5.172   1.097   3.534 -0.1849 -0.5380 -0.0728
12089TIP3    H157682   5.187   1.005   3.512  2.0196 -0.4652  0.9307
12089TIP3    H257683   5.084   1.100   3.570  0.0714 -2.4203  0.7361
12090TIP3   OH257684   2.718   4.219   0.943  0.4689  0.0691 -0.1355
12090TIP3    H157685   2.742   4.304   0.981  0.5266 -0.2779  0.5981
12090TIP3    H257686   2.783   4.158   0.978  0.0133 -0.4085 -0.1171
12091TIP3   OH257687   0.216   5.754   2.391 -0.0609  0.1495 -0.2624
12091TIP3    H157688   0.287   5.758   2.326 -0.7174 -0.5366 -1.0468
12091TIP3    H257689   0.201   5.845   2.415  0.1499  0.4303 -1.1408
12092TIP3   OH257690   4.597   6.677   1.863 -0.1566  0.4758 -0.2439
12092TIP3    H157691   4.511   6.636   1.857 -0.2585  0.8468 -1.3578
12092TIP3    H257692   4.631   6.675   1.774  1.6971 -1.1949  0.4323
12093TIP3   OH257693   1.851   1.827  11.190 -0.4060  0.1325  0.9521
12093TIP3    H157694   1.791   1.875  11.133 -1.6663 -0.3377  1.8708
12093TIP3    H257695   1.827   1.735  11.178  1.1934 -0.1908  0.1254
12094TIP3   OH257696   1.293   2.503  12.871  0.1045 -0.6096  0.4829
12094TIP3    H157697   1.336   2.453  12.940  1.8400 -0.6413 -0.5768
12094TIP3    H257698   1.304   2.594  12.896 -1.3368 -0.6819  1.4223
12095TIP3   OH257699   1.841   0.846  13.211 -0.3819 -0.4274  0.6087
12095TIP3    H157700   1.913   0.845  13.148 -1.5000 -0.6661 -0.7085
12095TIP3    H257701   1.881   0.821  13.294  1.1115 -0.1982 -0.0260
12096TIP3   OH257702   3.253   2.360  13.509  0.4901 -0.8198 -0.1804
12096TIP3    H157703   3.344   2.386  13.497  0.3403 -0.6760 -1.0388
12096TIP3    H257704   3.235   2.378  13.601  0.8986  0.5424 -0.3450
12097TIP3   OH257705   4.500   2.832  15.024  0.3350 -0.0501  0.1241
12097TIP3    H157706   4.501   2.884  14.944  0.3976  0.5761  0.5245
12097TIP3    H257707   4.444   2.883  15.084  2.0496  0.5868  1.2087
12098TIP3   OH257708   2.781   2.115  11.826 -0.1743  0.2252  0.0545
12098TIP3    H157709   2.838   2.123  11.903  0.2330  3.8656 -0.5089
12098TIP3    H257710   2.817   2.042  11.777  0.4043 -1.3019  2.6235
12099TIP3   OH257711   1.382   5.451  12.906 -0.2766  0.0888  0.1586
12099TIP3    H157712   1.374   5.361  12.874 -0.7545  0.1417  0.1222
12099TIP3    H257713   1.291   5.481  12.916 -0.1412 -0.2441  2.5082
12100TIP3   OH257714   1.069   1.693   5.494 -0.1915 -0.0067  0.2030
12100TIP3    H157715   1.015   1.614   5.492 -0.7936  0.3861  1.0020
12100TIP3    H257716   1.157   1.661   5.515 -0.7022 -0.3265  1.8909
12101TIP3   OH257717   2.616   2.369  13.337  0.1552  0.4478  0.6079
12101TIP3    H157718   2.629   2.402  13.248 -1.5471 -0.9845 -0.1803
12101TIP3    H257719   2.705   2.354  13.369  0.8614  2.9986 -0.0621
12102TIP3   OH257720   4.918   1.815   4.291 -0.1812 -0.6018 -0.2757
12102TIP3    H157721   4.908   1.740   4.233 -0.3149  0.9866 -2.3524
12102TIP3    H257722   4.829   1.840   4.315 -0.1437 -0.9548  0.2572
12103TIP3   OH257723   6.489   5.103  11.612 -0.1245 -0.1757  0.2568
12103TIP3    H157724   6.541   5.174  11.648 -2.5491  1.8084 -0.0352
12103TIP3    H257725   6.487   5.119  11.518 -1.2871 -0.1978  0.2700
12104TIP3   OH257726   1.101   3.427   0.732 -0.8307  0.3470  0.6142
12104TIP3    H157727   1.086   3.430   0.638  2.6339 -1.1662 -0.0660
12104TIP3    H257728   1.130   3.515   0.754  1.5445 -0.1330 -0.4032
12105TIP3   OH257729   5.568   5.306  17.187  0.1971 -0.0619 -0.0982
12105TIP3    H157730   5.586   5.348  17.103 -0.1759  1.4094  0.5415
12105TIP3    H257731   5.473   5.299  17.191  0.2107 -0.1177  0.1970
12106TIP3   OH257732   4.279   4.118  10.640  0.4578  0.3118 -0.6193
12106TIP3    H157733   4.290   4.213  10.635 -1.7225  0.5953 -0.7736
12106TIP3    H257734   4.297   4.087  10.552 -2.1147  1.0166 -1.4521
12107TIP3   OH257735   2.807   0.543   1.184  0.7364 -0.5837 -0.0383
12107TIP3    H157736   2.734   0.525   1.124 -0.0768  1.5569  0.2682
12107TIP3    H257737   2.783   0.497   1.265  0.1465 -0.5827 -0.2096
12108TIP3   OH257738   3.879   6.273   2.609 -0.0481  0.4145 -0.5537
12108TIP3    H157739   3.877   6.196   2.552  3.2791 -0.2900  0.1756
12108TIP3    H257740   3.879   6.348   2.549  1.9814 -0.2956 -1.4754
12109TIP3   OH257741   4.974   5.962  12.911  0.4629 -0.0402  0.2333
12109TIP3    H157742   4.919   6.024  12.959 -0.7180  0.1904 -1.3541
12109TIP3    H257743   5.045   5.940  12.971 -0.8199  0.4443  1.9678
12110TIP3   OH257744   6.394   3.486  14.067  0.8703 -0.4168  0.2132
12110TIP3    H157745   6.332   3.413  14.073  1.5535 -1.1072 -1.0170
12110TIP3    H257746   6.366   3.536  13.991  0.6201  0.4095  0.8451
12111TIP3   OH257747   1.393   4.892   4.933 -0.0565  0.0564  0.1617
12111TIP3    H157748   1.451   4.846   4.994 -0.1658 -1.5674 -0.9495
12111TIP3    H257749   1.318   4.917   4.987  0.2122 -0.6706  0.8848
12112TIP3   OH257750   3.007   1.514  11.395  0.1976 -0.9411 -0.1248
12112TIP3    H157751   2.933   1.568  11.421  1.5326  0.1798  1.4512
12112TIP3    H257752   3.022   1.536  11.303  0.0899  0.6172  0.2259
12113TIP3   OH257753   0.881   0.846   1.352 -0.5984 -1.0767  0.1169
12113TIP3    H157754   0.789   0.836   1.328 -0.7540  3.0817 -1.3946
12113TIP3    H257755   0.929   0.821   1.273 -0.6896  1.6675 -0.8609
12114TIP3   OH257756   5.119   5.719   6.026 -0.0918  0.2871  0.5968
12114TIP3    H157757   5.147   5.632   6.055  1.4694  1.0710  1.4960
12114TIP3    H257758   5.080   5.759   6.104  0.4055  0.8792  0.5476
12115TIP3   OH257759   1.504   6.031  13.390 -0.2252 -0.2043  0.3707
12115TIP3    H157760   1.523   6.049  13.298  0.5686  1.4648  0.8404
12115TIP3    H257761   1.412   6.056  13.401 -0.1882  0.0279  0.1480
12116TIP3   OH257762   2.893   5.050  13.666  0.1904 -0.3488 -0.7597
12116TIP3    H157763   2.857   5.138  13.666  2.5242  0.6674  1.3480
12116TIP3    H257764   2.899   5.026  13.759  1.5769 -1.8691 -1.2103
12117TIP3   OH257765   4.811   0.844  16.033  0.0100  0.6926  0.7209
12117TIP3    H157766   4.886   0.800  16.073  1.0228  3.4308  1.9704
12117TIP3    H257767   4.816   0.819  15.941  1.0964 -0.9813  1.1963
12118TIP3   OH257768   1.320   5.858   1.519  0.2573 -0.0783  0.0775
12118TIP3    H157769   1.392   5.914   1.489  0.7816 -0.1630  1.1722
12118TIP3    H257770   1.354   5.769   1.513  0.5433 -0.0712  1.3573
12119TIP3   OH257771   5.415   0.737   5.459 -0.2504  0.0288 -0.6404
12119TIP3    H157772   5.416   0.658   5.404 -0.6930 -0.1954 -0.3279
12119TIP3    H257773   5.401   0.704   5.548  2.3738  0.2213 -0.0917
12120TIP3   OH257774   2.687   0.970  14.329  0.1965 -0.5188 -0.4011
12120TIP3    H157775   2.683   0.910  14.254  0.7781 -1.0176 -0.0443
12120TIP3    H257776   2.679   1.057  14.290 -0.7649 -0.8351 -0.9166
12121TIP3   OH257777   6.138   6.587  10.671 -0.0608  0.0867  0.2519
12121TIP3    H157778   6.152   6.549  10.584  1.2665  0.1980  0.4061
12121TIP3    H257779   6.084   6.664  10.655 -2.0136 -1.3458 -0.1664
12122TIP3   OH257780   6.329   6.231  16.006  0.6238  0.6885  0.0028
12122TIP3    H157781   6.285   6.282  16.074  0.3878  0.0513  0.3358
12122TIP3    H257782   6.411   6.203  16.046 -0.2408 -1.0561  0.6128
12123TIP3   OH257783   0.391   2.654  14.327  0.2954  0.4366  0.6411
12123TIP3    H157784   0.430   2.681  14.410  0.8892  0.2609  0.4238
12123TIP3    H257785   0.300   2.635  14.348  0.1794  1.4174  1.0395
12124TIP3   OH257786   0.087   2.503  17.153  0.3581  0.0437 -0.1955
12124TIP3    H157787   0.173   2.536  17.181  0.8381 -1.4765  0.1838
12124TIP3    H257788   0.078   2.532  17.062  1.0363  0.6501 -0.0785
12125TIP3   OH257789   3.000   2.984   1.437 -0.1188 -0.1606 -0.1270
12125TIP3    H157790   2.924   3.027   1.475 -0.2148  1.2113 -1.8070
12125TIP3    H257791   2.966   2.900   1.406 -0.8671  0.2700 -0.4991
12126TIP3   OH257792   1.349   1.694  16.288 -0.2835  0.1533 -0.4523
12126TIP3    H157793   1.379   1.604  16.273 -2.1911 -0.4520 -0.7429
12126TIP3    H257794   1.357   1.705  16.383  0.3235 -0.1748 -0.4597
12127TIP3   OH257795   2.360   5.365  16.184  0.0795 -0.5870  0.6078
12127TIP3    H157796   2.302   5.293  16.209 -0.9907  0.4739  1.2332
12127TIP3    H257797   2.378   5.411  16.267  0.0628  0.3619  0.0884
12128TIP3   OH257798   2.475   6.159  13.864 -0.2996 -0.2635 -0.5713
12128TIP3    H157799   2.556   6.176  13.816  0.0301  1.9886  0.7214
12128TIP3    H257800   2.419   6.234  13.846 -1.1415 -0.5985  0.5582
12129TIP3   OH257801   6.366   2.159   3.442 -0.2815  0.3612  0.1791
12129TIP3    H157802   6.365   2.160   3.346  0.0032 -0.4438  0.1628
12129TIP3    H257803   6.458   2.151   3.465 -0.3870  0.0638  0.5106
12130TIP3   OH257804   3.304   6.141   3.673 -0.1797  0.4480  0.1023
12130TIP3    H157805   3.306   6.047   3.656 -2.2690  0.5341 -0.7398
12130TIP3    H257806   3.288   6.181   3.588 -0.7300  1.4941  0.6849
12131TIP3   OH257807   0.174   4.172   2.236 -0.2072  0.2616  0.7703
12131TIP3    H157808   0.175   4.082   2.269  0.4637 -0.3077 -0.7822
12131TIP3    H257809   0.262   4.206   2.254 -0.2847  0.4286  0.8408
12132TIP3   OH257810   3.496   4.066   3.821  0.2004 -0.2825  0.2435
12132TIP3    H157811   3.508   4.135   3.756  0.2239 -1.0223 -0.5558
12132TIP3    H257812   3.509   4.109   3.905  0.3356  0.6564 -0.2536
12133TIP3   OH257813   6.497   0.788  12.113  0.0834 -0.3137 -0.2730
12133TIP3    H157814   6.461   0.700  12.117 -0.7809 -0.0347 -1.5112
12133TIP3    H257815   6.587   0.776  12.081  0.4825 -0.8632  1.0496
12134TIP3   OH257816   6.425   2.086  14.714  0.0065 -0.1061  0.0648
12134TIP3    H157817   6.445   1.994  14.732  0.4954  0.2260  1.2534
12134TIP3    H257818   6.345   2.084  14.662 -0.3158 -1.1773  0.6072
12135TIP3   OH257819   3.443   5.896  15.595 -0.0602 -0.9402 -0.3396
12135TIP3    H157820   3.422   5.843  15.673  0.3100  0.1281  0.4992
12135TIP3    H257821   3.363   5.893  15.542 -1.3343  0.6169  1.4136
12136TIP3   OH257822   3.080   1.351   3.100 -0.0447  0.0493 -0.2032
12136TIP3    H157823   3.056   1.429   3.149 -1.8417 -0.3716 -0.3643
12136TIP3    H257824   3.024   1.354   3.022  0.9894 -0.5807 -0.9856
12137TIP3   OH257825   0.893   2.568  12.078  0.0575  0.5307  0.3949
12137TIP3    H157826   0.939   2.604  12.153 -0.8273  1.1304  0.6576
12137TIP3    H257827   0.828   2.509  12.115 -0.0191  0.4138  0.0786
12138TIP3   OH257828   5.890   5.402   5.893 -0.4106  0.0887 -0.5756
12138TIP3    H157829   5.949   5.423   5.821  0.6278 -0.2789  0.1518
12138TIP3    H257830   5.900   5.307   5.905  1.2989  0.5091  1.6439
12139TIP3   OH257831   0.765   0.022  14.916  0.4198  0.7289 -0.5721
12139TIP3    H157832   0.848   0.010  14.869  2.0166  3.2878  1.4359
12139TIP3    H257833   0.722   0.093  14.869 -0.5393 -0.4195 -1.4496
12140TIP3   OH257834   6.752   0.175   3.482 -0.0018  0.0672 -0.0644
12140TIP3    H157835   6.739   0.230   3.559 -0.1970  0.1221 -0.1349
12140TIP3    H257836   6.801   0.099   3.514 -1.8449 -0.9172  0.5447
12141TIP3   OH257837   0.296   6.607  14.452  0.2841  0.8501 -0.1956
12141TIP3    H157838   0.257   6.634  14.535 -0.7292 -0.3667 -0.2656
12141TIP3    H257839   0.227   6.620  14.388  0.9027  1.3029 -0.7759
12142TIP3   OH257840   6.163   1.895   2.638  0.2998  0.6452  0.2686
12142TIP3    H157841   6.196   1.892   2.728  1.3426  0.4347 -0.1106
12142TIP3    H257842   6.074   1.860   2.644  1.1710 -1.5787  0.8673
12143TIP3   OH257843   4.754   5.580   0.310 -0.3787 -0.6832  0.3629
12143TIP3    H157844   4.824   5.640   0.333 -0.9780 -0.0968  0.6781
12143TIP3    H257845   4.720   5.612   0.227 -0.8164 -0.4797  0.6192
12144TIP3   OH257846   2.761   5.096   0.455 -0.2261  0.5790  0.1059
12144TIP3    H157847   2.780   5.014   0.410  2.1712  0.9040  0.4777
12144TIP3    H257848   2.753   5.073   0.547 -0.4383  0.6264  0.1000
12145TIP3   OH257849   5.885   5.108  13.839 -0.2521  0.0943  0.1833
12145TIP3    H157850   5.909   5.016  13.835 -0.2414  0.1497 -1.2560
12145TIP3    H257851   5.845   5.126  13.753  0.5228  1.6392  0.1366
12146TIP3   OH257852   6.265   4.851   4.523 -0.2582 -0.3313 -0.1586
12146TIP3    H157853   6.270   4.878   4.431 -1.1981 -0.4101 -0.2385
12146TIP3    H257854   6.185   4.892   4.556 -0.0125 -0.4323  0.5884
12147TIP3   OH257855   5.559   6.603  14.261  0.6043  0.2199 -0.1335
12147TIP3    H157856   5.491   6.647  14.210 -0.7710 -0.4698  1.0966
12147TIP3    H257857   5.516   6.577  14.343  2.2092 -0.6461  0.4624
12148TIP3   OH257858   5.096   5.444  15.139  0.7719  0.1692 -0.4595
12148TIP3    H157859   5.130   5.523  15.097  3.1014 -1.6445 -2.0660
12148TIP3    H257860   5.082   5.383  15.067 -2.2846 -0.4936  0.6093
12149TIP3   OH257861   2.877   3.835   3.271  0.7834 -0.9431  0.1407
12149TIP3    H157862   2.892   3.761   3.213  1.3028 -1.7168  1.2366
12149TIP3    H257863   2.790   3.821   3.307  0.0411  0.0810 -1.2204
12150TIP3   OH257864   1.814   5.167  10.911 -0.0222 -0.0417  0.4914
12150TIP3    H157865   1.724   5.195  10.928  0.1709 -0.1486  1.7308
12150TIP3    H257866   1.868   5.242  10.934  0.1317  0.5429 -1.6534
12151TIP3   OH257867   5.539   5.296  10.991  0.2700 -0.5266  1.0620
12151TIP3    H157868   5.538   5.258  10.903  1.3186 -0.7971  1.1653
12151TIP3    H257869   5.466   5.358  10.991  0.4626 -0.2915 -0.0992
12152TIP3   OH257870   5.489   6.561  12.574  0.4897 -0.1395  0.7570
12152TIP3    H157871   5.405   6.573  12.529  0.6410  0.5005  0.6496
12152TIP3    H257872   5.477   6.480  12.624 -0.7760  0.8188  2.0543
12153TIP3   OH257873   4.763   2.242   3.646  0.1627 -0.0489  0.1746
12153TIP3    H157874   4.747   2.303   3.718  2.2914  0.5100  0.1920
12153TIP3    H257875   4.773   2.298   3.569 -0.2483 -0.5293 -0.2277
12154TIP3   OH257876   1.352   0.236   2.877 -0.1040 -0.0713  0.2424
12154TIP3    H157877   1.374   0.175   2.947  1.9166  0.3491  0.0270
12154TIP3    H257878   1.393   0.318   2.904 -0.4741  0.4551 -0.7801
12155TIP3   OH257879   6.584   4.608  12.070 -0.8389  0.5915 -0.1234
12155TIP3    H157880   6.598   4.600  12.164 -2.7377  1.3660  0.2543
12155TIP3    H257881   6.636   4.538  12.031  0.3654  0.5830  1.4554
12156TIP3   OH257882   1.772   5.907   0.982  0.1512  0.0502  0.0985
12156TIP3    H157883   1.778   5.914   0.887  0.7884 -0.9641  0.0596
12156TIP3    H257884   1.721   5.984   1.008 -2.5282 -1.2101 -1.3076
12157TIP3   OH257885   5.540   5.500  11.935 -0.0754 -0.0451 -0.5783
12157TIP3    H157886   5.553   5.424  11.878 -1.7733 -0.9546  0.2048
12157TIP3    H257887   5.519   5.571  11.875  1.8282 -0.0795 -1.3443
12158TIP3   OH257888   6.314   5.792   3.311  0.2404  0.5896  0.1080
12158TIP3    H157889   6.228   5.809   3.272 -0.7439 -2.7703  0.6665
12158TIP3    H257890   6.298   5.793   3.405  0.6295 -0.8619  0.1932
12159TIP3   OH257891   1.680   3.402  14.835 -0.0133 -0.3065 -0.2094
12159TIP3    H157892   1.615   3.387  14.904  0.3299 -0.2767  0.1254
12159TIP3    H257893   1.757   3.353  14.864  0.0001 -0.6208 -0.7761
12160TIP3   OH257894   1.160   6.269   4.963 -0.3465 -0.0372  0.5722
12160TIP3    H157895   1.215   6.330   5.011 -0.6344  1.1900 -0.6212
12160TIP3    H257896   1.105   6.228   5.030 -0.9387  1.8396  1.2848
12161TIP3   OH257897   5.850   0.279  12.268  1.1403 -0.0048 -0.2837
12161TIP3    H157898   5.835   0.274  12.173 -3.0621 -0.6444  0.2864
12161TIP3    H257899   5.888   0.195  12.291  1.1260 -0.2825 -1.2510
12162TIP3   OH257900   1.520   1.684   3.949  0.1267 -0.7307  0.2789
12162TIP3    H157901   1.524   1.701   3.854 -1.4523 -1.6514  0.0366
12162TIP3    H257902   1.599   1.633   3.967  2.3565  2.5140  0.1302
12163TIP3   OH257903   0.423   5.885   3.862 -0.0895 -0.5518 -0.0085
12163TIP3    H157904   0.487   5.898   3.792  0.0448  1.3195  0.4538
12163TIP3    H257905   0.338   5.895   3.819 -0.0052  0.7480  0.1214
12164TIP3   OH257906   0.049   0.705   5.676 -0.5705  0.2496 -0.3539
12164TIP3    H157907   0.023   0.791   5.645 -0.4289  0.3073 -0.3110
12164TIP3    H257908   0.034   0.708   5.771 -1.4166 -0.0701 -0.4712
12165TIP3   OH257909   3.859   2.950  12.117  0.6166  0.2979  0.0693
12165TIP3    H157910   3.952   2.929  12.118  0.6873  0.6045  0.0540
12165TIP3    H257911   3.822   2.894  12.048  1.0099  1.0772 -0.7827
12166TIP3   OH257912   4.513   0.984   3.695 -0.0674 -0.2936 -0.0710
12166TIP3    H157913   4.583   0.949   3.640 -1.1355  0.0942 -1.7086
12166TIP3    H257914   4.528   1.079   3.695 -1.3975 -0.0590 -1.6102
12167TIP3   OH257915   5.170   0.165  14.711  0.0393 -0.4815  0.5607
12167TIP3    H157916   5.247   0.194  14.662 -0.0991 -0.2399  0.4911
12167TIP3    H257917   5.181   0.070  14.717 -0.1353 -0.5520 -0.2614
12168TIP3   OH257918   2.406   5.020  11.198  0.1880 -0.1825  0.2317
12168TIP3    H157919   2.352   5.016  11.119 -1.0486  1.1486  0.9903
12168TIP3    H257920   2.491   4.985  11.171  0.2338  1.6239 -2.0849
12169TIP3   OH257921   2.694   4.620   1.183 -0.2518 -0.3070  0.9487
12169TIP3    H157922   2.602   4.647   1.180  0.0585  0.7067  0.0102
12169TIP3    H257923   2.708   4.576   1.099  0.7210  1.6149  0.0860
12170TIP3   OH257924   4.871   1.348  12.404  0.3373 -0.0095 -0.1158
12170TIP3    H157925   4.959   1.312  12.396 -0.0170 -0.7715 -0.6470
12170TIP3    H257926   4.830   1.330  12.320 -1.2848 -2.2511  1.1045
12171TIP3   OH257927   0.624   3.118  12.880 -0.0357 -0.0784 -0.3346
12171TIP3    H157928   0.576   3.145  12.959  1.2867  0.7055  0.2128
12171TIP3    H257929   0.572   3.046  12.845 -0.5761 -0.5481  1.3495
12172TIP3   OH257930   5.356   5.347   1.693 -0.3065 -0.4575 -0.0808
12172TIP3    H157931   5.419   5.275   1.688 -0.0260 -0.2447  0.3226
12172TIP3    H257932   5.407   5.420   1.728 -0.9399 -0.4706  0.9016
12173TIP3   OH257933   5.213   5.917   3.690 -0.2081 -0.1388  0.0022
12173TIP3    H157934   5.174   5.831   3.703 -0.7234 -0.0857 -1.1108
12173TIP3    H257935   5.297   5.899   3.647 -0.5729 -0.0677 -0.7594
12174TIP3   OH257936   5.604   2.513   1.926  0.0542 -0.2766  0.0963
12174TIP3    H157937   5.656   2.479   1.854 -0.7630 -2.0502  0.3248
12174TIP3    H257938   5.515   2.514   1.894 -0.2744 -0.7633  0.9754
12175TIP3   OH257939   1.835   3.388  12.830 -0.8736  0.1435  0.4519
12175TIP3    H157940   1.782   3.368  12.754  0.4813 -0.3917 -0.3747
12175TIP3    H257941   1.908   3.326  12.826  0.4714  1.6486  0.8768
12176TIP3   OH257942   4.594   5.185  11.779 -0.2668 -0.4480  0.5612
12176TIP3    H157943   4.620   5.267  11.738 -0.1917 -0.5369  0.4323
12176TIP3    H257944   4.657   5.172  11.850  0.9734 -1.4207 -0.6814
12177TIP3   OH257945   6.279   2.644   5.444 -0.2464  0.1673 -0.2365
12177TIP3    H157946   6.248   2.607   5.362  0.2268 -2.8764  0.8867
12177TIP3    H257947   6.375   2.636   5.439  0.0057  3.1899 -0.8307
12178TIP3   OH257948   3.750   2.002  14.564  0.1488  0.2739  0.1596
12178TIP3    H157949   3.730   2.024  14.655 -0.3150 -0.3972  0.2268
12178TIP3    H257950   3.758   1.907  14.563  0.0716  0.2683 -0.5176
12179TIP3   OH257951   2.964   3.514  12.054  0.0268 -0.7385 -0.3772
12179TIP3    H157952   2.885   3.545  12.099  0.1080 -0.2796 -0.5489
12179TIP3    H257953   3.002   3.592  12.015  0.7992 -0.8902  0.0571
12180TIP3   OH257954   2.710   6.653   2.672 -0.1797  0.0102 -0.1375
12180TIP3    H157955   2.803   6.673   2.664 -0.0217 -0.0865  1.3300
12180TIP3    H257956   2.705   6.558   2.657  0.0176 -0.0511  0.1704
12181TIP3   OH257957   4.328   1.983   3.652  0.1555  0.4578 -0.2174
12181TIP3    H157958   4.335   1.896   3.614  0.6083  1.0383 -1.4836
12181TIP3    H257959   4.234   1.993   3.671 -0.0923  0.2078 -1.2974
12182TIP3   OH257960   5.665   5.706  12.092  0.5307 -0.0099 -0.0224
12182TIP3    H157961   5.645   5.676  12.180  2.7123 -1.2249  0.1014
12182TIP3    H257962   5.628   5.639  12.034 -0.0147  0.2667  0.0022
12183TIP3   OH257963   4.151   3.876  11.036  0.2353  0.2232 -0.5907
12183TIP3    H157964   4.170   3.890  10.944  0.9996  1.7773 -0.2051
12183TIP3    H257965   4.056   3.888  11.044  0.2515  0.6731 -1.0755
12184TIP3   OH257966   4.943   5.152  14.714  0.3269  0.2011  0.1856
12184TIP3    H157967   4.998   5.164  14.792  0.4481 -3.0828  0.6897
12184TIP3    H257968   4.854   5.144  14.749  0.1598  0.5258 -0.1695
12185TIP3   OH257969   1.046   5.740   0.600 -0.1352 -0.0461 -0.0832
12185TIP3    H157970   1.065   5.652   0.634 -0.3211 -1.1774 -2.7643
12185TIP3    H257971   1.056   5.798   0.675  0.2701 -2.3358  1.6768
12186TIP3   OH257972   6.009   2.636   2.574  0.3665 -0.7382  0.0928
12186TIP3    H157973   5.974   2.584   2.501 -1.3929  0.5605 -0.0296
12186TIP3    H257974   5.962   2.719   2.569  1.8146  0.1873  1.3994
12187TIP3   OH257975   5.512   3.576   3.459 -0.1723  0.1831  0.1111
12187TIP3    H157976   5.535   3.608   3.372  0.0601 -0.1510  0.0476
12187TIP3    H257977   5.423   3.543   3.449 -1.1831  2.6768  0.6780
12188TIP3   OH257978   3.176   6.067  11.914 -0.3071  0.0073 -0.3233
12188TIP3    H157979   3.202   6.010  11.841 -0.5419 -0.9494  0.3354
12188TIP3    H257980   3.112   6.016  11.963  0.0054  0.5576  0.6758
12189TIP3   OH257981   1.357   2.065   2.367 -0.1618  0.6412 -0.0725
12189TIP3    H157982   1.326   1.976   2.350 -1.8909  1.4288 -1.1645
12189TIP3    H257983   1.312   2.092   2.447  0.0035  0.7155 -0.0032
12190TIP3   OH257984   1.700   1.960  12.018  0.4390 -0.0215  0.2907
12190TIP3    H157985   1.687   2.037  12.074 -1.7007  0.6075 -1.0143
12190TIP3    H257986   1.629   1.900  12.042 -0.2999  0.1200 -1.5052
12191TIP3   OH257987   1.872   1.861  12.345  0.0526 -0.0468 -0.0430
12191TIP3    H157988   1.917   1.841  12.427 -0.8205  0.1929  0.4941
12191TIP3    H257989   1.879   1.956  12.337  1.6376 -0.2359 -1.1238
12192TIP3   OH257990   4.884   4.259   0.938 -0.4325  0.3211 -0.6243
12192TIP3    H157991   4.964   4.237   0.986  0.0086  1.8855 -0.6372
12192TIP3    H257992   4.905   4.338   0.889 -1.1408 -0.7577 -2.7649
12193TIP3   OH257993   6.435   5.878   3.934 -0.8863  0.1584  0.7884
12193TIP3    H157994   6.448   5.787   3.959 -2.3829  0.3008  2.1848
12193TIP3    H257995   6.515   5.922   3.961  0.6411 -1.0286 -1.5739
12194TIP3   OH257996   2.293   3.505   3.154 -0.5881  0.1030  0.1818
12194TIP3    H157997   2.269   3.490   3.063 -2.5439 -0.7793  0.8081
12194TIP3    H257998   2.380   3.467   3.163 -1.0725 -1.3053 -0.9233
12195TIP3   OH257999   4.343   5.284   1.799  0.0984  0.5757  0.4685
12195TIP3    H158000   4.385   5.291   1.713 -1.1295 -0.8907 -0.2765
12195TIP3    H258001   4.392   5.214   1.843  0.1228  0.6843  0.6134
12196TIP3   OH258002   2.825   1.458   3.754 -0.1216  0.2926 -0.0185
12196TIP3    H158003   2.807   1.371   3.719  2.6616 -0.4862  0.3403
12196TIP3    H258004   2.861   1.442   3.842 -0.9328  1.8739  0.6285
12197TIP3   OH258005   5.587   4.402  12.650  0.1857  0.2673  0.1158
12197TIP3    H158006   5.520   4.471  12.649  0.2329  0.3471 -2.4359
12197TIP3    H258007   5.629   4.410  12.735 -3.2326  0.0386  1.9324
12198TIP3   OH258008   2.929   0.658   5.205  0.2582  0.0020 -0.2653
12198TIP3    H158009   3.015   0.688   5.234  1.6080 -0.7648 -3.2751
12198TIP3    H258010   2.931   0.563   5.218 -0.3093  0.0404  0.0983
12199TIP3   OH258011   5.258   1.478  17.064  0.0482 -0.0402  0.0477
12199TIP3    H158012   5.173   1.522  17.059 -0.1228  0.1357  3.0729
12199TIP3    H258013   5.238   1.390  17.095  0.7826 -0.8105 -1.6174
12200TIP3   OH258014   6.119   6.080  16.586 -0.2837 -0.3430  0.0731
12200TIP3    H158015   6.071   6.163  16.579  1.2239  0.5197 -0.4259
12200TIP3    H258016   6.210   6.107  16.602 -0.0911 -1.9459  1.8320
12201TIP3   OH258017   4.311   2.174  13.626 -0.2690 -0.0472  0.1288
12201TIP3    H158018   4.401   2.196  13.650 -0.3909  0.3645  0.2027
12201TIP3    H258019   4.313   2.079  13.612  0.0905 -0.0940  0.4990
12202TIP3   OH258020   4.794   4.305  16.518  0.5816  0.2898  1.0628
12202TIP3    H158021   4.741   4.330  16.593 -1.6032 -0.8524 -0.0486
12202TIP3    H258022   4.844   4.229  16.547  0.3449  0.3371  1.5926
12203TIP3   OH258023   0.473   4.120   1.440  0.3362 -0.1159 -0.1479
12203TIP3    H158024   0.551   4.160   1.478  0.5893 -1.1832  0.4865
12203TIP3    H258025   0.489   4.120   1.346 -0.1812  2.3213 -0.2668
12204TIP3   OH258026   4.396   3.693  13.237  1.0190  0.0376 -0.1835
12204TIP3    H158027   4.392   3.701  13.141  1.5436  1.7274 -0.0739
12204TIP3    H258028   4.309   3.720  13.266  1.5812  1.7202 -0.0479
12205TIP3   OH258029   4.235   4.708  14.900 -0.4190 -0.6865 -0.1776
12205TIP3    H158030   4.292   4.640  14.864  0.5547  0.3242 -0.5797
12205TIP3    H258031   4.293   4.763  14.952 -1.4755 -1.0160  1.3872
12206TIP3   OH258032   5.049   6.532  15.670 -0.0497 -0.4501  0.1087
12206TIP3    H158033   5.121   6.570  15.720 -0.2712  0.2231 -0.0841
12206TIP3    H258034   5.006   6.473  15.732  0.8334 -1.0735  0.1455
12207TIP3   OH258035   2.969   4.130  12.649 -0.1261 -0.0777  0.1287
12207TIP3    H158036   2.985   4.041  12.681  1.0464 -0.2196 -0.8288
12207TIP3    H258037   3.033   4.142  12.579 -1.6260  0.7912 -1.1285
12208TIP3   OH258038   2.466   4.966  13.761 -0.4999  0.4299  0.3267
12208TIP3    H158039   2.482   4.941  13.670 -0.4736 -0.5084  0.5852
12208TIP3    H258040   2.440   4.885  13.804 -0.6788  0.9037  1.1230
12209TIP3   OH258041   6.763   2.412   3.845  0.5883 -0.2603 -0.1257
12209TIP3    H158042   6.805   2.363   3.774  0.8438 -1.7347  1.0163
12209TIP3    H258043   6.681   2.442   3.807  2.2178  1.9161 -2.1173
12210TIP3   OH258044   0.610   4.298  14.691  0.3015  0.5689 -0.2962
12210TIP3    H158045   0.658   4.325  14.769 -0.3125  1.6739 -0.2961
12210TIP3    H258046   0.596   4.378  14.642 -2.3303  0.4528  0.1568
12211TIP3   OH258047   1.386   3.443   2.752  0.2072  0.2140 -0.1193
12211TIP3    H158048   1.372   3.348   2.753 -1.1669  0.4153  0.0017
12211TIP3    H258049   1.433   3.460   2.671 -1.4281 -0.3008 -1.1810
12212TIP3   OH258050   2.305   5.150   3.986  0.5665  0.6352  0.0951
12212TIP3    H158051   2.399   5.147   4.002  0.6305  0.5749 -0.2831
12212TIP3    H258052   2.274   5.220   4.043  0.0483 -2.6020  4.0117
12213TIP3   OH258053   2.499   3.416  15.792  0.2522  0.4384  0.2514
12213TIP3    H158054   2.571   3.479  15.789  0.4786  0.1485 -0.6101
12213TIP3    H258055   2.534   3.341  15.840  0.4044  0.4554  0.1665
12214TIP3   OH258056   0.192   2.330   2.941  0.0041 -0.1226  0.4706
12214TIP3    H158057   0.144   2.389   2.999  1.6450  2.0623 -0.3167
12214TIP3    H258058   0.228   2.263   3.000  3.3277  3.1606  2.4141
12215TIP3   OH258059   2.812   1.809   6.011 -0.0550  0.5279  0.4178
12215TIP3    H158060   2.851   1.766   6.087  2.8894  0.1062 -1.2623
12215TIP3    H258061   2.722   1.777   6.009  0.2648 -0.6253  2.8354
12216TIP3   OH258062   4.836   5.245  13.469 -0.1480 -0.1599  0.0940
12216TIP3    H158063   4.920   5.225  13.426 -0.2214 -2.2013  0.8267
12216TIP3    H258064   4.846   5.334  13.501  1.4351 -0.0748 -0.5819
12217TIP3   OH258065   2.145   6.324  13.233 -0.8081 -0.0035  0.1963
12217TIP3    H158066   2.200   6.266  13.286  1.6127  0.7644 -1.4204
12217TIP3    H258067   2.136   6.403  13.286 -1.2196 -0.5141  0.9014
12218TIP3   OH258068   2.560   5.564  15.131 -0.5129 -0.3125 -0.3218
12218TIP3    H158069   2.602   5.502  15.191 -0.1470 -0.3814 -0.6500
12218TIP3    H258070   2.468   5.564  15.158 -0.3286 -0.2426  0.3274
12219TIP3   OH258071   2.226   3.417   2.925 -0.3822 -0.2548 -1.0799
12219TIP3    H158072   2.216   3.390   2.834 -1.0092 -0.9184 -0.8210
12219TIP3    H258073   2.140   3.453   2.949 -0.0137  0.5530 -0.9570
12220TIP3   OH258074   1.203   6.547   0.627 -0.4131  0.0488 -0.1752
12220TIP3    H158075   1.175   6.638   0.636  0.5912  0.5898 -2.3310
12220TIP3    H258076   1.237   6.524   0.714  0.9182  2.2924 -0.0592
12221TIP3   OH258077   0.713   4.174   2.646  0.2234  0.8034 -0.0305
12221TIP3    H158078   0.756   4.228   2.712 -0.0523  1.3731 -0.3189
12221TIP3    H258079   0.753   4.200   2.563  0.9597 -0.2997 -0.0227
12222TIP3   OH258080   5.891   1.507  15.136  0.0608  0.1460 -0.0907
12222TIP3    H158081   5.924   1.511  15.225 -3.0914  0.9512  1.1275
12222TIP3    H258082   5.933   1.431  15.097  2.4889  0.5712  1.6433
12223TIP3   OH258083   6.665   4.706   0.029  0.0391  0.3337  0.3797
12223TIP3    H158084   6.699   4.667   0.109 -3.3117  0.0785  1.7603
12223TIP3    H258085   6.597   4.646  -0.001 -3.4615  3.6909  1.1469
12224TIP3   OH258086   3.842   3.439   5.391  0.0778  0.6201  0.2697
12224TIP3    H158087   3.892   3.361   5.367 -0.5808  0.8397 -1.9053
12224TIP3    H258088   3.773   3.406   5.449 -0.0092 -0.3935 -0.3821
12225TIP3   OH258089   2.728   0.258   1.365 -0.1855  0.7046 -0.1753
12225TIP3    H158090   2.780   0.208   1.428  1.2066  0.3310 -1.5680
12225TIP3    H258091   2.656   0.295   1.416  0.8371  0.3045  1.5918
12226TIP3   OH258092   3.424   2.691   3.522 -0.0810  0.1700 -0.7004
12226TIP3    H158093   3.383   2.651   3.445 -0.6841  1.9803 -1.3614
12226TIP3    H258094   3.364   2.762   3.546  0.1012 -0.3927  1.4638
12227TIP3   OH258095   6.400   0.308  11.528  0.3872  0.4660  0.6325
12227TIP3    H158096   6.369   0.308  11.618  3.5588  0.8367  1.8071
12227TIP3    H258097   6.412   0.400  11.506  0.6454  0.3390  0.2271
12228TIP3   OH258098   5.728   0.308  11.969  0.2415  0.1831  0.2549
12228TIP3    H158099   5.785   0.381  11.943  1.0088 -0.1427  1.0006
12228TIP3    H258100   5.641   0.348  11.979  0.3584  0.7012 -0.7798
12229TIP3   OH258101   2.681   3.495   2.753 -0.0898 -0.1086  0.0014
12229TIP3    H158102   2.617   3.479   2.684 -0.2809  0.6076  0.0053
12229TIP3    H258103   2.710   3.586   2.738  1.5921 -0.7138 -0.5600
12230TIP3   OH258104   1.608   6.249  16.475  0.1320 -0.7745  0.2262
12230TIP3    H158105   1.639   6.216  16.559  0.4758 -0.1934  0.3282
12230TIP3    H258106   1.680   6.303  16.442 -0.7105  0.5010  0.4295
12231TIP3   OH258107   4.465   3.064   6.224  0.0568 -0.1470  0.6983
12231TIP3    H158108   4.380   3.094   6.258  0.5110  0.1365  1.6092
12231TIP3    H258109   4.523   3.069   6.300  1.5559  2.2345 -0.5467
12232TIP3   OH258110   0.678   5.838  16.115  0.1573  0.2529 -0.4827
12232TIP3    H158111   0.706   5.747  16.124  0.3062  0.0585 -2.6316
12232TIP3    H258112   0.624   5.838  16.036 -0.7157  1.8402  0.0911
12233TIP3   OH258113   6.466   5.117   0.950 -0.3600 -0.1797  0.1513
12233TIP3    H158114   6.462   5.048   0.884  1.3121 -0.7492  0.6096
12233TIP3    H258115   6.409   5.087   1.021 -0.6487 -0.4806 -0.2119
12234TIP3   OH258116   6.183   5.802  12.826  0.3077 -0.4026  0.4187
12234TIP3    H158117   6.122   5.869  12.795  1.8190 -0.2506 -2.3066
12234TIP3    H258118   6.258   5.808  12.767  1.2584 -3.2871  1.2511
12235TIP3   OH258119   1.209   4.319   2.987 -0.0796  0.4727  0.7925
12235TIP3    H158120   1.200   4.332   3.081 -1.4675  1.5588  0.5252
12235TIP3    H258121   1.135   4.366   2.949 -0.3350 -1.1160 -0.7566
12236TIP3   OH258122   0.203   3.092  11.291  0.0599  0.3558  0.1835
12236TIP3    H158123   0.129   3.040  11.321  0.9540 -1.3008 -0.4713
12236TIP3    H258124   0.177   3.124  11.204 -0.2183  0.4585  0.3047
12237TIP3   OH258125   5.391   4.445   4.741  0.3775  0.5195  0.5055
12237TIP3    H158126   5.371   4.518   4.800 -2.4781 -0.2401  0.5386
12237TIP3    H258127   5.472   4.472   4.697 -0.5636  3.6710  0.5831
12238TIP3   OH258128   6.688   0.363  16.929  0.5642  0.6888 -0.2296
12238TIP3    H158129   6.748   0.384  17.000  0.3852 -0.8406  0.3798
12238TIP3    H258130   6.743   0.356  16.852  0.8559  1.6126 -0.1076
12239TIP3   OH258131   2.771   2.533   2.502  0.2580  0.4324  0.2251
12239TIP3    H158132   2.773   2.624   2.533  1.5282  0.4173  0.2166
12239TIP3    H258133   2.858   2.499   2.522  0.4573 -0.1723 -1.5984
12240TIP3   OH258134   2.943   2.142   6.173 -0.5570 -0.7457  0.4792
12240TIP3    H158135   2.872   2.124   6.234 -0.8740 -1.8427 -0.1995
12240TIP3    H258136   3.005   2.071   6.186 -0.5764 -0.9294 -0.4024
12241TIP3   OH258137   3.310   4.414   3.773 -0.3440  0.4818  0.3417
12241TIP3    H158138   3.258   4.339   3.804  1.6719 -1.6374 -1.2284
12241TIP3    H258139   3.365   4.437   3.848 -0.7287  0.1475  0.7291
12242TIP3   OH258140   5.381   0.623   3.074 -0.1985 -0.3328  0.2474
12242TIP3    H158141   5.427   0.672   3.006  2.2059 -1.8606  0.7347
12242TIP3    H258142   5.339   0.551   3.028  0.4086 -0.6652  0.2149
12243TIP3   OH258143   3.547   5.339   1.436  0.3951 -0.0631  0.4916
12243TIP3    H158144   3.619   5.322   1.375  0.1479 -0.2318  0.2458
12243TIP3    H258145   3.572   5.419   1.481  1.4618 -0.9452  1.4887
12244TIP3   OH258146   4.780   5.210   3.695 -0.3916 -0.2685  0.2926
12244TIP3    H158147   4.798   5.140   3.633 -0.4749 -0.1515  0.1366
12244TIP3    H258148   4.750   5.283   3.641 -0.9723 -0.3389  0.5164
12245TIP3   OH258149   6.783   4.932  11.590  0.1674 -0.1057  0.6397
12245TIP3    H158150   6.872   4.964  11.600  0.3362 -0.5330  0.4732
12245TIP3    H258151   6.769   4.876  11.666  0.3953 -0.8776  0.1098
12246TIP3   OH258152   6.669   2.744   2.753 -0.1920 -0.1901  0.5879
12246TIP3    H158153   6.732   2.734   2.682  0.1740  0.6924  0.7751
12246TIP3    H258154   6.721   2.736   2.833 -0.3635  0.2141  0.7434
12247TIP3   OH258155   0.087   4.782  13.254 -0.0399  0.2135  0.5033
12247TIP3    H158156   0.075   4.688  13.267 -0.3404  0.2767  0.6832
12247TIP3    H258157   0.009   4.822  13.293 -0.2382  0.4945 -0.1771
12248TIP3   OH258158   6.421   1.008  13.292  1.0170 -0.4499  0.0743
12248TIP3    H158159   6.458   1.056  13.366  2.4184 -1.0585 -0.2080
12248TIP3    H258160   6.488   0.942  13.271  0.6543 -0.2496 -1.7605
12249TIP3   OH258161   0.301   4.791  15.153  0.0519 -0.0875 -0.4692
12249TIP3    H158162   0.358   4.732  15.103 -1.2518 -0.5039 -1.5059
12249TIP3    H258163   0.327   4.778  15.244 -0.0913 -2.1433 -0.6970
12250TIP3   OH258164   5.252   1.662  14.822 -0.3943 -0.4515  0.1753
12250TIP3    H158165   5.313   1.636  14.891  0.2040  3.0042  1.0506
12250TIP3    H258166   5.302   1.724  14.769 -2.0513 -0.2888 -1.2255
12251TIP3   OH258167   0.782   5.832  16.568 -0.0007  0.0950 -0.3044
12251TIP3    H158168   0.708   5.790  16.612  1.1912 -1.0598  0.5991
12251TIP3    H258169   0.783   5.921  16.604  0.0896 -0.4051  0.9375
12252TIP3   OH258170   0.882   6.377   5.659 -0.6434  0.1023  0.1508
12252TIP3    H158171   0.949   6.310   5.650 -2.4747 -1.5045 -2.4217
12252TIP3    H258172   0.804   6.329   5.688 -0.9716  1.7856  2.1729
12253TIP3   OH258173   6.215   5.883  11.542  0.6022 -0.5871 -0.2336
12253TIP3    H158174   6.124   5.889  11.571 -0.1881  0.2193 -2.7399
12253TIP3    H258175   6.260   5.837  11.613 -1.4094  0.4657  1.7695
12254TIP3   OH258176   4.529   5.291   4.364 -1.0529  0.1620 -0.7564
12254TIP3    H158177   4.469   5.259   4.296 -0.5490 -0.2379 -1.0187
12254TIP3    H258178   4.564   5.373   4.327 -0.4521 -0.2770 -1.1731
12255TIP3   OH258179   5.682   5.457   1.802 -0.6019  0.3990  0.5724
12255TIP3    H158180   5.739   5.434   1.875  2.7180  1.3024 -1.5942
12255TIP3    H258181   5.726   5.531   1.760 -2.5000  0.0105 -2.2442
12256TIP3   OH258182   5.286   0.850  13.409  0.2564  0.4404  0.1692
12256TIP3    H158183   5.313   0.896  13.489  1.7081  0.8395 -0.5249
12256TIP3    H258184   5.255   0.765  13.440  1.8793  0.1468  1.0718
12257TIP3   OH258185   0.507   5.027   2.033  0.1840  0.2856  0.4306
12257TIP3    H158186   0.562   5.022   1.956 -0.0104  1.0504  0.2469
12257TIP3    H258187   0.527   5.111   2.073 -2.7863  1.7835 -1.1079
12258TIP3   OH258188   4.107   1.708  13.296 -0.2784 -0.3376 -0.0083
12258TIP3    H158189   4.035   1.654  13.263  0.1808  0.0457 -1.6806
12258TIP3    H258190   4.185   1.653  13.287 -0.0758 -0.0565  0.0076
12259TIP3   OH258191   6.514   3.318  15.843  0.2913  0.4026 -0.1937
12259TIP3    H158192   6.589   3.258  15.848  0.3610  0.5973  1.1499
12259TIP3    H258193   6.545   3.399  15.884 -2.0641 -0.9550  4.6132
12260TIP3   OH258194   4.138   5.122   1.565 -0.2605  0.2215 -0.1746
12260TIP3    H158195   4.171   5.032   1.558  0.0235  0.0888  2.5092
12260TIP3    H258196   4.189   5.161   1.635 -1.5066  1.9955 -0.2314
12261TIP3   OH258197   4.499   2.779   4.165  1.1849 -0.0292 -0.4732
12261TIP3    H158198   4.594   2.773   4.175  1.0717 -1.4703 -0.1754
12261TIP3    H258199   4.464   2.715   4.227  0.0760 -0.4985 -1.5445
12262TIP3   OH258200   4.085   5.027  10.858 -0.5228  0.1449  0.1876
12262TIP3    H158201   4.168   4.981  10.854  0.4753  1.9989 -0.8065
12262TIP3    H258202   4.019   4.957  10.856  0.9758 -1.3234  0.8998
12263TIP3   OH258203   1.811   2.431  15.057 -0.0245  0.1408  0.6577
12263TIP3    H158204   1.818   2.517  15.016  1.9670 -0.2099  0.2519
12263TIP3    H258205   1.883   2.380  15.020  0.7196 -0.7386  3.2074
12264TIP3   OH258206   5.825   4.715  12.489 -0.0885 -0.1894 -0.3867
12264TIP3    H158207   5.730   4.727  12.487 -0.2690 -0.7263  2.9608
12264TIP3    H258208   5.838   4.625  12.458 -0.6900 -0.1980 -0.6160
12265TIP3   OH258209   3.494   4.520   3.067 -0.1620  0.7818 -0.2738
12265TIP3    H158210   3.433   4.592   3.055 -0.0775  0.5873 -2.0147
12265TIP3    H258211   3.558   4.553   3.130 -1.4156  1.3892  0.6966
12266TIP3   OH258212   3.935   5.367  16.585  0.5585 -0.1307 -0.0899
12266TIP3    H158213   4.029   5.346  16.580  0.6793  0.5593 -1.0137
12266TIP3    H258214   3.891   5.287  16.557  0.8636 -0.5122  0.5052
12267TIP3   OH258215   3.741   6.429  16.738  0.1154 -0.5217 -0.5121
12267TIP3    H158216   3.669   6.421  16.801  0.3754  0.6101 -0.0745
12267TIP3    H258217   3.755   6.523  16.729  2.5537 -0.7603  0.5360
12268TIP3   OH258218   4.097   3.223   5.044  0.3026 -0.4836  0.0367
12268TIP3    H158219   4.009   3.200   5.014  0.2339 -1.7413  1.1860
12268TIP3    H258220   4.105   3.317   5.024 -0.6721 -0.7243 -1.5769
12269TIP3   OH258221   3.040   5.939  12.093 -0.0244  0.3518 -0.0198
12269TIP3    H158222   2.976   5.973  12.156  2.6846  1.5801  2.1881
12269TIP3    H258223   3.073   5.859  12.134  1.2540  0.7756 -0.2136
12270TIP3   OH258224   6.674   1.623  10.583  0.4671  0.2258 -0.8425
12270TIP3    H158225   6.624   1.542  10.568 -0.0692 -0.0333  2.0540
12270TIP3    H258226   6.660   1.675  10.505 -1.6443 -1.2560 -1.4829
12271TIP3   OH258227   0.782   0.811  12.553 -0.3246  0.3313  0.3959
12271TIP3    H158228   0.826   0.890  12.586 -2.1637  1.3532  0.4595
12271TIP3    H258229   0.778   0.753  12.629  1.5349 -0.0704  0.2113
12272TIP3   OH258230   5.156   0.881   1.049 -0.3852 -0.4355  0.1593
12272TIP3    H158231   5.085   0.942   1.072  0.0311  0.0342  0.2219
12272TIP3    H258232   5.199   0.862   1.132 -0.8623 -1.2603  0.2166
12273TIP3   OH258233   2.794   2.023  14.849 -0.0573  0.5988 -0.3796
12273TIP3    H158234   2.822   1.982  14.767 -1.5468 -1.4465  0.1036
12273TIP3    H258235   2.865   2.003  14.911 -0.5262 -0.8077 -0.2866
12274TIP3   OH258236   6.063   5.598   4.647  0.5853 -0.3207  0.0802
12274TIP3    H158237   5.978   5.625   4.681  0.4933 -0.9980  0.3897
12274TIP3    H258238   6.059   5.618   4.554 -0.8558 -2.6481 -0.4091
12275TIP3   OH258239   4.819   6.456   2.773 -0.1084 -0.1284  0.6515
12275TIP3    H158240   4.848   6.540   2.808 -0.0050  0.5853 -1.0875
12275TIP3    H258241   4.896   6.399   2.781 -0.0662  0.0384  1.4916
12276TIP3   OH258242   5.958   0.174   1.084  0.7506 -0.1628  0.3524
12276TIP3    H158243   5.999   0.184   1.170 -0.1421  1.2424  0.6204
12276TIP3    H258244   5.983   0.253   1.036 -1.6818  0.7706  0.5482
12277TIP3   OH258245   4.788   4.867  12.307  0.5918 -0.0769 -0.1412
12277TIP3    H158246   4.729   4.845  12.235 -1.4013  1.3598  1.0106
12277TIP3    H258247   4.789   4.789  12.362  0.0029 -0.2227 -0.3351
12278TIP3   OH258248   3.727   5.536  15.768 -0.1454  0.6436  0.0311
12278TIP3    H158249   3.689   5.449  15.781  0.8118  0.2902  0.4925
12278TIP3    H258250   3.780   5.528  15.689 -0.6374  1.0064 -0.3387
12279TIP3   OH258251   5.060   1.123   0.561  0.7462  0.2734  0.4518
12279TIP3    H158252   5.038   1.033   0.585 -0.3592 -0.2033 -2.1659
12279TIP3    H258253   5.040   1.174   0.640 -0.4359 -1.5184  1.3613
12280TIP3   OH258254   4.188   1.665   4.207 -0.5683 -0.2859 -0.0287
12280TIP3    H158255   4.269   1.653   4.256 -0.6870  0.5246  0.3797
12280TIP3    H258256   4.163   1.756   4.223 -3.1367 -1.3250  2.2318
12281TIP3   OH258257   4.771   3.626   1.824  0.2452 -0.0631 -0.1610
12281TIP3    H158258   4.765   3.531   1.810  0.4885 -0.5335  2.6516
12281TIP3    H258259   4.828   3.657   1.754  0.6925 -2.0849 -0.7204
12282TIP3   OH258260   0.427   0.474  15.037  0.5915  0.6812 -0.0421
12282TIP3    H158261   0.367   0.468  15.111  0.0363  0.9446 -0.4649
12282TIP3    H258262   0.375   0.447  14.962  1.7967 -1.8710 -0.0182
12283TIP3   OH258263   1.816   0.486  16.547  0.0884 -0.5383 -0.0157
12283TIP3    H158264   1.800   0.394  16.526 -0.0401 -0.7483  0.9910
12283TIP3    H258265   1.759   0.504  16.623 -2.8674  1.4078 -2.5402
12284TIP3   OH258266   0.777   0.737  16.382 -0.6044 -0.7534 -0.0205
12284TIP3    H158267   0.771   0.709  16.473 -2.0776 -1.1826 -0.2261
12284TIP3    H258268   0.772   0.656  16.332  1.7506 -0.6467 -0.4513
12285TIP3   OH258269   4.138   2.202   1.451 -0.0964  0.2606 -0.1703
12285TIP3    H158270   4.118   2.178   1.361 -2.6355  1.1885  0.1053
12285TIP3    H258271   4.225   2.241   1.447  0.9989 -2.2230 -1.7499
12286TIP3   OH258272   2.566   0.176  12.771 -0.2993  0.3376 -0.6646
12286TIP3    H158273   2.621   0.137  12.839  1.1336  2.5913 -0.4931
12286TIP3    H258274   2.478   0.176  12.808 -0.3481 -2.6703 -0.6725
12287TIP3   OH258275   6.687   4.077   5.168  0.0032 -0.2094  0.9263
12287TIP3    H158276   6.620   4.010   5.184 -0.6241  0.6914  2.1652
12287TIP3    H258277   6.637   4.158   5.160  0.7620  0.1198 -0.5822
12288TIP3   OH258278   1.850   4.181  13.543 -0.1865 -0.2558 -0.0296
12288TIP3    H158279   1.930   4.161  13.493  0.4541  1.8263  0.1284
12288TIP3    H258280   1.800   4.240  13.486 -1.6215 -1.5314 -0.1202
12289TIP3   OH258281   6.080   6.412  16.336 -0.6555 -0.0727 -0.2326
12289TIP3    H158282   6.051   6.489  16.385  0.0155  0.2461 -0.3431
12289TIP3    H258283   5.998   6.367  16.313 -0.8958 -2.1938  4.2534
12290TIP3   OH258284   3.052   2.709  13.999 -0.6419 -0.1914  0.2011
12290TIP3    H158285   2.995   2.691  14.074  0.6161  0.1258  1.2560
12290TIP3    H258286   3.098   2.790  14.023 -1.7980  1.1133 -1.8579
12291TIP3   OH258287   5.347   3.602  11.760 -0.4936 -0.2773 -0.1705
12291TIP3    H158288   5.277   3.643  11.811 -0.0344  0.0378  0.2088
12291TIP3    H258289   5.394   3.548  11.823  0.4331  0.5710 -0.1366
12292TIP3   OH258290   4.301   5.013   5.378  0.2797  0.1565 -0.8085
12292TIP3    H158291   4.237   4.981   5.441  1.2963  1.1651  0.7892
12292TIP3    H258292   4.249   5.049   5.306 -0.9023 -0.7799 -0.4371
12293TIP3   OH258293   1.452   0.597   5.541 -0.2454 -0.2235  0.2976
12293TIP3    H158294   1.505   0.564   5.613  0.1083  0.3420  0.2983
12293TIP3    H258295   1.375   0.541   5.540  0.4921 -1.2348  0.1143
12294TIP3   OH258296   2.567   5.118   1.325 -0.4351  0.0517  0.0542
12294TIP3    H158297   2.607   5.153   1.405  0.5723 -0.6104 -0.1545
12294TIP3    H258298   2.476   5.103   1.349 -0.1442 -0.1159  1.0826
12295TIP3   OH258299   5.641   5.645  14.933  0.0111 -0.6437 -0.3673
12295TIP3    H158300   5.594   5.679  15.010  1.0554  0.0404 -0.0272
12295TIP3    H258301   5.729   5.625  14.965  1.0858  1.5403 -1.8274
12296TIP3   OH258302   1.175   2.268   2.244 -0.1061 -0.0038  0.1717
12296TIP3    H158303   1.133   2.226   2.169 -0.9860  2.1194 -0.5903
12296TIP3    H258304   1.158   2.210   2.318 -1.2794 -0.9598 -0.8432
12297TIP3   OH258305   3.602   2.097   1.147  0.4839  0.6099 -0.7795
12297TIP3    H158306   3.628   2.132   1.232 -1.1353  0.7764 -0.3267
12297TIP3    H258307   3.646   2.013   1.141  1.5224  1.1130 -0.2768
12298TIP3   OH258308   5.664   6.674   2.022 -0.1159 -0.5504 -0.6859
12298TIP3    H158309   5.737   6.661   2.083 -0.0145 -0.9174 -0.8871
12298TIP3    H258310   5.589   6.695   2.078 -0.4229 -2.5324 -0.3150
12299TIP3   OH258311   4.328   3.687  11.200 -0.2195 -0.1618  0.0991
12299TIP3    H158312   4.289   3.674  11.286 -1.7585  0.2430 -0.5245
12299TIP3    H258313   4.264   3.739  11.151  1.7198  1.7196 -0.5091
12300TIP3   OH258314   6.537   1.107   6.250 -0.0231 -0.1382 -0.2419
12300TIP3    H158315   6.539   1.024   6.202 -0.3893 -0.2196 -0.1248
12300TIP3    H258316   6.605   1.161   6.210  0.8914 -0.8538  0.3413
12301TIP3   OH258317   6.310   0.862  16.285 -0.1249 -0.0278  0.3091
12301TIP3    H158318   6.273   0.819  16.362 -0.6421 -1.1786 -0.5694
12301TIP3    H258319   6.235   0.880  16.229  0.3065  0.4291 -0.1213
12302TIP3   OH258320   6.428   4.444  12.814 -0.2215 -0.0618  0.0945
12302TIP3    H158321   6.476   4.516  12.856 -1.0150  1.5084 -1.6282
12302TIP3    H258322   6.340   4.450  12.851  0.1301 -1.1743  1.1433
12303TIP3   OH258323   1.469   5.847   3.642 -0.0056  0.0603 -0.1281
12303TIP3    H158324   1.543   5.854   3.702  0.4318  2.7710 -0.9062
12303TIP3    H258325   1.507   5.820   3.559 -0.0150  0.4162 -0.2509
12304TIP3   OH258326   5.841   4.836   1.422 -0.3353 -0.0939  0.0244
12304TIP3    H158327   5.790   4.783   1.483  0.0014  0.1719  0.5399
12304TIP3    H258328   5.824   4.797   1.336 -1.9537  0.4122  0.0989
12305TIP3   OH258329   0.246   2.846  15.377 -0.9473  0.0394  0.3111
12305TIP3    H158330   0.229   2.938  15.393 -0.5346  0.0079  0.9168
12305TIP3    H258331   0.337   2.833  15.401 -0.7849 -0.3657 -0.4798
12306TIP3   OH258332   6.356   0.305   5.086 -0.2293  0.2323  0.3634
12306TIP3    H158333   6.350   0.237   5.154  1.3062 -0.3976 -0.1056
12306TIP3    H258334   6.350   0.387   5.133  0.6176 -0.2041  1.2474
12307TIP3   OH258335   4.429   2.831   3.543  0.6937 -0.3197  0.0090
12307TIP3    H158336   4.415   2.737   3.558  0.2171 -0.1409  0.7122
12307TIP3    H258337   4.522   2.838   3.523  0.2860 -1.2368 -2.4434
12308TIP3   OH258338   5.482   6.463  15.832  0.2178 -0.0054 -0.8811
12308TIP3    H158339   5.456   6.437  15.744  0.2628 -0.1647 -0.8479
12308TIP3    H258340   5.484   6.381  15.882 -0.1207  0.1282 -0.6516
12309TIP3   OH258341   2.481   4.650   0.828 -0.4494  0.4596 -0.1053
12309TIP3    H158342   2.509   4.739   0.807 -2.6040  0.9836 -0.8752
12309TIP3    H258343   2.443   4.656   0.915 -0.3780  0.2562 -0.0597
12310TIP3   OH258344   2.524   0.193   2.283  0.2571 -0.3361  0.6131
12310TIP3    H158345   2.575   0.152   2.352  1.7193 -1.4528 -1.0987
12310TIP3    H258346   2.588   0.222   2.218 -0.9206  2.6419  0.6858
12311TIP3   OH258347   1.853   4.517  12.668 -0.2003  0.0399 -0.1863
12311TIP3    H158348   1.813   4.559  12.592  2.3765  0.3454 -1.4473
12311TIP3    H258349   1.926   4.576  12.692  0.9393 -1.6252  0.5742
12312TIP3   OH258350   2.763   4.168  14.160  0.4437  0.0981 -0.7674
12312TIP3    H158351   2.841   4.211  14.125  0.8732  0.1879  0.2802
12312TIP3    H258352   2.776   4.075  14.142  0.0769  0.2687 -1.9534
12313TIP3   OH258353   5.208   2.273  16.664  0.4666  0.5125  0.4071
12313TIP3    H158354   5.143   2.327  16.709  0.4702  1.2030 -0.4142
12313TIP3    H258355   5.166   2.248  16.582  0.3439 -1.0027  0.9123
12314TIP3   OH258356   3.208   1.845   3.006  0.0001  0.3793  0.0185
12314TIP3    H158357   3.273   1.802   2.951 -0.0718 -0.5628  0.6426
12314TIP3    H258358   3.185   1.925   2.960  1.2056  0.4452 -0.4673
12315TIP3   OH258359   0.833   2.344   0.746  0.0693  0.4946  0.5786
12315TIP3    H158360   0.815   2.261   0.702  1.4496  0.6545 -0.3250
12315TIP3    H258361   0.827   2.324   0.839 -0.9113 -0.3120  0.3420
12316TIP3   OH258362   5.019   5.679   3.172  0.6623 -0.0509 -0.0663
12316TIP3    H158363   4.926   5.696   3.156  0.1574 -1.1034  1.5427
12316TIP3    H258364   5.028   5.685   3.267  2.0500 -0.8236 -0.1361
12317TIP3   OH258365   4.218   0.438   2.127  0.3756  0.1813  0.3100
12317TIP3    H158366   4.272   0.515   2.146  1.1392 -0.1167 -0.5731
12317TIP3    H258367   4.140   0.473   2.085  0.2473  0.5607  0.8654
12318TIP3   OH258368   6.250   0.563   3.802  0.5745  0.3057  0.3980
12318TIP3    H158369   6.201   0.590   3.879  1.5141 -1.1803  1.5426
12318TIP3    H258370   6.184   0.554   3.733 -0.2094  2.0334  0.9078
12319TIP3   OH258371   0.274   4.023   3.691 -0.2126  0.0385 -0.2981
12319TIP3    H158372   0.303   3.974   3.615  0.0365 -1.1807  0.5701
12319TIP3    H258373   0.337   4.001   3.760 -2.6802 -1.9913  1.3784
12320TIP3   OH258374   4.119   4.500  11.309 -0.1999  0.6904 -0.4831
12320TIP3    H158375   4.093   4.535  11.394  1.7362 -2.0614  1.2918
12320TIP3    H258376   4.201   4.545  11.288  1.6613 -1.7770  1.2424
12321TIP3   OH258377   1.678   1.636   2.711  0.4695 -0.8448 -0.1222
12321TIP3    H158378   1.665   1.580   2.635 -1.3595 -0.6022  0.0067
12321TIP3    H258379   1.736   1.705   2.680 -1.2481 -0.0548 -1.6633
12322TIP3   OH258380   5.373   1.128   1.720 -0.2628  0.2139  0.1647
12322TIP3    H158381   5.421   1.129   1.637 -0.9290  0.2727 -0.2199
12322TIP3    H258382   5.294   1.077   1.702 -0.7808  0.8745  0.5570
12323TIP3   OH258383   1.699   4.910  13.562  0.3925  0.0616  0.4605
12323TIP3    H158384   1.605   4.914  13.545  0.2045 -2.1093  0.8799
12323TIP3    H258385   1.708   4.937  13.653  0.2118  0.4987  0.3513
12324TIP3   OH258386   0.323   3.822  13.286  0.2016  0.0481 -0.2644
12324TIP3    H158387   0.405   3.822  13.335 -0.1730 -1.2572  0.3851
12324TIP3    H258388   0.314   3.912  13.255  1.4058  0.4280  0.4424
12325TIP3   OH258389   4.530   3.500  13.911 -0.4949  0.2630  0.2519
12325TIP3    H158390   4.527   3.565  13.841  0.9707 -2.1079 -2.0979
12325TIP3    H258391   4.605   3.525  13.965 -1.0454  1.5310  0.4407
12326TIP3   OH258392   0.112   0.816  15.671 -0.0605  0.9023  0.3147
12326TIP3    H158393   0.200   0.836  15.641 -0.1599  0.7639 -0.0860
12326TIP3    H258394   0.061   0.894  15.649 -0.0342  0.9887  0.5605
12327TIP3   OH258395   4.492   1.734  12.355  0.2365  0.0132  0.6885
12327TIP3    H158396   4.471   1.643  12.377  1.3909 -0.0933  1.4085
12327TIP3    H258397   4.582   1.745  12.385  0.6511  0.9344 -0.8572
12328TIP3   OH258398   3.784   0.313   0.566 -0.2443  0.6000 -0.5265
12328TIP3    H158399   3.735   0.342   0.643  1.6365 -0.1115  0.9487
12328TIP3    H258400   3.727   0.336   0.493 -3.2375 -1.0408  1.1960
12329TIP3   OH258401   1.089   0.017   1.663  0.0075  0.4397 -0.2391
12329TIP3    H158402   1.141   0.035   1.741  2.1765 -1.5620 -1.1521
12329TIP3    H258403   1.074   0.102   1.623  2.0207  1.1306  0.4273
12330TIP3   OH258404   6.181   5.053   2.229 -0.0482  0.5217  0.1562
12330TIP3    H158405   6.236   5.099   2.293 -0.7418  2.2826 -0.4971
12330TIP3    H258406   6.239   5.035   2.156  0.6037 -0.9887  1.0174
12331TIP3   OH258407   4.594   0.883   4.516  0.0312  0.2726  0.0390
12331TIP3    H158408   4.678   0.843   4.496  0.3342  0.5593  0.7363
12331TIP3    H258409   4.570   0.930   4.436 -1.1197 -2.6223 -1.4031
12332TIP3   OH258410   2.537   6.560  10.852 -0.5159  0.0696 -0.9405
12332TIP3    H158411   2.545   6.650  10.822  1.4641  0.6827  1.2206
12332TIP3    H258412   2.585   6.508  10.788  1.3139  1.0079 -0.3552
12333TIP3   OH258413   2.932   2.340  16.291 -0.1738  0.3645 -0.7941
12333TIP3    H158414   2.908   2.269  16.352  0.9942  1.3963  0.9237
12333TIP3    H258415   2.996   2.392  16.340  2.2463  0.1786 -3.6191
12334TIP3   OH258416   4.073   2.983   6.713 -0.3828 -0.2573  0.4211
12334TIP3    H158417   4.068   2.923   6.638 -0.6305 -0.0935  0.3051
12334TIP3    H258418   4.132   2.940   6.774 -1.5928 -1.2733  0.9169
12335TIP3   OH258419   2.425   3.847  16.808 -0.4134 -0.0071 -0.3164
12335TIP3    H158420   2.349   3.796  16.836  0.0664 -0.8167 -0.4594
12335TIP3    H258421   2.464   3.795  16.738  0.1063  0.5527 -0.4459
12336TIP3   OH258422   5.371   1.854   1.832  0.0826  0.4012 -0.1506
12336TIP3    H158423   5.424   1.932   1.849 -0.9187  0.7288  1.7023
12336TIP3    H258424   5.424   1.800   1.774  1.7068  1.4901  0.2868
12337TIP3   OH258425   2.162   5.327  16.485  0.3032  0.6694 -0.0812
12337TIP3    H158426   2.222   5.389  16.445  0.8796  0.0447 -0.1952
12337TIP3    H258427   2.075   5.361  16.465  0.6016  0.7532 -1.2268
12338TIP3   OH258428   2.541   1.897  17.140 -0.1068 -0.0009 -0.2931
12338TIP3    H158429   2.526   1.812  17.180  0.7125 -0.1610 -0.3077
12338TIP3    H258430   2.457   1.921  17.100 -0.4250 -0.6539 -0.0167
12339TIP3   OH258431   2.810   0.281   5.017  0.1563 -0.0519 -0.1860
12339TIP3    H158432   2.724   0.295   5.057 -0.6390  0.8300 -2.1353
12339TIP3    H258433   2.860   0.359   5.040 -0.5046  0.7449 -1.3971
12340TIP3   OH258434   1.538   1.802   3.695  0.2034 -0.0770 -0.0932
12340TIP3    H158435   1.564   1.824   3.605  1.3947 -0.5853  0.1185
12340TIP3    H258436   1.584   1.866   3.749 -0.3200  0.0745  0.1683
12341TIP3   OH258437   1.477   2.967   2.913  0.0480 -0.1456  0.4179
12341TIP3    H158438   1.487   3.001   3.002  1.2200 -0.2963  0.3498
12341TIP3    H258439   1.561   2.984   2.870  0.2253 -1.9269 -0.0181
12342TIP3   OH258440   1.328   6.630  15.455 -0.0450  0.3676  0.5660
12342TIP3    H158441   1.336   6.721  15.483 -1.5504  0.8505 -0.4995
12342TIP3    H258442   1.381   6.624  15.376 -0.4342  0.4888  0.2910
12343TIP3   OH258443   6.423   4.611  11.103 -0.5339 -0.3088 -0.0223
12343TIP3    H158444   6.386   4.675  11.164 -1.5743  1.0384 -2.0129
12343TIP3    H258445   6.375   4.624  11.022 -1.1759 -4.0347 -0.3535
12344TIP3   OH258446   5.748   3.634   0.201 -0.4941 -0.5163  0.2392
12344TIP3    H158447   5.718   3.693   0.271 -2.0452 -0.2263 -0.6402
12344TIP3    H258448   5.819   3.682   0.158 -0.5092 -0.0777  0.6932
12345TIP3   OH258449   3.101   3.903   5.881 -0.1783  0.2894 -0.1753
12345TIP3    H158450   3.154   3.973   5.918  0.0921  0.1745 -0.3372
12345TIP3    H258451   3.112   3.830   5.943  0.4873  0.0110 -0.6075
12346TIP3   OH258452   5.161   1.401  15.235  0.0839  0.3673 -0.3719
12346TIP3    H158453   5.158   1.306  15.241 -1.6004  0.4799  0.9102
12346TIP3    H258454   5.071   1.429  15.251  0.4247  2.1410 -1.4276
12347TIP3   OH258455   2.331   1.496  16.209  0.2450 -0.0316 -0.3892
12347TIP3    H158456   2.356   1.574  16.258 -1.7614  0.6355 -0.4156
12347TIP3    H258457   2.369   1.424  16.259  1.9650  0.9284 -0.2705
12348TIP3   OH258458   0.837   3.914  12.671 -0.0854 -0.2886 -0.6543
12348TIP3    H158459   0.755   3.907  12.622 -0.7039 -0.6884  0.4376
12348TIP3    H258460   0.882   3.831  12.654 -0.5399 -0.6466 -0.1122
12349TIP3   OH258461   3.127   3.990  16.501  0.3558  0.0259  0.5555
12349TIP3    H158462   3.120   3.944  16.417 -1.3718  0.3846  0.4966
12349TIP3    H258463   3.053   4.050  16.502  0.9091  0.7037  1.9343
12350TIP3   OH258464   5.077   3.385  12.294 -0.2018  0.3402 -0.1602
12350TIP3    H158465   5.081   3.467  12.344 -1.1520  1.3072 -1.6038
12350TIP3    H258466   5.048   3.319  12.357  1.2124  0.9843  1.1726
12351TIP3   OH258467   2.054   6.229  14.972  0.6399 -0.4353 -0.0881
12351TIP3    H158468   2.071   6.178  15.052  0.4653  1.2498  1.0411
12351TIP3    H258469   1.960   6.247  14.975  0.7891  0.3574 -0.2417
12352TIP3   OH258470   1.064   0.010  10.959  0.2103 -0.5315  0.2638
12352TIP3    H158471   0.970  -0.004  10.972 -0.2173  0.4004 -1.6517
12352TIP3    H258472   1.092  -0.065  10.907  0.3051 -0.2539 -0.0878
12353TIP3   OH258473   6.725   0.073   1.851 -0.7440  0.1937 -0.4087
12353TIP3    H158474   6.675   0.062   1.932 -2.1181 -0.4936 -1.3399
12353TIP3    H258475   6.757  -0.015   1.831  0.4137  0.5351 -0.1037
12354TIP3   OH258476   1.366   1.959  14.574 -0.0049 -0.8842  0.2604
12354TIP3    H158477   1.440   1.981  14.630  1.4521 -4.5360 -0.1035
12354TIP3    H258478   1.405   1.929  14.492 -1.9609 -0.7072 -0.7909
12355TIP3   OH258479   1.410   0.271   0.018  0.5086 -0.2045  0.1362
12355TIP3    H158480   1.344   0.324  -0.026  0.0746 -0.1540  0.8469
12355TIP3    H258481   1.494   0.307  -0.013  0.2105 -0.5475 -1.0889
12356TIP3   OH258482   4.825   4.483  16.965 -0.0268  0.6711  0.7122
12356TIP3    H158483   4.778   4.459  17.045 -0.8595 -0.3388 -0.0534
12356TIP3    H258484   4.916   4.457  16.981  0.2565  2.4722  2.1442
12357TIP3   OH258485   5.511   0.495   5.785  0.4730 -0.1034  0.2446
12357TIP3    H158486   5.447   0.547   5.736 -0.5738 -0.7524  0.9119
12357TIP3    H258487   5.523   0.543   5.867  2.1419  0.9218 -0.5620
12358TIP3   OH258488   1.191   4.291   1.498 -0.3307 -0.6107 -0.3885
12358TIP3    H158489   1.250   4.355   1.535 -0.8293 -1.6217  2.2398
12358TIP3    H258490   1.164   4.329   1.414  1.4645  1.3373 -0.1168
12359TIP3   OH258491   5.090   4.013   4.524  0.4549 -0.3893 -0.2845
12359TIP3    H158492   5.184   4.005   4.540  0.2782 -1.4179  0.2886
12359TIP3    H258493   5.049   3.983   4.605 -0.3708 -0.7163 -0.8137
12360TIP3   OH258494   4.556   5.534   3.152 -0.9769 -0.5334  0.7230
12360TIP3    H158495   4.530   5.513   3.063 -1.7140 -2.1847  1.2968
12360TIP3    H258496   4.629   5.474   3.170  2.0908  2.6989 -0.1959
12361TIP3   OH258497   1.128   3.584  16.829 -0.2068 -0.0820 -0.1104
12361TIP3    H158498   1.162   3.668  16.799 -1.1458  0.0657 -0.7945
12361TIP3    H258499   1.131   3.589  16.924  0.0286  0.6018 -0.1544
12362TIP3   OH258500   3.497   6.717   5.901  0.1569  0.3590 -0.3181
12362TIP3    H158501   3.455   6.708   5.986 -1.1573 -0.8987 -1.0659
12362TIP3    H258502   3.552   6.639   5.893  0.7911  0.8024 -0.3543
12363TIP3   OH258503   5.777   2.956   3.060 -0.1577 -0.0553  0.1493
12363TIP3    H158504   5.695   2.992   3.093 -0.1758  0.7844 -0.8114
12363TIP3    H258505   5.801   2.890   3.125 -0.8401  0.7053  1.1988
12364TIP3   OH258506   1.352   3.170  12.554 -0.5224  0.0841  0.0078
12364TIP3    H158507   1.280   3.109  12.570 -0.2050 -0.7319 -1.5531
12364TIP3    H258508   1.309   3.252  12.531 -0.9901 -0.7758 -2.3019
12365TIP3   OH258509   0.749   3.805  14.297  0.3512 -0.1454 -0.0444
12365TIP3    H158510   0.812   3.865  14.256  0.0345 -0.6898 -1.3568
12365TIP3    H258511   0.677   3.862  14.325  0.2177  0.1432 -0.9508
12366TIP3   OH258512   0.977   5.660  11.283 -0.4190 -0.4369  0.0528
12366TIP3    H158513   1.020   5.700  11.207  2.1501  0.6766  2.0094
12366TIP3    H258514   1.026   5.579  11.298 -0.5243 -0.3540  0.8599
12367TIP3   OH258515   2.329   4.077  12.851 -0.6234 -0.4517 -0.3581
12367TIP3    H158516   2.385   4.068  12.774 -0.6189  0.5173 -0.4806
12367TIP3    H258517   2.271   4.001  12.848 -0.6505 -0.4004 -1.3452
12368TIP3   OH258518   1.487   0.893   4.903  0.1906  0.6115  0.3229
12368TIP3    H158519   1.480   0.955   4.830 -0.1363 -0.2690 -0.4113
12368TIP3    H258520   1.397   0.883   4.934  0.1708  0.1210  0.1101
12369TIP3   OH258521   5.113   1.341   6.273 -0.1712  0.1044 -0.6613
12369TIP3    H158522   5.202   1.315   6.299 -0.4722 -1.3326 -1.0416
12369TIP3    H258523   5.088   1.277   6.206 -2.5211 -1.1356  1.3393
12370TIP3   OH258524   1.244   6.440   0.897  0.4706 -0.1040  0.2846
12370TIP3    H158525   1.276   6.523   0.932 -0.5561  0.1122  0.7074
12370TIP3    H258526   1.307   6.375   0.929  1.2765  0.5088 -0.0512
12371TIP3   OH258527   4.034   4.010   0.453  0.3116  0.0624 -0.3766
12371TIP3    H158528   4.017   4.065   0.377 -0.4546 -0.6910 -0.7592
12371TIP3    H258529   4.129   4.017   0.467  0.1511  1.9142 -0.0696
12372TIP3   OH258530   4.385   1.770  11.346  0.4448 -0.2096  0.3583
12372TIP3    H158531   4.441   1.839  11.310  0.7882 -0.6023  0.1248
12372TIP3    H258532   4.363   1.716  11.271 -0.8009  0.3156  0.3378
12373TIP3   OH258533   4.952   2.333  16.177 -0.4429 -0.3287 -0.3048
12373TIP3    H158534   4.859   2.322  16.156 -0.9241  0.8893  1.0803
12373TIP3    H258535   4.978   2.410  16.126 -0.2738 -0.5055 -0.4813
12374TIP3   OH258536   4.893   3.966   1.302 -0.4162 -0.3808 -0.6510
12374TIP3    H158537   4.988   3.962   1.312 -0.4054  0.3680 -0.3885
12374TIP3    H258538   4.874   4.059   1.288 -1.1205 -0.5015 -0.5413
12375TIP3   OH258539   0.141   3.932  16.773  0.5248  0.4092 -0.1615
12375TIP3    H158540   0.138   3.895  16.861 -1.3487 -1.2691 -0.8756
12375TIP3    H258541   0.233   3.928  16.747  0.8868 -0.2743  1.2267
12376TIP3   OH258542   1.746   2.133  16.509 -0.4371 -0.0976  0.7016
12376TIP3    H158543   1.666   2.183  16.497  1.0682  2.1196 -0.5457
12376TIP3    H258544   1.727   2.047  16.473 -2.2029  0.4253  0.3480
12377TIP3   OH258545   2.140   3.156   5.526  0.1455 -0.3551  0.0236
12377TIP3    H158546   2.057   3.141   5.481  0.3322  1.5327 -1.0120
12377TIP3    H258547   2.146   3.086   5.591 -1.3115 -1.6625 -1.2333
12378TIP3   OH258548   4.293   3.936   1.097 -0.9262 -0.3548 -0.3760
12378TIP3    H158549   4.210   3.906   1.134 -0.3264 -1.4648  0.0977
12378TIP3    H258550   4.279   3.936   1.003 -1.4866 -0.4752 -0.2943
12379TIP3   OH258551   3.726   0.570  16.219 -0.0703  0.3576 -0.1671
12379TIP3    H158552   3.648   0.615  16.188  0.2516  0.6189 -0.6108
12379TIP3    H258553   3.699   0.478  16.228 -0.2264  0.3095 -1.0394
12380TIP3   OH258554   0.433   2.740  16.747 -0.4162 -0.5827  0.2077
12380TIP3    H158555   0.445   2.812  16.684 -0.0597 -0.1330  0.7792
12380TIP3    H258556   0.477   2.771  16.826 -0.6305 -1.2620  0.5901
12381TIP3   OH258557   3.815   4.737  12.850 -0.2104 -0.4844  0.8242
12381TIP3    H158558   3.789   4.696  12.768 -0.2905 -0.2420  0.7271
12381TIP3    H258559   3.842   4.664  12.906 -1.6292 -0.7897  1.1269
12382TIP3   OH258560   0.688   3.344  11.667 -0.0863 -0.6956 -0.1296
12382TIP3    H158561   0.646   3.261  11.647 -0.2251 -0.3762 -1.1674
12382TIP3    H258562   0.629   3.411  11.632  1.0830 -0.2283 -1.2550
12383TIP3   OH258563   6.486   5.465   4.216  0.1620  0.1483 -0.4753
12383TIP3    H158564   6.479   5.417   4.134 -0.5856 -0.2457 -0.1876
12383TIP3    H258565   6.578   5.490   4.222  0.5970 -1.4268 -0.5295
12384TIP3   OH258566   5.922   2.315   5.290 -0.4433 -0.5312  0.4745
12384TIP3    H158567   5.943   2.287   5.379  0.5819  1.2732  0.8143
12384TIP3    H258568   5.832   2.285   5.277 -0.3673 -1.4182  1.8641
12385TIP3   OH258569   4.268   1.472  14.495 -0.7203  0.0113  0.0657
12385TIP3    H158570   4.197   1.535  14.506  1.1365  2.1085  0.4068
12385TIP3    H258571   4.228   1.387  14.514 -3.3133  1.0532 -0.5739
12386TIP3   OH258572   2.351   4.100  12.552  0.1547  0.5272 -0.9975
12386TIP3    H158573   2.282   4.035  12.562  0.4569  0.3291 -0.1806
12386TIP3    H258574   2.310   4.171  12.501 -0.3004 -0.0994 -1.5057
12387TIP3   OH258575   4.195   2.347   4.304 -0.1409  0.2775 -0.3510
12387TIP3    H158576   4.150   2.266   4.326 -1.1945  1.0174  0.3288
12387TIP3    H258577   4.135   2.416   4.334  0.8148  1.2972 -0.7404
12388TIP3   OH258578   0.357   0.141  12.443 -0.0177  0.5144 -0.2135
12388TIP3    H158579   0.278   0.109  12.399 -0.0937  0.9028 -0.3570
12388TIP3    H258580   0.429   0.099  12.397 -0.1507 -0.1061  0.1309
12389TIP3   OH258581   3.870   1.115  11.854 -0.2128 -0.5425  0.1195
12389TIP3    H158582   3.827   1.115  11.940  0.2157 -4.0640  0.4112
12389TIP3    H258583   3.920   1.033  11.853  1.1579  0.2995 -2.8257
12390TIP3   OH258584   2.205   0.732  11.677  0.3159  0.0022  0.4526
12390TIP3    H158585   2.267   0.805  11.676  2.2215 -1.5668  0.8367
12390TIP3    H258586   2.193   0.709  11.585 -0.5660  1.0141  0.3091
12391TIP3   OH258587   6.786   0.268   1.246  0.1747  0.2409 -0.7329
12391TIP3    H158588   6.741   0.344   1.283 -0.3502  0.4961 -1.8677
12391TIP3    H258589   6.718   0.200   1.241  0.2434  0.2033 -1.1987
12392TIP3   OH258590   4.864   1.217   0.029 -0.8111  0.5179  0.2308
12392TIP3    H158591   4.905   1.183  -0.051  0.2351  1.5416  0.3236
12392TIP3    H258592   4.905   1.167   0.099  0.0693  1.3075  0.2974
12393TIP3   OH258593   5.517   4.212   0.125  0.2519  0.0669  0.4452
12393TIP3    H158594   5.545   4.193   0.036 -0.8044 -0.0596  0.1291
12393TIP3    H258595   5.504   4.307   0.128  0.8025  0.1342  0.6127
12394TIP3   OH258596   2.152   0.936   1.768  0.9463 -0.2249 -0.1402
12394TIP3    H158597   2.064   0.954   1.736  1.0733 -0.9875 -0.9640
12394TIP3    H258598   2.205   1.009   1.736  0.8362 -0.3698 -0.6651
12395TIP3   OH258599   5.398   1.031   5.987  0.0675  0.0707  0.1332
12395TIP3    H158600   5.459   0.974   5.939  1.1064  0.3939  1.0425
12395TIP3    H258601   5.367   0.976   6.059 -0.1733  0.1317  0.0742
12396TIP3   OH258602   4.729   2.199  16.374  0.3026 -0.3246 -0.1574
12396TIP3    H158603   4.634   2.199  16.380  0.4035 -0.6961  1.4646
12396TIP3    H258604   4.748   2.141  16.300 -0.7623  0.7422 -1.2837
12397TIP3   OH258605   4.030   5.320  13.513 -0.5112  0.2246 -0.7154
12397TIP3    H158606   3.994   5.279  13.434 -2.5880 -0.1281  0.3703
12397TIP3    H258607   3.954   5.334  13.569  1.0572 -0.4129  1.6418
12398TIP3   OH258608   6.329   4.747   1.921 -0.0178  0.1074 -0.2978
12398TIP3    H158609   6.376   4.721   2.000 -1.4688  0.0725  0.5807
12398TIP3    H258610   6.241   4.771   1.952 -0.4101  0.7063 -1.8137
12399TIP3   OH258611   1.141   2.308  15.615  0.1592  0.9788  1.3240
12399TIP3    H158612   1.132   2.250  15.540  1.4005  0.1064  1.8365
12399TIP3    H258613   1.206   2.372  15.589  1.0068  0.3440  1.8377
12400TIP3   OH258614   5.638   4.967  14.655 -0.6040  0.1260 -0.0929
12400TIP3    H158615   5.723   4.943  14.692 -1.0601  0.3084  1.1024
12400TIP3    H258616   5.626   4.907  14.582  1.0761  0.8586 -0.9995
12401TIP3   OH258617   3.810   0.718  14.460 -0.2363 -0.2640 -0.1639
12401TIP3    H158618   3.834   0.789  14.519 -1.4051  2.4853 -2.8834
12401TIP3    H258619   3.765   0.654  14.516  0.0631  1.5160  2.1759
12402TIP3   OH258620   5.614   3.637  12.756  0.3428  0.0803 -0.2837
12402TIP3    H158621   5.539   3.626  12.698  1.0294  0.2836 -1.2162
12402TIP3    H258622   5.688   3.600  12.708  0.6503 -1.1202  1.0735
12403TIP3   OH258623   2.097   0.274  15.811  0.7053  0.4628  0.4142
12403TIP3    H158624   2.182   0.264  15.768  0.3793  1.8238 -0.5853
12403TIP3    H258625   2.041   0.210  15.768  1.5077 -1.3235  1.9318
12404TIP3   OH258626   3.222   4.697   2.122 -0.4645  0.0458  0.3902
12404TIP3    H158627   3.271   4.738   2.193 -0.0967 -0.3339  0.3577
12404TIP3    H258628   3.281   4.631   2.086 -0.5574  0.3961 -0.4269
12405TIP3   OH258629   6.108   3.463   1.095  0.0992  0.3362  0.1661
12405TIP3    H158630   6.024   3.424   1.068 -0.4144  3.0183 -2.3729
12405TIP3    H258631   6.151   3.394   1.146 -1.6167 -2.8164 -2.4491
12406TIP3   OH258632   3.891   0.533   6.463  0.0529 -0.6860 -0.3281
12406TIP3    H158633   3.876   0.537   6.558 -0.4734  1.5991 -0.4757
12406TIP3    H258634   3.812   0.569   6.425  0.3690 -1.3702 -1.6500
12407TIP3   OH258635   6.552   0.721  13.742  0.1569 -0.2192  0.0634
12407TIP3    H158636   6.621   0.655  13.756 -0.4045 -0.6567  0.8409
12407TIP3    H258637   6.471   0.670  13.741 -0.0124  0.0089 -3.0854
12408TIP3   OH258638   5.480   4.059   0.862 -0.3269 -0.1353  0.2058
12408TIP3    H158639   5.537   4.103   0.798 -1.4443 -0.4745 -1.0513
12408TIP3    H258640   5.540   4.010   0.918  0.6612 -0.0128 -0.7261
12409TIP3   OH258641   1.416   6.413   2.775 -0.4731  0.5328  0.1139
12409TIP3    H158642   1.351   6.367   2.829  1.9440 -2.1055  0.9073
12409TIP3    H258643   1.390   6.393   2.685 -1.7670  0.9751  0.3738
12410TIP3   OH258644   2.427   3.202  14.891  0.0455 -0.0691  0.3025
12410TIP3    H158645   2.386   3.151  14.822  0.1191 -1.5220  1.3224
12410TIP3    H258646   2.391   3.291  14.879 -0.8053 -0.5589 -0.8826
12411TIP3   OH258647   4.702   1.911   4.564 -0.9475  0.5119 -0.3330
12411TIP3    H158648   4.694   1.853   4.640  1.4401 -0.2415 -0.6292
12411TIP3    H258649   4.722   1.997   4.602  1.4848 -0.1145 -0.1145
12412TIP3   OH258650   5.249   1.884   3.646 -0.2328 -0.5281 -0.8936
12412TIP3    H158651   5.334   1.912   3.612  1.5670 -0.3880  3.3366
12412TIP3    H258652   5.259   1.790   3.661 -1.1387 -0.6830 -1.2404
12413TIP3   OH258653   2.580   1.932  16.009 -0.0284  0.2949 -0.2036
12413TIP3    H158654   2.617   2.015  15.980 -0.9915  1.1263  0.8894
12413TIP3    H258655   2.512   1.912  15.945  0.7516 -0.0789 -0.9258
12414TIP3   OH258656   5.276   6.087  12.689  0.3299 -0.0158  0.1804
12414TIP3    H158657   5.263   6.155  12.755 -0.5215  1.0453 -1.0451
12414TIP3    H258658   5.295   6.136  12.608 -0.7299 -1.1934 -0.8072
12415TIP3   OH258659   1.674   4.190   0.600  0.3739  0.5407 -0.0919
12415TIP3    H158660   1.659   4.096   0.591  0.5935  0.5148 -0.1903
12415TIP3    H258661   1.613   4.230   0.539 -1.2892  0.5597  1.5639
12416TIP3   OH258662   5.816   4.403   5.216  0.6263  0.3019  0.1266
12416TIP3    H158663   5.743   4.462   5.236 -0.3739 -0.1724 -1.9868
12416TIP3    H258664   5.787   4.354   5.139  3.0188 -0.1603 -0.5282
12417TIP3   OH258665   2.293   0.786   3.671 -0.0067 -0.1375 -0.2639
12417TIP3    H158666   2.295   0.880   3.653 -0.0720  0.0272  0.5542
12417TIP3    H258667   2.367   0.772   3.731 -0.0507 -0.5947 -0.3160
12418TIP3   OH258668   1.348   3.531  16.191 -0.3996  0.3866  0.3327
12418TIP3    H158669   1.377   3.499  16.276 -2.2702 -0.3162  0.7395
12418TIP3    H258670   1.299   3.611  16.211  2.2318  2.2730 -0.4608
12419TIP3   OH258671   3.732   6.410  17.103 -0.1954 -0.1235 -0.2675
12419TIP3    H158672   3.801   6.345  17.093 -1.2243 -1.2473 -0.2402
12419TIP3    H258673   3.761   6.485  17.052  2.1453  0.3346  1.6445
12420TIP3   OH258674   1.385   5.361  10.612 -0.6035 -0.0839  0.5974
12420TIP3    H158675   1.354   5.436  10.560 -1.3126  0.0559  1.2047
12420TIP3    H258676   1.460   5.395  10.661 -0.6638  0.1195  0.5512
12421TIP3   OH258677   4.369   4.394   4.150 -0.0897 -0.1513 -0.0724
12421TIP3    H158678   4.428   4.370   4.079 -0.1773  0.0113 -0.1997
12421TIP3    H258679   4.298   4.442   4.107  1.0595  2.0292  0.4247
12422TIP3   OH258680   4.174   6.400  11.722 -0.5459 -0.0978  0.3644
12422TIP3    H158681   4.095   6.450  11.743  0.5871  1.7140  0.4379
12422TIP3    H258682   4.202   6.361  11.805 -1.0087 -0.2206  0.4616
12423TIP3   OH258683   4.402   0.865  12.396 -0.8509  0.4937  0.1337
12423TIP3    H158684   4.411   0.843  12.488  2.3110 -0.3126 -0.3180
12423TIP3    H258685   4.322   0.918  12.392 -1.5727 -0.2759  3.1541
12424TIP3   OH258686   3.914   5.245  11.991 -0.4632  0.4666 -0.1685
12424TIP3    H158687   3.877   5.161  11.962  0.3769 -0.0667  0.2732
12424TIP3    H258688   3.843   5.288  12.038 -0.7476 -0.2372  0.0551
12425TIP3   OH258689   5.522   6.627   5.791  0.6825 -0.0310 -0.1336
12425TIP3    H158690   5.468   6.657   5.863 -1.0672 -2.2883 -0.4457
12425TIP3    H258691   5.475   6.654   5.712  1.2838  0.1629 -0.4371
12426TIP3   OH258692   3.107   2.887   4.896  0.1401  0.0657  0.2740
12426TIP3    H158693   3.098   2.791   4.900 -1.2191  0.1207 -0.8671
12426TIP3    H258694   3.179   2.902   4.835  0.7044 -0.2297  0.8582
12427TIP3   OH258695   0.930   2.928   0.966  0.5685 -0.4148  0.2938
12427TIP3    H158696   0.901   2.878   0.889 -0.7728  0.5167  0.1750
12427TIP3    H258697   0.955   3.013   0.931  2.7413 -0.9313  0.5179
12428TIP3   OH258698   4.844   5.502  11.357  0.0954 -0.0320 -0.1176
12428TIP3    H158699   4.904   5.528  11.427  1.0421  0.6412 -1.1631
12428TIP3    H258700   4.890   5.524  11.277 -0.3982 -2.0244 -0.9934
12429TIP3   OH258701   3.384   5.778   0.594  0.3577 -0.0552  0.2611
12429TIP3    H158702   3.385   5.683   0.585  1.0053  0.0470 -0.7846
12429TIP3    H258703   3.344   5.793   0.680 -0.2702 -1.2449  0.1884
12430TIP3   OH258704   3.006   4.734   2.303  0.2273 -0.5631 -0.1694
12430TIP3    H158705   2.997   4.641   2.327  1.3979 -0.7201 -0.3278
12430TIP3    H258706   3.058   4.732   2.223  0.5822  0.2656  0.0469
12431TIP3   OH258707   1.249   0.063   4.821  0.2942  0.2766 -0.2242
12431TIP3    H158708   1.169   0.113   4.837 -0.7335 -0.5996 -2.4757
12431TIP3    H258709   1.252   0.001   4.894 -0.4228  1.1070  0.5326
12432TIP3   OH258710   3.101   2.953  12.640 -0.5985 -0.4077 -0.0384
12432TIP3    H158711   3.191   2.932  12.616 -0.1106 -0.5180  1.8222
12432TIP3    H258712   3.062   2.986  12.559  1.0728 -0.4408 -0.8861
12433TIP3   OH258713   6.711   6.356  12.230 -0.5091 -0.3803 -0.1092
12433TIP3    H158714   6.707   6.386  12.321  0.9349 -0.7892  0.0919
12433TIP3    H258715   6.789   6.301  12.225 -0.3756 -0.0807 -1.6905
12434TIP3   OH258716   2.849   5.841  13.364  0.2071  0.3402 -0.4825
12434TIP3    H158717   2.936   5.812  13.337  0.3674 -0.3446  0.7495
12434TIP3    H258718   2.815   5.770  13.418 -1.0053  0.7248 -0.7182
12435TIP3   OH258719   5.568   5.944  11.332 -0.1338  0.0639 -0.3427
12435TIP3    H158720   5.494   5.888  11.354  0.1158 -0.5759 -1.1283
12435TIP3    H258721   5.533   6.007  11.270  0.3322 -1.1892 -1.9043
12436TIP3   OH258722   1.058   2.347  14.338 -0.0016 -0.0223  0.1070
12436TIP3    H158723   1.151   2.338  14.357 -0.1126 -1.8496 -0.1368
12436TIP3    H258724   1.054   2.368  14.245  0.1902  1.0057  0.3205
12437TIP3   OH258725   6.123   6.266  11.026  0.5191 -0.3120 -0.1350
12437TIP3    H158726   6.032   6.273  10.997  0.3815  0.4862  0.4857
12437TIP3    H258727   6.173   6.311  10.959  0.0835  2.6505  1.4597
12438TIP3   OH258728   3.359   4.968   5.464  0.5233 -0.0193 -0.6469
12438TIP3    H158729   3.413   4.938   5.391  0.0151  0.8020 -1.3630
12438TIP3    H258730   3.416   5.026   5.514  0.4238  0.5305 -1.1761
12439TIP3   OH258731   4.559   0.342  10.562  0.1566  0.0714 -0.1268
12439TIP3    H158732   4.583   0.431  10.587 -2.0217  0.2332  1.5409
12439TIP3    H258733   4.464   0.345  10.550  0.1260 -1.9013 -0.6006
12440TIP3   OH258734   3.973   0.711   1.457  0.3735  0.0852  0.0002
12440TIP3    H158735   3.982   0.719   1.362 -0.0327 -1.8440 -0.2338
12440TIP3    H258736   3.880   0.691   1.471  1.1707 -3.6793  0.4292
12441TIP3   OH258737   5.834   0.397  11.619  0.8858 -0.4418 -0.1403
12441TIP3    H158738   5.888   0.434  11.690  1.3141  0.4033 -0.8804
12441TIP3    H258739   5.815   0.473  11.563  1.8303 -1.3574 -1.7335
12442TIP3   OH258740   5.853   5.284  16.393  0.6050  0.0242 -0.4923
12442TIP3    H158741   5.917   5.339  16.347 -0.8955  1.2826 -1.1545
12442TIP3    H258742   5.904   5.237  16.459  2.1149  1.3990 -0.6422
12443TIP3   OH258743   3.276   4.570  10.829 -0.5354  0.4785  0.4973
12443TIP3    H158744   3.358   4.620  10.830 -1.4167  1.9724  1.3362
12443TIP3    H258745   3.265   4.541  10.920 -0.0650 -1.1983  0.0232
12444TIP3   OH258746   3.880   1.503  14.567  0.4162 -0.0866 -0.7489
12444TIP3    H158747   3.942   1.445  14.611  0.0189 -0.7487 -1.0572
12444TIP3    H258748   3.905   1.500  14.475 -1.3053 -1.9609 -1.2012
12445TIP3   OH258749   1.788   4.792  15.358  0.3867  0.0819 -0.4013
12445TIP3    H158750   1.704   4.836  15.347 -0.0293 -0.9215 -1.3037
12445TIP3    H258751   1.765   4.700  15.373  1.3047 -0.0962 -0.0224
12446TIP3   OH258752   1.328   0.178  15.211  0.4391  0.3206  0.2345
12446TIP3    H158753   1.358   0.196  15.300  0.9082  0.6702  0.0083
12446TIP3    H258754   1.283   0.257  15.184  0.4422  0.2771  0.1005
12447TIP3   OH258755   2.585   0.581   3.243  0.3078  0.0083  0.0957
12447TIP3    H158756   2.666   0.624   3.269 -0.1544 -0.1271  1.8493
12447TIP3    H258757   2.574   0.602   3.150 -0.2665  4.3063  1.0521
12448TIP3   OH258758   5.310   3.704  10.786 -0.2552 -0.4540 -0.0193
12448TIP3    H158759   5.349   3.715  10.699  1.7266 -0.6419  0.8127
12448TIP3    H258760   5.371   3.647  10.832 -1.4485 -0.6069  1.4082
12449TIP3   OH258761   5.639   1.761  14.121 -0.8884 -0.1864  0.0386
12449TIP3    H158762   5.581   1.711  14.180 -1.5044 -0.5769 -0.8817
12449TIP3    H258763   5.639   1.710  14.039 -1.9968  1.6307 -1.1159
12450TIP3   OH258764   5.343   1.184   4.668 -0.9763  0.2142  0.1120
12450TIP3    H158765   5.376   1.123   4.734 -0.6463 -0.4962 -0.6960
12450TIP3    H258766   5.421   1.233   4.640 -1.1770  0.7522  0.5025
12451TIP3   OH258767   6.211   3.007   5.697 -0.4410  0.2442 -0.8077
12451TIP3    H158768   6.193   3.037   5.608 -0.5406  0.8339 -0.5865
12451TIP3    H258769   6.227   3.087   5.747 -0.7756 -0.0638 -0.2071
12452TIP3   OH258770   6.132   0.023  15.202 -0.2886  0.0919  0.1430
12452TIP3    H158771   6.037   0.023  15.198 -0.2364 -0.2225 -1.3936
12452TIP3    H258772   6.158   0.110  15.171 -0.1577  1.2929  3.4907
12453TIP3   OH258773   6.105   0.368  11.505 -0.4786  0.0247 -0.1092
12453TIP3    H158774   6.154   0.322  11.573 -0.4263  0.5521  0.2107
12453TIP3    H258775   6.034   0.309  11.482  0.1097 -0.6032 -0.3376
12454TIP3   OH258776   5.677   5.017   5.774 -0.1489  0.3753  0.5828
12454TIP3    H158777   5.681   4.925   5.751 -0.2530  0.3676  0.5938
12454TIP3    H258778   5.603   5.052   5.723  0.4546  0.6555 -0.1078
12455TIP3   OH258779   1.879   1.378  12.530 -0.1204  0.0293  0.1891
12455TIP3    H158780   1.944   1.445  12.507 -1.1266  0.6277 -1.0299
12455TIP3    H258781   1.867   1.388  12.624 -0.0146  1.3583  0.0743
12456TIP3   OH258782   0.135   2.172  10.982 -0.3698 -0.3311  0.4882
12456TIP3    H158783   0.078   2.228  11.034 -2.0007 -0.5213 -1.0331
12456TIP3    H258784   0.128   2.207  10.893  0.1061 -1.7556 -0.1330
12457TIP3   OH258785   4.118   2.368   0.740 -0.9041 -0.1306 -0.1181
12457TIP3    H158786   4.038   2.418   0.724  0.0401  1.5106  0.1429
12457TIP3    H258787   4.183   2.435   0.762  0.4837 -1.4662 -0.1317
12458TIP3   OH258788   0.184   1.052  16.171 -0.5628  0.4164  0.1719
12458TIP3    H158789   0.211   1.141  16.193  0.3905  0.1187  0.2243
12458TIP3    H258790   0.088   1.056  16.167 -0.4661  1.6585 -0.8013
12459TIP3   OH258791   1.913   6.613   5.746  0.0765  0.1974  0.0252
12459TIP3    H158792   1.965   6.544   5.704  0.0046  0.8066 -1.0670
12459TIP3    H258793   1.836   6.568   5.780  0.9966 -0.6049  1.0801
12460TIP3   OH258794   3.299   4.654  11.843  0.7901  0.5412  0.1794
12460TIP3    H158795   3.349   4.732  11.819  0.5116  0.7961  0.4100
12460TIP3    H258796   3.278   4.612  11.760  1.6635  0.2556  0.0980
12461TIP3   OH258797   3.557   5.551   1.629 -0.2505 -0.2485  0.0372
12461TIP3    H158798   3.504   5.628   1.609  0.1140 -0.4656 -1.7965
12461TIP3    H258799   3.643   5.586   1.651 -0.2714 -0.0973 -0.1185
12462TIP3   OH258800   3.566   4.021  13.533  0.5874  0.0596  0.3805
12462TIP3    H158801   3.527   4.038  13.618  1.5598  2.3196  0.3966
12462TIP3    H258802   3.569   4.106  13.490  0.0987 -1.0542 -1.9339
12463TIP3   OH258803   5.645   2.564  11.050 -0.0992 -0.3176 -0.1714
12463TIP3    H158804   5.557   2.578  11.015 -1.1814 -2.2016  1.6992
12463TIP3    H258805   5.675   2.484  11.008 -0.2533 -0.9944  0.9859
12464TIP3   OH258806   2.219   4.335   4.801  0.6539  0.3289 -0.1970
12464TIP3    H158807   2.271   4.276   4.854 -1.1322 -2.4524 -1.4451
12464TIP3    H258808   2.183   4.398   4.864  1.4835 -0.7130  1.3581
12465TIP3   OH258809   1.791   0.001  16.018 -0.1565 -0.1925 -0.0743
12465TIP3    H158810   1.720  -0.028  16.076 -0.7202  0.8665 -0.2084
12465TIP3    H258811   1.748   0.017  15.934 -0.2788  2.9560  0.5250
12466TIP3   OH258812   1.509   5.009  16.288  0.6795  0.1124 -0.4542
12466TIP3    H158813   1.587   5.064  16.294  0.7675  0.3276 -3.0264
12466TIP3    H258814   1.542   4.920  16.295  0.9387  0.2715  0.3425
12467TIP3   OH258815   5.193   0.519  11.399  0.1818 -0.8945  0.5510
12467TIP3    H158816   5.115   0.571  11.418  0.3056 -0.8854  1.0566
12467TIP3    H258817   5.264   0.583  11.395 -0.0156 -0.7631 -1.0893
12468TIP3   OH258818   1.395   5.621   0.548 -0.2969  0.0190  0.3036
12468TIP3    H158819   1.333   5.691   0.569 -0.3914 -0.1534  0.6066
12468TIP3    H258820   1.357   5.543   0.588  0.8013  0.1771  1.6626
12469TIP3   OH258821   0.661   5.728  13.409  0.1652 -0.5557  0.4533
12469TIP3    H158822   0.586   5.672  13.428 -0.0164 -0.0747  1.1893
12469TIP3    H258823   0.736   5.682  13.445  0.1741 -0.8629  0.0446
12470TIP3   OH258824   4.176   2.814  14.502  0.1783  0.2078  0.1464
12470TIP3    H158825   4.195   2.877  14.432  1.0991 -1.7281 -1.3759
12470TIP3    H258826   4.092   2.842  14.537  0.4813  2.1831 -0.6242
12471TIP3   OH258827   4.234   6.253   4.279  0.1142  0.6400  0.0638
12471TIP3    H158828   4.228   6.305   4.199 -1.4413 -0.6372 -0.6926
12471TIP3    H258829   4.213   6.315   4.350  2.9035  2.1147 -0.3454
12472TIP3   OH258830   3.791   5.183  16.412 -0.3508  0.1557  0.1603
12472TIP3    H158831   3.780   5.123  16.338 -0.8230  1.5239 -0.9287
12472TIP3    H258832   3.754   5.266  16.380 -2.1674  0.3264  2.5392
12473TIP3   OH258833   4.157   1.930   1.307  0.3113 -0.3211  0.4272
12473TIP3    H158834   4.205   1.892   1.380  1.1773  0.2089  0.1409
12473TIP3    H258835   4.067   1.936   1.338  0.7536  0.3246  1.6233
12474TIP3   OH258836   2.856   4.976  10.509  0.3817 -0.0710  0.1950
12474TIP3    H158837   2.833   5.067  10.529 -0.4527  0.2301 -2.0146
12474TIP3    H258838   2.942   4.963  10.550  0.7149  1.8449  0.1383
12475TIP3   OH258839   3.745   3.446   3.910  0.3347 -0.3699  0.0257
12475TIP3    H158840   3.693   3.492   3.975 -0.7489 -1.4181 -0.0916
12475TIP3    H258841   3.806   3.393   3.961  0.3659 -0.2010  0.1663
12476TIP3   OH258842   1.218   1.820  17.217 -0.6408 -0.3477  0.0694
12476TIP3    H158843   1.180   1.732  17.208  1.2976 -0.9871 -2.4161
12476TIP3    H258844   1.162   1.863  17.282 -2.4391 -2.9570  0.3565
12477TIP3   OH258845   1.869   3.998  14.825 -0.0856 -0.1404  0.5214
12477TIP3    H158846   1.830   4.083  14.804 -1.1941 -1.0153 -1.0593
12477TIP3    H258847   1.822   3.970  14.904  0.4073  0.7732  1.1576
12478TIP3   OH258848   0.430   6.031  16.838  0.1834 -0.5104 -0.2122
12478TIP3    H158849   0.504   5.996  16.888  0.2828 -0.3144 -0.2180
12478TIP3    H258850   0.440   6.126  16.845  0.3842 -0.4819 -0.8791
12479TIP3   OH258851   1.921   5.426  15.377  0.3098 -0.4486 -0.0223
12479TIP3    H158852   1.830   5.422  15.409  0.8112 -1.3563  1.3179
12479TIP3    H258853   1.957   5.505  15.418 -0.1059  0.3718 -1.2108
12480TIP3   OH258854   5.498   3.277   4.710 -0.5840 -0.2689 -0.2043
12480TIP3    H158855   5.417   3.319   4.738 -2.1999 -3.3799  0.0373
12480TIP3    H258856   5.541   3.252   4.792 -0.3655 -0.3661 -0.3495
12481TIP3   OH258857   5.587   0.457  15.406 -0.0928  0.1251  0.3178
12481TIP3    H158858   5.618   0.367  15.413 -0.6517  0.0141  1.4881
12481TIP3    H258859   5.666   0.508  15.387  0.1339 -0.6698 -0.9077
12482TIP3   OH258860   3.814   4.459   0.028  0.1380 -0.0390 -0.4386
12482TIP3    H158861   3.747   4.405   0.070 -0.5803  1.1655  0.0067
12482TIP3    H258862   3.859   4.400  -0.032 -1.0932 -0.9603 -0.4755
12483TIP3   OH258863   6.482   3.493  12.255 -0.2122  0.7050 -0.7069
12483TIP3    H158864   6.534   3.564  12.219  1.3090 -0.3657 -0.6615
12483TIP3    H258865   6.428   3.463  12.182  0.5038  0.6689 -1.2224
12484TIP3   OH258866   6.255   1.232   4.131  0.1566 -0.2254 -0.4719
12484TIP3    H158867   6.172   1.201   4.095 -0.6873  1.3015  0.1195
12484TIP3    H258868   6.320   1.212   4.063 -0.7177 -1.2530 -1.0165
12485TIP3   OH258869   4.369   1.218  15.172  0.1366 -0.3430  0.0237
12485TIP3    H158870   4.323   1.148  15.125 -0.8906  0.5416 -0.2985
12485TIP3    H258871   4.336   1.299  15.133  0.1267  0.3712  1.4735
12486TIP3   OH258872   0.539   3.488   0.253 -0.0659 -0.3045 -0.8298
12486TIP3    H158873   0.550   3.567   0.202  3.5941 -0.9513 -1.1822
12486TIP3    H258874   0.458   3.448   0.220 -1.1272  2.4460 -1.6736
12487TIP3   OH258875   3.897   6.624  16.983 -0.2538 -0.0313 -0.6022
12487TIP3    H158876   3.951   6.617  16.904 -1.2759 -1.1734 -1.2219
12487TIP3    H258877   3.868   6.715  16.985  2.1704  0.7663  0.0720
12488TIP3   OH258878   5.310   5.615  16.208  0.5956  0.6030  0.1967
12488TIP3    H158879   5.303   5.653  16.296 -1.0142  0.8163 -0.0067
12488TIP3    H258880   5.267   5.679  16.151  3.5987  1.5646 -1.0997
12489TIP3   OH258881   1.682   4.756  16.244 -0.6162  0.3629 -1.0553
12489TIP3    H158882   1.732   4.692  16.193  1.2340  0.4605  0.5982
12489TIP3    H258883   1.696   4.839  16.199 -0.1379  0.2087 -1.1936
12490TIP3   OH258884   1.702   6.226   3.822 -0.1180 -0.7843  1.0598
12490TIP3    H158885   1.729   6.310   3.858 -0.1854 -0.8658  1.3016
12490TIP3    H258886   1.616   6.243   3.784  0.1230 -0.6066  0.5962
12491TIP3   OH258887   4.705   3.018   4.964 -0.1960  0.6917  0.4620
12491TIP3    H158888   4.715   2.961   4.888 -0.2126  2.4899 -0.9372
12491TIP3    H258889   4.711   2.960   5.039  3.0133 -0.7054 -0.8148
12492TIP3   OH258890   3.213   2.979   4.104  0.0075  0.3254  0.1767
12492TIP3    H158891   3.247   2.911   4.045 -0.3194  0.4454 -0.1522
12492TIP3    H258892   3.123   2.952   4.122 -0.0232  0.5062  0.2934
12493TIP3   OH258893   2.570   3.785   3.210 -0.2568 -0.1869  0.3470
12493TIP3    H158894   2.500   3.760   3.149 -1.8767  1.1042  1.6322
12493TIP3    H258895   2.563   3.722   3.281 -0.7827  0.5626  0.9627
12494TIP3   OH258896   5.856   5.111  12.202 -0.0461 -0.0889  0.3532
12494TIP3    H158897   5.879   5.061  12.124  0.2725  0.1772  0.2760
12494TIP3    H258898   5.761   5.125  12.194  0.0808  0.4629 -0.3041
12495TIP3   OH258899   5.353   0.732  11.378  0.2909 -0.2384  0.0083
12495TIP3    H158900   5.428   0.735  11.318  1.3993  2.8144  1.4256
12495TIP3    H258901   5.365   0.809  11.434 -2.2975 -1.3918  2.2300
12496TIP3   OH258902   3.760   2.182   5.938 -0.1900 -0.0011  0.0122
12496TIP3    H158903   3.699   2.164   6.010  0.1509 -1.1955  0.0067
12496TIP3    H258904   3.706   2.226   5.872 -1.4452 -2.4134 -0.6411
12497TIP3   OH258905   6.441   0.415  15.607 -0.2617 -0.6636  0.1313
12497TIP3    H158906   6.363   0.366  15.631 -0.7305  0.5525  1.1079
12497TIP3    H258907   6.480   0.441  15.691  0.3167  0.1215 -0.3781
12498TIP3   OH258908   3.194   2.492  15.412 -0.2937 -0.1044  0.0598
12498TIP3    H158909   3.175   2.431  15.484 -0.1364  0.6822  0.7732
12498TIP3    H258910   3.130   2.562  15.422  2.9236  2.6120  2.5233
12499TIP3   OH258911   6.228   1.828  14.872 -0.3478  0.5220 -0.3104
12499TIP3    H158912   6.161   1.765  14.898 -0.1341  0.4333  0.0228
12499TIP3    H258913   6.185   1.883  14.806 -0.2730 -0.5030 -1.2222
12500TIP3   OH258914   5.082   3.019   3.557  0.4572 -0.0068  0.4628
12500TIP3    H158915   5.167   3.019   3.601  0.9916  0.7098 -0.5477
12500TIP3    H258916   5.081   2.937   3.507  1.9311  1.4671 -2.0861
12501TIP3   OH258917   6.457   2.918  10.588  0.4927 -0.2302  0.0274
12501TIP3    H158918   6.494   2.948  10.671 -1.1678 -0.8974  1.0299
12501TIP3    H258919   6.522   2.943  10.523  1.3599  1.2102  1.4046
12502TIP3   OH258920   0.197   5.762   1.826  0.1295  0.4546 -0.5626
12502TIP3    H158921   0.131   5.695   1.844 -0.0020  0.6025 -0.4992
12502TIP3    H258922   0.172   5.836   1.880 -0.7136  1.1891 -1.9421
12503TIP3   OH258923   1.772   2.977  14.240  0.2255  0.0611 -0.3052
12503TIP3    H158924   1.818   3.047  14.194 -0.2351  1.1265  0.8234
12503TIP3    H258925   1.823   2.898  14.221  2.4006  1.1747  0.6906
12504TIP3   OH258926   4.283   6.716   2.012  0.2531 -0.4534 -0.3788
12504TIP3    H158927   4.205   6.723   2.067  0.5116  1.2292 -0.2022
12504TIP3    H258928   4.346   6.669   2.066 -0.6074 -1.8408 -0.5267
12505TIP3   OH258929   2.322   5.752   0.566 -0.1829 -0.2374 -0.5344
12505TIP3    H158930   2.330   5.826   0.626  0.7069 -0.5998 -0.1906
12505TIP3    H258931   2.385   5.771   0.497  2.0955 -1.9740  0.9636
12506TIP3   OH258932   1.742   3.650  11.052  0.1425 -0.5901  0.6063
12506TIP3    H158933   1.795   3.628  11.129  2.2380  1.8377 -0.0898
12506TIP3    H258934   1.799   3.631  10.978 -0.6677  0.2181 -0.2312
12507TIP3   OH258935   4.875   3.024   3.793  0.6718 -0.2689  0.0370
12507TIP3    H158936   4.921   3.105   3.816  0.0921  0.3449 -0.8920
12507TIP3    H258937   4.936   2.978   3.734 -0.7024  1.5439 -2.9019
12508TIP3   OH258938   6.219   6.229   6.642  0.2168  0.1224 -1.0313
12508TIP3    H158939   6.172   6.312   6.650 -0.1060 -0.1165 -0.4735
12508TIP3    H258940   6.284   6.231   6.712 -0.1240 -0.3132 -0.6978
12509TIP3   OH258941   6.459   4.089   4.652 -0.2684  0.4214  0.0674
12509TIP3    H158942   6.404   4.018   4.618  2.2560 -0.7594 -1.6495
12509TIP3    H258943   6.439   4.092   4.746 -2.3296 -0.7722 -0.3016
12510TIP3   OH258944   2.971   1.483   2.530  0.4608  0.0088  0.1828
12510TIP3    H158945   2.880   1.485   2.501  1.2209 -0.1122 -2.3343
12510TIP3    H258946   2.983   1.396   2.567 -0.2936 -0.1718  0.0082
12511TIP3   OH258947   4.762   5.336   3.217 -0.9411 -0.1163  0.2146
12511TIP3    H158948   4.721   5.254   3.247  0.2113 -0.9874 -0.5689
12511TIP3    H258949   4.852   5.330   3.249 -0.1941 -0.2388 -1.8538
12512TIP3   OH258950   4.389   4.490   2.316 -0.0814  0.3134 -0.0093
12512TIP3    H158951   4.325   4.550   2.276 -0.5728 -0.2698 -0.1071
12512TIP3    H258952   4.345   4.405   2.316 -0.2164  0.3591  2.0677
12513TIP3   OH258953   4.030   0.093   3.480 -0.2560 -0.3157 -0.3145
12513TIP3    H158954   4.067   0.166   3.429 -1.0473 -1.0252 -1.9225
12513TIP3    H258955   3.938   0.115   3.489 -0.1544 -0.2738  0.7188
12514TIP3   OH258956   1.070   4.746  15.260  0.0383  0.0901 -0.0212
12514TIP3    H158957   1.106   4.816  15.315  1.8205 -1.0975  0.3806
12514TIP3    H258958   1.067   4.669  15.318  1.2310 -0.9856 -1.3508
12515TIP3   OH258959   1.796   4.942  14.261  0.4227 -0.5920  0.0197
12515TIP3    H158960   1.826   4.951  14.352  2.2906 -1.1191 -0.5210
12515TIP3    H258961   1.800   5.031  14.226  0.2433 -0.4782  0.2885
12516TIP3   OH258962   3.697   1.826   5.079  0.1391  0.2616 -0.2277
12516TIP3    H158963   3.608   1.861   5.088  0.1813  0.3526 -0.1616
12516TIP3    H258964   3.744   1.895   5.032 -0.0273 -0.1221 -0.9698
12517TIP3   OH258965   1.915   6.407  11.512  1.0691  0.0191  0.0176
12517TIP3    H158966   1.901   6.315  11.491  1.1886  0.0756 -0.3233
12517TIP3    H258967   1.837   6.433  11.562 -0.1559  0.3748 -2.0021
12518TIP3   OH258968   4.051   0.761  14.189 -0.0484  0.1697  0.0970
12518TIP3    H158969   4.051   0.830  14.255  0.1863 -0.1013  0.3802
12518TIP3    H258970   4.026   0.805  14.108 -3.4700 -0.0842  0.9532
12519TIP3   OH258971   3.737   3.958   4.302 -0.4527  0.6535 -0.6086
12519TIP3    H158972   3.685   3.922   4.230  1.3674 -0.2208 -1.5304
12519TIP3    H258973   3.803   3.891   4.319  1.1803  2.2998 -0.3576
12520TIP3   OH258974   3.472   5.791   5.588  0.3411  0.4065 -0.8738
12520TIP3    H158975   3.409   5.780   5.517 -0.0875 -0.7029 -0.3392
12520TIP3    H258976   3.420   5.825   5.661  0.6656  0.9855 -0.9134
12521TIP3   OH258977   2.646   4.580   0.085  0.4998 -0.3449 -0.0535
12521TIP3    H158978   2.620   4.670   0.062 -1.1540 -0.8238 -0.1443
12521TIP3    H258979   2.589   4.525   0.032 -0.0056 -1.4459  1.6105
12522TIP3   OH258980   2.427   5.749  14.571  0.4109  0.2213 -0.4489
12522TIP3    H158981   2.465   5.807  14.505  1.7635 -0.9043 -0.6935
12522TIP3    H258982   2.335   5.743  14.548  0.3939  1.7407 -0.8064
12523TIP3   OH258983   1.023   1.607   2.419  0.1216  0.8832  0.0512
12523TIP3    H158984   1.057   1.683   2.372  1.5049 -0.3555 -1.0065
12523TIP3    H258985   1.045   1.532   2.363 -0.5060 -0.3802  1.4443
12524TIP3   OH258986   2.181   0.908  14.417  0.2026  0.1958  0.0146
12524TIP3    H158987   2.149   0.819  14.428 -0.8120  0.4632 -0.6624
12524TIP3    H258988   2.220   0.930  14.501  0.5607 -0.9223  0.1506
12525TIP3   OH258989   3.021   2.017   4.814  0.1576 -0.3923  0.1810
12525TIP3    H158990   3.039   2.105   4.848  2.0134 -0.4046 -0.6997
12525TIP3    H258991   3.061   2.017   4.727 -0.8695 -1.7333 -0.3110
12526TIP3   OH258992   4.331   1.173  11.217  0.4824  0.2445 -0.5315
12526TIP3    H158993   4.411   1.121  11.206  1.4688  1.3544  1.3555
12526TIP3    H258994   4.271   1.114  11.262  0.5059 -0.3020 -1.1937
12527TIP3   OH258995   3.147   4.611   2.890  0.0570  0.4077 -0.2278
12527TIP3    H158996   3.231   4.626   2.935 -0.9697  4.1057  0.6535
12527TIP3    H258997   3.146   4.676   2.820 -2.9582  1.9303  1.1372
12528TIP3   OH258998   0.654   6.559   0.977 -0.2944 -0.0645 -0.1266
12528TIP3    H158999   0.711   6.494   0.936  3.6152  1.7464  2.1680
12528TIP3    H259000   0.676   6.641   0.933 -1.1610  0.6558  0.7743
12529TIP3   OH259001   3.208   4.299  12.964  0.2853  0.5344 -0.0624
12529TIP3    H159002   3.119   4.302  12.998 -0.2867 -0.2519 -1.4462
12529TIP3    H259003   3.241   4.213  12.990  1.8347  2.0233  3.2658
12530TIP3   OH259004   6.466   2.614  14.100  0.0429 -0.1399  0.1380
12530TIP3    H159005   6.439   2.525  14.124  0.6894  0.3063  2.6366
12530TIP3    H259006   6.559   2.607  14.082 -0.0719 -0.1029 -0.5067
12531TIP3   OH259007   3.340   4.471  12.066  0.1734 -0.4305  0.0914
12531TIP3    H159008   3.373   4.540  12.008 -0.1282  0.6998  1.2395
12531TIP3    H259009   3.418   4.431  12.104  0.3128  0.3073  0.5903
12532TIP3   OH259010   4.522   2.141   0.784 -0.3987  0.3000 -0.3468
12532TIP3    H159011   4.436   2.112   0.814  0.7379 -1.3601  1.4485
12532TIP3    H259012   4.526   2.233   0.812 -1.1436  0.0615  0.5960
12533TIP3   OH259013   6.597   4.291  11.675 -0.5347  0.0587 -0.4255
12533TIP3    H159014   6.555   4.216  11.634 -3.4886  0.2834  2.0509
12533TIP3    H259015   6.543   4.366  11.651  1.2448  1.1231 -1.2237
12534TIP3   OH259016   2.659   4.881  14.348  0.0011 -0.1564 -0.1510
12534TIP3    H159017   2.720   4.955  14.337  1.1144 -0.7575  1.6528
12534TIP3    H259018   2.685   4.818  14.281  1.0734 -0.1889  0.2761
12535TIP3   OH259019   1.994   4.160   2.701 -0.5943 -0.1894 -0.4314
12535TIP3    H159020   1.936   4.235   2.685  0.2760  1.1986  2.5933
12535TIP3    H259021   2.037   4.181   2.784  1.3889 -2.9929 -0.7133
12536TIP3   OH259022   1.394   4.283   0.050 -0.2255 -0.9356 -0.3085
12536TIP3    H159023   1.309   4.310   0.015  0.0278 -0.5594 -0.6267
12536TIP3    H259024   1.426   4.217  -0.011 -0.1841 -0.9175 -0.3074
12537TIP3   OH259025   4.177   2.238  12.050  0.1765  0.3934  0.1524
12537TIP3    H159026   4.146   2.187  12.125 -2.7540  0.4865 -0.9109
12537TIP3    H259027   4.203   2.172  11.986  0.3867  0.2875  0.3438
12538TIP3   OH259028   1.511   6.763  16.842  0.3638 -0.3662  0.1149
12538TIP3    H159029   1.517   6.722  16.928 -0.3055 -0.7194  0.0024
12538TIP3    H259030   1.597   6.801  16.827  0.2078  0.4936  1.3262
12539TIP3   OH259031   5.397   2.358   5.310 -0.5027 -0.1333  0.9096
12539TIP3    H159032   5.329   2.315   5.260  0.1533  1.5321 -1.5192
12539TIP3    H259033   5.357   2.440   5.339 -0.3708 -0.3707  1.7817
12540TIP3   OH259034   1.320   2.610   2.109 -0.3499  0.3707 -0.4055
12540TIP3    H159035   1.396   2.631   2.055  0.2867 -1.7575 -0.3636
12540TIP3    H259036   1.245   2.645   2.060  0.5306  1.4506 -0.9965
12541TIP3   OH259037   5.315   6.692   2.813  0.7220 -0.0143  0.0854
12541TIP3    H159038   5.316   6.599   2.836  0.2111  0.0312  0.2736
12541TIP3    H259039   5.277   6.736   2.889  3.7897  0.6998  1.3104
12542TIP3   OH259040   4.643   2.611  13.314  0.0546 -0.0515  0.6281
12542TIP3    H159041   4.700   2.607  13.391 -1.0562  1.0376  1.5207
12542TIP3    H259042   4.624   2.519  13.293  2.6831 -0.4642 -0.1128
12543TIP3   OH259043   4.902   4.061  15.962  0.1585 -0.0845 -0.3530
12543TIP3    H159044   4.817   4.025  15.939 -0.0336 -1.4256  2.2751
12543TIP3    H259045   4.896   4.080  16.056  1.9231  2.1425 -0.6421
12544TIP3   OH259046   6.632   5.536   3.213  0.0606  0.8065  0.0150
12544TIP3    H159047   6.582   5.578   3.283  0.5705 -1.2324  1.6563
12544TIP3    H259048   6.638   5.445   3.240  1.1287  0.1932 -2.2235
12545TIP3   OH259049   1.982   6.570   3.563 -0.4679 -0.2676 -0.1239
12545TIP3    H159050   2.058   6.534   3.518  0.2242 -0.5762  1.2881
12545TIP3    H259051   1.910   6.511   3.539  0.6814 -2.7831  2.3062
12546TIP3   OH259052   1.333   4.816   2.078  0.0072 -0.2078 -0.0936
12546TIP3    H159053   1.310   4.847   1.991  1.7386  0.7600 -0.2445
12546TIP3    H259054   1.296   4.881   2.138 -0.5127 -0.4516 -0.1535
12547TIP3   OH259055   4.807   6.287   5.676 -0.7406 -0.6796 -0.4358
12547TIP3    H159056   4.846   6.201   5.662 -0.3919 -0.6118  0.0804
12547TIP3    H259057   4.831   6.338   5.599  3.4159  0.5151  1.4576
12548TIP3   OH259058   0.708   5.565  11.759 -0.7661 -0.0946 -0.3901
12548TIP3    H159059   0.779   5.620  11.728 -0.5167  0.4936  1.1889
12548TIP3    H259060   0.643   5.567  11.689  0.4538 -0.0722 -1.5364
12549TIP3   OH259061   0.782   2.135  16.891  0.0243 -0.0930 -0.0363
12549TIP3    H159062   0.838   2.083  16.834 -0.1599  1.4487 -1.6520
12549TIP3    H259063   0.694   2.098  16.880 -0.5148  1.8681 -2.8703
12550TIP3   OH259064   1.162   2.609   3.489  0.1900  0.2600 -0.8365
12550TIP3    H159065   1.230   2.556   3.447  1.5071  0.7797  0.5938
12550TIP3    H259066   1.136   2.559   3.566  0.7095  1.2089 -0.0373
12551TIP3   OH259067   4.510   1.691  12.729 -0.2030  0.0319 -0.0705
12551TIP3    H159068   4.529   1.650  12.814  1.4331  0.4320 -0.2194
12551TIP3    H259069   4.504   1.617  12.668  2.7576 -0.0705 -0.3380
12552TIP3   OH259070   5.061   4.799  13.243 -0.2938 -0.1341 -0.3969
12552TIP3    H159071   5.085   4.839  13.160 -0.8940 -0.0741 -0.5426
12552TIP3    H259072   5.121   4.838  13.307  0.7586 -0.8360 -0.9414
12553TIP3   OH259073   4.674   0.755   0.900 -0.4573 -0.4851  0.4167
12553TIP3    H159074   4.729   0.679   0.917  0.1831 -0.5251 -1.6683
12553TIP3    H259075   4.716   0.826   0.948  0.6577 -0.7995 -0.0688
12554TIP3   OH259076   1.914   2.293  13.142  0.1062 -0.0105 -0.0408
12554TIP3    H159077   1.872   2.378  13.158 -0.1398 -0.3310  1.0503
12554TIP3    H259078   1.843   2.230  13.147 -0.0278 -0.1235 -2.7045
12555TIP3   OH259079   5.794   2.530   3.046 -0.5554 -0.1623 -0.3382
12555TIP3    H159080   5.815   2.450   3.095 -1.7218 -0.4662 -0.3202
12555TIP3    H259081   5.813   2.508   2.955  2.1499  0.5778 -0.0249
12556TIP3   OH259082   2.501   6.078   4.922  0.2417  0.8182  0.0355
12556TIP3    H159083   2.574   6.098   4.982  1.5351 -1.6294 -0.6282
12556TIP3    H259084   2.533   6.105   4.836  0.3961 -0.2507 -0.2540
12557TIP3   OH259085   3.376   5.744  10.718 -0.6527  0.4150  0.3751
12557TIP3    H159086   3.321   5.755  10.640  0.5129 -2.4620 -0.9688
12557TIP3    H259087   3.335   5.671  10.765  1.0507 -0.7120  0.1658
12558TIP3   OH259088   0.920   5.513   4.477  0.2545 -0.1564 -0.0236
12558TIP3    H159089   1.010   5.541   4.494  1.1026 -1.9577 -1.3900
12558TIP3    H259090   0.881   5.584   4.426  1.1410  0.2853 -0.0867
12559TIP3   OH259091   3.911   2.954   5.578  0.6398 -0.1325 -0.7685
12559TIP3    H159092   3.888   2.934   5.487 -0.1059 -2.8225 -0.0337
12559TIP3    H259093   3.827   2.958   5.624  1.0932 -0.1194  0.0735
12560TIP3   OH259094   2.696   2.594   3.173 -1.1086 -0.2970 -0.5498
12560TIP3    H159095   2.728   2.540   3.245 -1.1016  0.1620 -0.2105
12560TIP3    H259096   2.601   2.587   3.177 -1.2977  2.7216  1.8307
12561TIP3   OH259097   0.166   2.126   6.058 -0.1771  0.2796 -0.2752
12561TIP3    H159098   0.168   2.056   5.993  0.2928  1.1064 -1.1649
12561TIP3    H259099   0.167   2.207   6.007 -0.6233  0.9397  0.7415
12562TIP3   OH259100   1.045   2.287   4.261  0.2925  0.0245 -0.2337
12562TIP3    H159101   1.006   2.225   4.199  2.7756 -1.0479 -0.7891
12562TIP3    H259102   1.134   2.301   4.229  1.4054  0.0216  2.6802
12563TIP3   OH259103   5.746   4.715  11.671  0.1262 -0.3240 -0.9083
12563TIP3    H159104   5.709   4.709  11.759 -2.9549  2.6855 -1.9126
12563TIP3    H259105   5.738   4.627  11.636  0.7433 -1.4107  1.5496
12564TIP3   OH259106   6.396   2.208   1.329 -0.0941 -0.0047 -0.7851
12564TIP3    H159107   6.420   2.300   1.334  0.9134 -0.2737 -0.4872
12564TIP3    H259108   6.411   2.184   1.238 -0.0668  0.0605 -0.7976
12565TIP3   OH259109   5.872   2.415  16.691 -0.8228 -0.4073  0.3187
12565TIP3    H159110   5.902   2.488  16.746  0.7692 -0.2581 -0.7267
12565TIP3    H259111   5.837   2.352  16.754 -2.4646  1.3467  1.2164
12566TIP3   OH259112   4.266   4.572   6.197  0.0393 -0.1682 -0.1891
12566TIP3    H159113   4.352   4.608   6.218  1.2725 -2.3352 -1.4307
12566TIP3    H259114   4.252   4.594   6.105 -1.0481  0.7221  0.1660
12567TIP3   OH259115   3.962   3.448   0.308  0.1977  0.0704  0.1228
12567TIP3    H159116   3.950   3.476   0.399 -1.3427 -1.5842  0.4598
12567TIP3    H259117   4.004   3.362   0.316  0.8848  0.3119 -0.7792
12568TIP3   OH259118   4.922   4.833   1.603 -0.5390 -0.1958 -0.1400
12568TIP3    H159119   4.994   4.806   1.660 -0.5798 -2.2989 -1.0419
12568TIP3    H259120   4.929   4.929   1.599  1.4505 -0.2852  0.7623
12569TIP3   OH259121   4.458   1.465   3.602  0.6557  0.2689  0.0459
12569TIP3    H159122   4.529   1.403   3.619 -0.2369 -0.6052  0.7006
12569TIP3    H259123   4.392   1.412   3.557  0.0308  0.8331  0.3038
12570TIP3   OH259124   2.328   6.426   3.688 -0.0597 -0.5988 -0.3017
12570TIP3    H159125   2.278   6.483   3.746  0.0555  0.6845 -1.4416
12570TIP3    H259126   2.301   6.451   3.600  2.9185  0.4794 -0.9910
12571TIP3   OH259127   4.511   0.246   2.017 -0.1938  0.1403  0.3697
12571TIP3    H159128   4.477   0.325   1.973  1.4400  0.8710  0.3588
12571TIP3    H259129   4.465   0.174   1.975  1.0525  0.8561 -2.3601
12572TIP3   OH259130   5.171   4.890  11.350 -0.0604  0.1040 -0.1011
12572TIP3    H159131   5.153   4.902  11.257 -0.3112  1.3429  0.1011
12572TIP3    H259132   5.263   4.915  11.360  0.6310 -2.2491 -0.4128
12573TIP3   OH259133   0.290   3.566   4.930  0.3157 -0.1833  0.3935
12573TIP3    H159134   0.324   3.545   5.017  0.8531 -0.6680  0.0679
12573TIP3    H259135   0.358   3.536   4.870  0.6354  1.5361 -0.1292
12574TIP3   OH259136   5.441   0.248  14.666  0.3757  0.4452  0.5016
12574TIP3    H159137   5.504   0.320  14.653  1.2489 -0.3265  0.4060
12574TIP3    H259138   5.490   0.183  14.715 -0.6874  0.2718  1.3417
12575TIP3   OH259139   3.454   0.891  14.742 -0.3533  0.3315 -0.1215
12575TIP3    H159140   3.422   0.978  14.767 -0.3323  0.2732  0.1145
12575TIP3    H259141   3.400   0.865  14.668 -0.0927  0.7178 -0.4444
12576TIP3   OH259142   5.865   5.163   4.510  0.4075  0.1037  0.3720
12576TIP3    H159143   5.880   5.253   4.480  0.0272 -0.6752 -2.3104
12576TIP3    H259144   5.783   5.168   4.560  0.1975  1.2043 -0.0649
12577TIP3   OH259145   4.573   1.373   2.999  0.4059 -0.1451 -0.1102
12577TIP3    H159146   4.554   1.303   3.062 -0.7866  0.9537  0.7611
12577TIP3    H259147   4.562   1.331   2.913 -0.0562 -1.1042  0.4081
12578TIP3   OH259148   3.162   1.860   0.692  0.3323  0.4064 -0.5788
12578TIP3    H159149   3.122   1.819   0.615  0.8172 -0.1987 -0.5073
12578TIP3    H259150   3.162   1.953   0.671 -0.5247  0.3547 -0.8573
12579TIP3   OH259151   1.061   0.340  16.812  0.6377  0.0990 -0.3046
12579TIP3    H159152   1.145   0.295  16.800 -0.0371 -2.4402  3.5234
12579TIP3    H259153   0.997   0.284  16.769  0.4129 -0.1314  0.3156
12580TIP3   OH259154   1.921   6.396  16.404 -0.3213 -0.1102 -0.0671
12580TIP3    H159155   1.999   6.443  16.436  0.2540 -1.9215  1.2746
12580TIP3    H259156   1.858   6.465  16.384  0.3846  1.2454  2.2203
12581TIP3   OH259157   4.755   4.972  14.018  0.2014 -0.0781  0.3972
12581TIP3    H159158   4.728   4.909  14.085 -3.6908 -0.2828 -1.2469
12581TIP3    H259159   4.676   5.024  14.002  2.2497  2.6633 -1.0974
12582TIP3   OH259160   4.874   2.055   1.759 -0.2066  0.1551  0.7377
12582TIP3    H159161   4.939   1.992   1.727 -3.4494 -2.5941 -0.6850
12582TIP3    H259162   4.850   2.106   1.682 -1.0707 -0.0703  0.8543
12583TIP3   OH259163   1.530   1.767   2.156  0.6297  0.2164  0.8245
12583TIP3    H159164   1.514   1.835   2.091  1.8259  0.8328  1.1586
12583TIP3    H259165   1.588   1.705   2.112 -0.0251 -0.3032  0.6984
12584TIP3   OH259166   3.847   3.997  16.833  0.1381  0.6630 -0.7954
12584TIP3    H159167   3.834   4.092  16.843 -2.6023  0.2339  0.3192
12584TIP3    H259168   3.774   3.958  16.882  1.8337 -2.0500 -0.3202
12585TIP3   OH259169   6.379   2.846  12.355 -0.6279  0.7247 -0.0005
12585TIP3    H159170   6.461   2.863  12.401  0.2379 -2.3081 -0.3250
12585TIP3    H259171   6.318   2.817  12.423 -0.6894  0.5670 -0.1228
12586TIP3   OH259172   2.736   2.113  15.443  0.1032 -0.2466 -0.3160
12586TIP3    H159173   2.799   2.185  15.450  1.5883 -1.3978 -1.5852
12586TIP3    H259174   2.741   2.068  15.528 -0.3056  0.7093  0.2183
12587TIP3   OH259175   0.967   4.503   5.542  0.2117  0.3928 -0.3712
12587TIP3    H159176   0.886   4.553   5.547  0.1633  0.3031 -0.2718
12587TIP3    H259177   0.957   4.433   5.606  0.0800 -0.0385 -0.8566
12588TIP3   OH259178   0.964   5.934  15.291 -0.2689 -0.2670 -0.0823
12588TIP3    H159179   0.880   5.919  15.246  0.0371  0.4164 -0.8898
12588TIP3    H259180   1.008   5.849  15.286 -0.6539 -0.4652 -0.2008
12589TIP3   OH259181   2.887   4.915   0.193  0.2984  0.1483 -0.0145
12589TIP3    H159182   2.975   4.879   0.192 -0.1355 -0.9420 -1.8568
12589TIP3    H259183   2.897   5.004   0.159  0.3647 -0.8352 -2.6477
12590TIP3   OH259184   1.478   4.086   2.255 -0.4379  0.5064  0.3974
12590TIP3    H159185   1.441   4.061   2.170  0.3640 -0.7133  0.4084
12590TIP3    H259186   1.411   4.060   2.318 -0.1658 -0.4556  0.2999
12591TIP3   OH259187   1.134   0.467   2.528  0.1762  0.4209  0.9207
12591TIP3    H159188   1.045   0.452   2.497  1.4456 -0.5493 -2.4885
12591TIP3    H259189   1.153   0.392   2.584 -1.3197  0.9411  2.1597
12592TIP3   OH259190   0.322   2.770  15.774  0.1482  0.0932 -0.1325
12592TIP3    H159191   0.369   2.854  15.773 -0.5602  0.4976 -0.0455
12592TIP3    H259192   0.232   2.793  15.751 -0.4222 -0.4033  1.4964
12593TIP3   OH259193   4.071   6.087  13.238 -0.3136  0.4459  0.2123
12593TIP3    H159194   3.996   6.059  13.186 -0.2715  2.0270 -0.7112
12593TIP3    H259195   4.047   6.174  13.271  0.7761  0.6119  0.5925
12594TIP3   OH259196   3.553   5.993   2.286  0.0256 -0.1788  0.1734
12594TIP3    H159197   3.533   5.900   2.275 -0.9263  0.1171 -0.6966
12594TIP3    H259198   3.547   6.007   2.380  1.6769 -1.3134  0.4854
12595TIP3   OH259199   2.133   3.324  11.693  0.3454  0.0911  0.5652
12595TIP3    H159200   2.163   3.414  11.694  0.1386  0.1575  1.1328
12595TIP3    H259201   2.141   3.296  11.602  1.2669  0.3932  0.5563
12596TIP3   OH259202   6.017   5.038  15.795 -0.2927  0.3561 -0.2437
12596TIP3    H159203   5.956   5.062  15.725 -0.2935 -0.1687 -0.4240
12596TIP3    H259204   5.978   4.960  15.835 -0.5293  0.9121  0.6461
12597TIP3   OH259205   4.369   2.091  16.506  0.2572  0.0167 -0.5793
12597TIP3    H159206   4.367   2.011  16.559  1.9444 -1.1220 -2.1715
12597TIP3    H259207   4.415   2.154  16.561  2.7581 -1.3976 -0.9703
12598TIP3   OH259208   1.125   6.243   4.693  0.0076 -0.1151  0.2150
12598TIP3    H159209   1.141   6.248   4.787 -0.7743 -0.1763  0.3575
12598TIP3    H259210   1.145   6.331   4.660 -1.5391  0.4491  0.7410
12599TIP3   OH259211   6.167   4.989  13.982 -0.3609 -0.3831 -0.1007
12599TIP3    H159212   6.075   4.983  13.955 -0.7102 -2.8842  1.4693
12599TIP3    H259213   6.216   4.989  13.900 -1.6873 -0.6042 -0.9158
12600TIP3   OH259214   3.733   3.398  11.307 -0.3921 -0.4020  0.7182
12600TIP3    H159215   3.733   3.303  11.299 -0.1450 -0.4088  0.7880
12600TIP3    H259216   3.825   3.421  11.325 -0.3356 -0.0925  0.0393
12601TIP3   OH259217   5.371   1.641   1.326 -0.2085 -0.1161  0.6575
12601TIP3    H159218   5.317   1.720   1.333  0.2426  0.1654  0.9875
12601TIP3    H259219   5.382   1.627   1.232 -1.0293 -0.2951  0.5858
12602TIP3   OH259220   0.073   3.619   4.227  0.0796  0.1042  0.1939
12602TIP3    H159221   0.041   3.604   4.315 -0.9410 -1.1237 -0.3762
12602TIP3    H259222   0.163   3.587   4.228  0.6494  1.6678  1.2311
12603TIP3   OH259223   2.402   2.219  12.957  0.8450  0.4612 -0.3602
12603TIP3    H159224   2.353   2.276  13.015  0.1119 -0.2016 -0.3232
12603TIP3    H259225   2.403   2.265  12.873 -1.5845 -0.4426 -0.9113
12604TIP3   OH259226   1.591   1.954  11.146 -0.4270 -0.1080 -0.5195
12604TIP3    H159227   1.518   1.943  11.085  0.6276  2.3775 -2.3085
12604TIP3    H259228   1.557   2.011  11.215 -0.8784 -0.8994 -0.0853
12605TIP3   OH259229   4.021   6.532   3.936  0.1974  0.1468  0.6288
12605TIP3    H159230   4.015   6.470   3.864  0.6028  0.3477  0.4192
12605TIP3    H259231   3.936   6.577   3.935  0.1759  0.1038  0.3167
12606TIP3   OH259232   1.989   6.640  13.149 -0.0661 -0.2547 -0.1284
12606TIP3    H159233   2.032   6.726  13.152  0.4256 -0.4445 -1.7551
12606TIP3    H259234   1.900   6.657  13.181 -0.0896  0.9273 -0.8205
12607TIP3   OH259235   6.131   0.470  15.736  0.8799 -0.4248  0.3475
12607TIP3    H159236   6.086   0.389  15.760  1.7492 -0.9684  0.1619
12607TIP3    H259237   6.148   0.462  15.642 -2.6425  1.7621 -0.5684
12608TIP3   OH259238   2.028   1.466   3.789  0.5664 -0.2641  0.0919
12608TIP3    H159239   2.066   1.379   3.773  0.7315  0.0381 -1.2142
12608TIP3    H259240   2.050   1.485   3.880  1.5626 -1.0826  0.0354
12609TIP3   OH259241   4.074   6.769  14.847  0.6753  0.3246  0.2588
12609TIP3    H159242   4.158   6.808  14.870  0.7842 -0.1685  0.7007
12609TIP3    H259243   4.009   6.819  14.897  0.6485  1.0640 -0.5020
12610TIP3   OH259244   4.637   2.883   2.640 -0.0596 -0.4297  0.0411
12610TIP3    H159245   4.640   2.891   2.736  0.0809 -0.6716  0.0585
12610TIP3    H259246   4.728   2.896   2.613 -0.0921 -0.4047 -0.0554
12611TIP3   OH259247   3.676   1.123  13.549 -0.1193  0.3204  0.6532
12611TIP3    H159248   3.607   1.077  13.597  0.4951 -1.8614 -0.4718
12611TIP3    H259249   3.639   1.209  13.528 -1.9596 -0.3049  1.2975
12612TIP3   OH259250   1.355   3.539  12.980  0.3616  0.2416 -0.1482
12612TIP3    H159251   1.399   3.523  13.063  0.9769  0.5316 -0.4174
12612TIP3    H259252   1.296   3.613  12.998 -0.4611 -0.5374  0.3689
12613TIP3   OH259253   5.594   2.041   2.092  0.8145  0.1207  0.0680
12613TIP3    H159254   5.535   2.070   2.023  0.6134  2.8961  1.2964
12613TIP3    H259255   5.680   2.077   2.067  0.6817  1.3952  1.3392
12614TIP3   OH259256   1.623   3.014  16.207 -0.2932 -0.0251 -0.1139
12614TIP3    H159257   1.575   2.933  16.188 -0.6279  0.3022 -0.6764
12614TIP3    H259258   1.630   3.015  16.302 -1.3582 -0.1072 -0.0265
12615TIP3   OH259259   3.544   4.671  12.013  0.4238  0.1109 -0.4045
12615TIP3    H159260   3.541   4.629  11.926  0.1455 -0.5000 -0.1050
12615TIP3    H259261   3.580   4.604  12.070  0.3196  0.4152  0.0159
12616TIP3   OH259262   6.323   2.840   1.967  0.6422 -0.2168  0.6901
12616TIP3    H159263   6.251   2.897   1.994 -0.0783 -1.2844  1.0727
12616TIP3    H259264   6.323   2.846   1.871  0.9135  0.8248  0.7473
12617TIP3   OH259265   1.231   3.849  10.594 -0.4405  0.2398  0.1014
12617TIP3    H159266   1.143   3.818  10.616 -0.7140  1.1224  0.2802
12617TIP3    H259267   1.248   3.815  10.506 -1.3090  0.7835 -0.2801
12618TIP3   OH259268   4.026   3.975  14.472  0.0291  0.0558 -0.1142
12618TIP3    H159269   4.036   3.880  14.469 -1.3174 -0.1454  1.0889
12618TIP3    H259270   3.939   3.991  14.435 -0.6413  0.6222  1.6480
12619TIP3   OH259271   3.542   6.539   1.170 -0.2880 -0.4135 -0.7657
12619TIP3    H159272   3.632   6.539   1.203 -0.7207 -1.3722  0.5098
12619TIP3    H259273   3.489   6.550   1.249 -1.2987 -0.5886 -1.4199
12620TIP3   OH259274   1.508   4.404   1.235 -0.0503 -0.0154 -0.0382
12620TIP3    H159275   1.466   4.399   1.149 -1.6242  1.5882  0.6141
12620TIP3    H259276   1.470   4.331   1.285 -0.4974  0.1496 -0.1341
12621TIP3   OH259277   1.261   6.681  16.754  0.7682  0.3939 -0.4316
12621TIP3    H159278   1.222   6.737  16.821 -0.8508 -1.4641  0.2148
12621TIP3    H259279   1.355   6.694  16.764  0.6136 -0.5738  2.8971
12622TIP3   OH259280   4.567   4.315   4.548 -0.3716 -0.3680  0.4115
12622TIP3    H159281   4.518   4.383   4.595 -1.7220 -0.0591 -1.3579
12622TIP3    H259282   4.603   4.360   4.472  0.3463 -1.2288  0.2329
12623TIP3   OH259283   5.980   2.020  15.522 -0.4305 -0.0720 -0.7448
12623TIP3    H159284   5.960   1.980  15.607  0.6170  3.4246  1.3039
12623TIP3    H259285   6.071   1.995  15.505 -0.6521 -0.8130 -0.8180
12624TIP3   OH259286   4.010   2.387   1.789 -0.0479 -0.4098 -0.0233
12624TIP3    H159287   3.947   2.457   1.772  1.5960  1.1013 -0.0965
12624TIP3    H259288   4.096   2.429   1.777  1.0030 -1.9104  1.9148
12625TIP3   OH259289   0.930   5.108  16.651 -0.1418 -0.7229  0.9009
12625TIP3    H159290   0.861   5.109  16.584 -1.4479  0.8199  2.2250
12625TIP3    H259291   0.986   5.035  16.627  0.8760  1.2877 -3.3644
12626TIP3   OH259292   1.634   4.848  14.872  0.3760  0.5734  0.1664
12626TIP3    H159293   1.699   4.907  14.835 -0.2225  1.1613  0.0555
12626TIP3    H259294   1.645   4.766  14.822  0.4724  0.9346 -0.4097
12627TIP3   OH259295   2.461   4.661   6.738  0.1835  0.3275  0.1491
12627TIP3    H159296   2.515   4.733   6.771  3.5536 -1.8361 -0.2950
12627TIP3    H259297   2.468   4.668   6.642  1.6629 -1.2932  0.1037
12628TIP3   OH259298   4.105   0.069  16.183 -0.6439 -0.3353 -0.4049
12628TIP3    H159299   4.123   0.061  16.277 -0.1265 -0.6568 -0.5305
12628TIP3    H259300   4.179   0.026  16.140 -0.7888 -0.0300 -0.9657
12629TIP3   OH259301   6.018   3.207  11.982  0.0050 -0.3814  0.0180
12629TIP3    H159302   6.035   3.192  12.075 -0.5334 -0.9889  0.0251
12629TIP3    H259303   6.072   3.141  11.938 -0.1206 -0.4190 -0.0785
12630TIP3   OH259304   0.505   2.899  12.750  0.2265  0.1870 -0.1546
12630TIP3    H159305   0.428   2.951  12.729 -0.1950 -0.6913 -0.8262
12630TIP3    H259306   0.558   2.901  12.670 -0.5734 -1.7624 -0.7520
12631TIP3   OH259307   5.337   5.360  16.360  0.7393  0.2454 -0.2667
12631TIP3    H159308   5.334   5.420  16.286  0.1246  0.3051 -0.2023
12631TIP3    H259309   5.414   5.306  16.345 -0.5158 -1.1245 -2.0310
12632TIP3   OH259310   5.054   0.378   2.777 -0.6418  0.1477  0.0871
12632TIP3    H159311   5.048   0.314   2.847 -0.7472  1.6189  1.4513
12632TIP3    H259312   4.986   0.443   2.797  1.9690  2.7617  0.9644
12633TIP3   OH259313   5.093   3.665   6.478  0.0571  0.8684  0.3917
12633TIP3    H159314   5.131   3.745   6.444 -0.6201  0.7086 -0.7730
12633TIP3    H259315   4.999   3.683   6.482 -0.2827 -0.3617 -1.3420
12634TIP3   OH259316   5.098   2.121  13.744  0.5176  0.0664  0.2179
12634TIP3    H159317   5.021   2.178  13.745  0.5841  0.1554  0.4197
12634TIP3    H259318   5.078   2.053  13.809  0.3627 -0.2411 -0.1534
12635TIP3   OH259319   3.095   3.862  12.706 -0.1851  0.5724 -0.7842
12635TIP3    H159320   3.080   3.857  12.800  0.2173 -1.0664 -0.8018
12635TIP3    H259321   3.171   3.806  12.690 -0.4175  0.6230 -2.1215
12636TIP3   OH259322   1.486   4.405  15.716  0.0367 -0.1171  0.2263
12636TIP3    H159323   1.458   4.419  15.807 -0.8187  0.7313 -0.1568
12636TIP3    H259324   1.479   4.310  15.703  1.6895 -0.4333  1.5167
12637TIP3   OH259325   1.722   0.321   3.141 -0.3091  0.0755 -0.0691
12637TIP3    H159326   1.807   0.296   3.104 -0.4703 -1.3068  0.4643
12637TIP3    H259327   1.743   0.388   3.207  0.3742 -0.3248  0.1219
12638TIP3   OH259328   6.382   1.856   4.950 -0.0928 -0.1866  0.5286
12638TIP3    H159329   6.368   1.769   4.987  0.2333 -0.0940  0.8716
12638TIP3    H259330   6.472   1.879   4.974 -0.3258  0.4338  0.8327
12639TIP3   OH259331   2.783   4.574  12.000 -0.5236 -0.3184 -0.0230
12639TIP3    H159332   2.872   4.573  11.964 -0.4751 -0.5131  0.0985
12639TIP3    H259333   2.730   4.615  11.932 -0.2321  0.3700  0.1571
12640TIP3   OH259334   2.782   4.630  12.377 -0.4686 -0.3847  0.8790
12640TIP3    H159335   2.690   4.633  12.351 -0.0765 -1.2030 -0.6684
12640TIP3    H259336   2.826   4.687  12.315  0.1985 -0.6808  1.0831
12641TIP3   OH259337   3.647   6.113  15.098 -0.6323  0.5097  0.0984
12641TIP3    H159338   3.583   6.182  15.080 -0.1722  0.8076 -0.4311
12641TIP3    H259339   3.601   6.051  15.155 -0.8378  1.5739  1.1001
12642TIP3   OH259340   0.003   1.780  14.903 -0.1895 -0.5703  0.2283
12642TIP3    H159341   0.009   1.872  14.876 -1.9438 -0.6372 -0.4428
12642TIP3    H259342   0.049   1.732  14.835  2.9757 -0.0092  1.8745
12643TIP3   OH259343   2.768   0.980  16.700 -0.2563 -0.7265 -0.3243
12643TIP3    H159344   2.687   0.961  16.748 -0.6740 -0.3655 -0.8820
12643TIP3    H259345   2.837   0.949  16.758 -0.7363  0.0018  0.6595
12644TIP3   OH259346   1.453   4.327   4.624 -0.0559  0.1289 -0.6357
12644TIP3    H159347   1.370   4.280   4.623  0.1898 -0.3093 -0.5693
12644TIP3    H259348   1.501   4.292   4.550  1.2564 -1.7751  1.0648
12645TIP3   OH259349   3.533   4.553  15.734 -0.2572  1.0208  0.6146
12645TIP3    H159350   3.445   4.524  15.760 -0.4754 -0.1913 -1.3705
12645TIP3    H259351   3.542   4.524  15.644  2.2092  1.1320  0.7911
12646TIP3   OH259352   5.334   6.376   3.673  0.2884  0.1552 -0.2616
12646TIP3    H159353   5.252   6.392   3.719  0.2012  0.6471 -0.5737
12646TIP3    H259354   5.393   6.444   3.706  0.2514  0.4552 -0.8105
12647TIP3   OH259355   1.330   5.098  10.647 -0.1704  0.2344 -0.2899
12647TIP3    H159356   1.366   5.180  10.612  0.9016  0.3401  0.9968
12647TIP3    H259357   1.271   5.066  10.579 -0.4144  1.9535 -0.9043
12648TIP3   OH259358   2.243   1.808   2.253  0.0523  0.1861 -0.1220
12648TIP3    H159359   2.272   1.792   2.164  0.1124 -1.4828  0.1851
12648TIP3    H259360   2.312   1.862   2.292  1.2517 -1.1653 -0.3351
12649TIP3   OH259361   5.830   0.279  14.573  0.6821 -0.1260  0.2345
12649TIP3    H159362   5.763   0.347  14.584  0.5497 -0.0948 -0.7319
12649TIP3    H259363   5.835   0.265  14.479 -0.9957 -3.1693  0.5466
12650TIP3   OH259364   0.781   3.381   2.655 -0.3598 -1.2421 -0.4428
12650TIP3    H159365   0.732   3.404   2.576  0.4397  0.8103 -0.3842
12650TIP3    H259366   0.733   3.425   2.725 -0.0197 -1.5331 -0.0275
12651TIP3   OH259367   4.815   2.462   2.268  0.3802 -0.3153  0.4752
12651TIP3    H159368   4.722   2.481   2.277  0.2633  0.5379 -2.0084
12651TIP3    H259369   4.820   2.406   2.190  1.9979  0.3771  0.0572
12652TIP3   OH259370   3.650   3.667  11.448 -0.1240  0.2859 -0.2260
12652TIP3    H159371   3.702   3.587  11.441 -0.8451 -0.2110  0.1128
12652TIP3    H259372   3.675   3.717  11.370 -0.0567 -0.4942 -0.7172
12653TIP3   OH259373   2.977   5.401   4.157  0.2693 -0.3069  0.0621
12653TIP3    H159374   2.963   5.400   4.251 -0.9907 -0.6954 -0.1112
12653TIP3    H259375   3.069   5.427   4.146  0.9107 -1.9049  1.4452
12654TIP3   OH259376   5.993   4.855   2.303 -0.2345  0.2757 -0.4333
12654TIP3    H159377   5.924   4.879   2.240 -0.4956  1.5514  0.3191
12654TIP3    H259378   6.067   4.911   2.279  0.1163 -0.1917 -0.4430
12655TIP3   OH259379   4.007   2.781   1.243 -0.1687  0.6633 -0.2423
12655TIP3    H159380   4.093   2.742   1.234  0.1473  1.2347  0.2652
12655TIP3    H259381   3.948   2.722   1.195  0.4782  0.2032 -0.4687
12656TIP3   OH259382   4.284   4.430  12.084  0.0817  0.2276  0.2120
12656TIP3    H159383   4.196   4.465  12.075  0.8154  1.7477 -1.2636
12656TIP3    H259384   4.340   4.492  12.036  2.0469 -0.2779  1.7527
12657TIP3   OH259385   1.150   2.145  13.917  0.2391  0.2278  0.1430
12657TIP3    H159386   1.240   2.178  13.924  1.2868 -1.9250 -2.5753
12657TIP3    H259387   1.118   2.180  13.834 -1.5515  1.1372  1.1759
12658TIP3   OH259388   2.951   1.595  16.436 -0.1834 -0.6637 -0.1100
12658TIP3    H159389   2.986   1.538  16.504 -0.8050 -0.5593  0.2975
12658TIP3    H259390   2.884   1.647  16.480 -1.6937 -1.6773 -1.1256
12659TIP3   OH259391   6.113   2.236  12.244  0.9187 -0.2733 -0.5275
12659TIP3    H159392   6.154   2.158  12.206  1.8423 -1.6911  3.2006
12659TIP3    H259393   6.020   2.226  12.224  0.9011 -2.8089  0.6539
12660TIP3   OH259394   0.138   4.948  12.747 -0.6078  0.2080 -0.1722
12660TIP3    H159395   0.133   5.043  12.757  1.1434  0.2675  0.3099
12660TIP3    H259396   0.120   4.914  12.835 -0.5199  0.1285 -0.1838
12661TIP3   OH259397   3.486   4.389  11.172  0.2020  0.1727  0.4018
12661TIP3    H159398   3.426   4.346  11.112  0.2570 -0.6114  0.8993
12661TIP3    H259399   3.535   4.317  11.212  1.7308  0.8111 -0.2677
12662TIP3   OH259400   4.641   2.389  14.025 -0.2134 -0.1234  0.3530
12662TIP3    H159401   4.561   2.345  14.052 -0.3228  0.8722  1.7076
12662TIP3    H259402   4.677   2.426  14.106  1.7547 -0.7686 -0.1881
12663TIP3   OH259403   6.764   6.623   2.118 -0.0380  0.3810 -0.1790
12663TIP3    H159404   6.843   6.626   2.172 -0.1777  2.9481 -0.0513
12663TIP3    H259405   6.731   6.713   2.118 -0.8102  0.1898 -3.4155
12664TIP3   OH259406   5.809   1.750  16.177  0.6434 -0.1980 -0.1930
12664TIP3    H159407   5.772   1.805  16.108 -0.0342 -0.7183 -0.2390
12664TIP3    H259408   5.872   1.808  16.221 -0.2443  0.7051 -0.0850
12665TIP3   OH259409   2.999   3.415  14.226  0.7052  1.1971 -0.1877
12665TIP3    H159410   2.988   3.507  14.206 -0.2361  1.2875  0.7404
12665TIP3    H259411   2.941   3.369  14.165  1.7343  1.1543 -1.1643
12666TIP3   OH259412   4.744   2.412  14.680  0.0261 -0.5072  0.1055
12666TIP3    H159413   4.804   2.460  14.623 -0.1740  1.0542  1.1880
12666TIP3    H259414   4.662   2.462  14.678 -0.1461 -0.7016  1.3466
12667TIP3   OH259415   6.423   2.238  15.108 -0.3294  0.2355  0.0830
12667TIP3    H159416   6.373   2.216  15.186  1.2269 -0.2773  0.9663
12667TIP3    H259417   6.422   2.159  15.054 -1.0998  0.4736 -0.2567
12668TIP3   OH259418   5.053   1.608   2.954 -0.3104 -1.0532 -0.3074
12668TIP3    H159419   5.118   1.551   2.912 -1.7750 -1.3704 -2.2483
12668TIP3    H259420   4.986   1.548   2.986  0.0417 -0.6820  1.1514
12669TIP3   OH259421   2.553   0.281  17.007 -0.2510 -0.0339 -0.6201
12669TIP3    H159422   2.471   0.302  16.962 -0.5414  0.5808  0.1842
12669TIP3    H259423   2.616   0.345  16.973 -0.7293  1.1157  0.6109
12670TIP3   OH259424   2.652   1.484  12.444 -0.1274 -0.0013 -0.7091
12670TIP3    H159425   2.720   1.498  12.378 -0.4601 -0.3514 -1.1283
12670TIP3    H259426   2.677   1.403  12.489  0.1714  0.3082 -0.3105
12671TIP3   OH259427   0.966   3.509  15.977  0.0595  0.3533 -0.0688
12671TIP3    H159428   0.893   3.565  15.953 -0.3605 -0.0791  0.1810
12671TIP3    H259429   1.032   3.569  16.012 -1.5625  0.4507  3.0609
12672TIP3   OH259430   1.909   3.681   0.629  0.3029 -0.3195 -0.1237
12672TIP3    H159431   1.972   3.722   0.689  0.5139  0.7791 -1.0844
12672TIP3    H259432   1.950   3.689   0.543  0.3001 -2.4680 -0.3591
12673TIP3   OH259433   1.814   3.394  16.098  0.3981 -0.5064  0.1435
12673TIP3    H159434   1.828   3.452  16.023 -1.5476 -1.2956 -0.8793
12673TIP3    H259435   1.889   3.334  16.097 -1.4128 -2.8904 -3.4885
12674TIP3   OH259436   5.655   3.292  13.746 -0.0604 -0.6067 -0.1668
12674TIP3    H159437   5.724   3.315  13.808 -0.3965  0.2737 -0.1089
12674TIP3    H259438   5.585   3.255  13.801 -0.6537  0.8424  0.0838
12675TIP3   OH259439   6.714   3.234   5.517 -0.6529 -0.2941 -0.1828
12675TIP3    H159440   6.700   3.327   5.499 -4.2010 -0.6882  0.1370
12675TIP3    H259441   6.780   3.233   5.587 -0.0442  1.9454 -0.6920
12676TIP3   OH259442   6.197   3.419   5.431 -0.0246 -0.2122 -0.2819
12676TIP3    H159443   6.196   3.421   5.527 -0.7246 -1.7907 -0.2417
12676TIP3    H259444   6.195   3.511   5.406  2.5203  0.3133  1.2230
12677TIP3   OH259445   1.154   5.518  16.974  0.0198  0.0394 -0.3793
12677TIP3    H159446   1.105   5.462  16.915 -1.6883  2.0422 -0.9348
12677TIP3    H259447   1.194   5.458  17.037 -4.3940 -1.6311  1.0023
12678TIP3   OH259448   5.981   4.295   1.988  0.0742  0.6144 -0.3803
12678TIP3    H159449   6.062   4.251   2.012 -0.4208 -0.3637 -0.4736
12678TIP3    H259450   5.935   4.232   1.933 -1.3384  0.6539  0.7364
12679TIP3   OH259451   4.725   0.042  15.973 -0.4999  0.0573 -0.7238
12679TIP3    H159452   4.787  -0.029  15.989 -1.0126 -0.2207  0.0882
12679TIP3    H259453   4.691   0.064  16.060 -0.5866  1.0762 -1.0104
12680TIP3   OH259454   6.505   6.449  16.319 -0.2965  0.1593  0.1674
12680TIP3    H159455   6.453   6.517  16.277 -0.4890 -0.4015 -0.5131
12680TIP3    H259456   6.458   6.429  16.400  0.1936  1.3990  0.7604
12681TIP3   OH259457   1.445   1.873  14.226  0.5244  0.0270 -0.1650
12681TIP3    H159458   1.497   1.939  14.272 -1.0086  1.2025 -0.0901
12681TIP3    H259459   1.362   1.917  14.207 -0.3510 -1.7417 -0.5047
12682TIP3   OH259460   6.216   3.647   5.773 -0.1006 -0.1642 -0.1720
12682TIP3    H159461   6.224   3.552   5.783 -0.9646 -0.4494 -1.9411
12682TIP3    H259462   6.290   3.671   5.718 -0.2010  0.1073 -0.1865
12683TIP3   OH259463   0.367   4.983  12.508 -1.0711 -0.5280  0.3126
12683TIP3    H159464   0.391   4.897  12.475 -0.2904  0.4130 -1.7080
12683TIP3    H259465   0.271   4.985  12.503 -1.0187 -0.7121 -1.2367
12684TIP3   OH259466   6.735   0.638   0.755  0.3807  0.5237 -0.5669
12684TIP3    H159467   6.790   0.611   0.681  0.9683  1.4912 -0.4889
12684TIP3    H259468   6.707   0.556   0.795 -0.5101 -0.0325 -2.2836
12685TIP3   OH259469   0.635   2.535  12.695  0.6300  0.3797 -0.4339
12685TIP3    H159470   0.589   2.458  12.660  0.2832  0.4822 -0.1989
12685TIP3    H259471   0.619   2.532  12.789  2.9274 -0.8072 -0.0487
12686TIP3   OH259472   2.923   2.550  13.131 -0.1367 -0.4156 -0.3127
12686TIP3    H159473   2.965   2.514  13.209  1.2115 -1.8076 -1.6454
12686TIP3    H259474   2.913   2.644  13.150  0.1998 -0.7256  1.4904
12687TIP3   OH259475   0.562   6.162   3.836  0.0848  0.1654  0.0453
12687TIP3    H159476   0.525   6.113   3.909 -0.9726  0.5284 -0.2425
12687TIP3    H259477   0.524   6.121   3.758 -0.5231  1.1906 -0.2137
12688TIP3   OH259478   6.001   5.877  15.821 -0.7708  0.2796  0.2700
12688TIP3    H159479   6.069   5.820  15.857 -1.5991 -2.1133 -1.7712
12688TIP3    H259480   6.039   5.911  15.740 -1.2212  0.6194  0.2007
12689TIP3   OH259481   0.207   2.161   4.688  0.4020  0.2084 -0.1055
12689TIP3    H159482   0.176   2.203   4.608  1.7898 -0.2023 -0.8785
12689TIP3    H259483   0.292   2.202   4.706  0.7748 -0.7301  0.3327
12690TIP3   OH259484   6.779   2.677   3.297  0.6187 -0.2320 -0.5210
12690TIP3    H159485   6.734   2.747   3.250  0.0353  1.1425  1.9810
12690TIP3    H259486   6.846   2.723   3.349  2.0411 -1.8213 -0.8867
12691TIP3   OH259487   3.539   0.850  11.083 -0.3074  0.1684  0.2378
12691TIP3    H159488   3.590   0.773  11.059 -1.7012 -1.1549  1.4295
12691TIP3    H259489   3.549   0.857  11.178 -1.6408  0.3680  0.3750
12692TIP3   OH259490   4.976   0.319   0.446 -0.0048  0.3862 -0.3827
12692TIP3    H159491   4.886   0.330   0.416 -0.1651  0.0459 -0.0311
12692TIP3    H259492   5.003   0.407   0.472 -1.7239 -0.1560  3.6491
12693TIP3   OH259493   3.722   2.032   5.345  0.3470 -0.8136 -0.0702
12693TIP3    H159494   3.789   2.063   5.405 -0.3944  2.1722 -0.7241
12693TIP3    H259495   3.641   2.035   5.395  0.1727 -1.1943 -0.3191
12694TIP3   OH259496   5.662   1.714  16.424  0.1951 -0.0077 -0.1488
12694TIP3    H159497   5.613   1.777  16.476  0.4051  0.5460 -0.6155
12694TIP3    H259498   5.687   1.762  16.345  0.4229 -0.6491 -0.4761
12695TIP3   OH259499   0.517   3.564  12.176 -0.2756 -0.2935  0.2649
12695TIP3    H159500   0.428   3.600  12.174 -0.1132  0.1454  0.7155
12695TIP3    H259501   0.519   3.511  12.255  0.2978  0.8494  1.0263
12696TIP3   OH259502   3.530   3.317   0.714  0.5534 -0.2652 -0.3633
12696TIP3    H159503   3.506   3.240   0.662 -0.5148  1.2707 -2.2295
12696TIP3    H259504   3.477   3.310   0.793  1.7145 -2.3134  0.2659
12697TIP3   OH259505   3.601   2.307   5.739 -0.2901 -0.0957  0.4752
12697TIP3    H159506   3.646   2.377   5.692  1.3975 -0.6774  1.1736
12697TIP3    H259507   3.518   2.346   5.766 -0.3541  0.9106 -1.0901
12698TIP3   OH259508   1.347   0.385  12.919 -0.5196  0.5787 -0.5555
12698TIP3    H159509   1.359   0.436  12.999  1.1359 -0.5789 -0.0687
12698TIP3    H259510   1.344   0.294  12.948  0.8668  0.0999 -1.8983
12699TIP3   OH259511   1.616   5.163  12.068 -0.0052 -0.0710  0.2444
12699TIP3    H159512   1.574   5.108  12.134  2.1139 -0.7007  1.1308
12699TIP3    H259513   1.702   5.123  12.054  0.9437  2.0528 -0.3053
12700TIP3   OH259514   0.246   6.331  11.242 -0.7568 -0.5421 -1.0273
12700TIP3    H159515   0.316   6.293  11.188 -0.8364 -0.3694 -1.2540
12700TIP3    H259516   0.221   6.411  11.195  0.7612  0.8537  0.4399
12701TIP3   OH259517   0.702   4.700   2.468  0.3650  0.1676  0.1525
12701TIP3    H159518   0.788   4.727   2.435  0.6587  0.6151  1.2729
12701TIP3    H259519   0.640   4.726   2.399  0.7476  2.7441  0.7352
12702TIP3   OH259520   6.193   2.536   3.894  0.1356  0.4064 -0.4015
12702TIP3    H159521   6.157   2.624   3.905 -1.4715 -0.3789  0.8329
12702TIP3    H259522   6.129   2.490   3.841  0.0865 -0.5310  0.4564
12703TIP3   OH259523   6.715   6.233   2.298 -0.3587  0.4233 -0.1033
12703TIP3    H159524   6.804   6.232   2.263 -0.3663 -1.9196 -0.0881
12703TIP3    H259525   6.671   6.303   2.250  0.6529 -0.3577 -2.2094
12704TIP3   OH259526   3.038   6.379  14.273  0.1164  0.2261  0.1488
12704TIP3    H159527   3.040   6.474  14.263 -0.7005  0.2989  0.5863
12704TIP3    H259528   2.945   6.359  14.286 -0.0117 -0.8693 -2.2010
12705TIP3   OH259529   6.165   0.732   2.599  0.2774 -0.0007 -0.0051
12705TIP3    H159530   6.109   0.779   2.538  1.7202  2.1532  0.2785
12705TIP3    H259531   6.115   0.728   2.680 -0.0152  0.7036 -0.1515
12706TIP3   OH259532   4.116   6.631   5.490  0.3802  0.3210  0.5550
12706TIP3    H159533   4.197   6.683   5.492 -0.6378  2.0029 -0.4734
12706TIP3    H259534   4.073   6.652   5.574  0.8103 -0.2454  0.9180
12707TIP3   OH259535   6.768   4.549  13.292 -0.2881 -0.4487 -0.5486
12707TIP3    H159536   6.684   4.536  13.250 -0.7417 -2.0590  0.8239
12707TIP3    H259537   6.763   4.500  13.374  0.6929  2.3124  1.2535
12708TIP3   OH259538   0.057   0.317   0.137 -0.2162 -0.4526 -0.4882
12708TIP3    H159539   0.073   0.377   0.064  0.0555  1.8923  1.4257
12708TIP3    H259540   0.006   0.246   0.099  0.3869  0.4391 -3.0699
12709TIP3   OH259541   2.447   4.095  11.736  0.6588 -0.1067 -0.1456
12709TIP3    H159542   2.480   4.083  11.825  2.2659 -1.8579 -0.9463
12709TIP3    H259543   2.353   4.076  11.743  0.4602  1.3727  1.4702
12710TIP3   OH259544   3.231   1.080   1.436 -0.1867 -0.0297  0.1644
12710TIP3    H159545   3.290   1.117   1.370  0.6145 -1.8949 -0.1826
12710TIP3    H259546   3.148   1.069   1.391 -0.0024 -0.0678 -0.1647
12711TIP3   OH259547   2.486   5.500  11.924  0.5206 -0.1915 -0.3979
12711TIP3    H159548   2.450   5.543  12.002 -2.3798  0.0368 -1.8101
12711TIP3    H259549   2.489   5.407  11.947 -1.3942 -0.2589 -0.4040
12712TIP3   OH259550   3.893   1.419  16.744  0.1678  0.5999  0.0707
12712TIP3    H159551   3.942   1.499  16.725 -0.3443  1.3957  1.9412
12712TIP3    H259552   3.837   1.443  16.819 -1.0579 -1.0813 -0.2772
12713TIP3   OH259553   3.257   2.514   5.375 -0.1467 -0.3949  0.3226
12713TIP3    H159554   3.302   2.475   5.450 -1.0812 -1.6814  0.2398
12713TIP3    H259555   3.232   2.602   5.404  0.4400 -0.4977  1.1366
12714TIP3   OH259556   2.645   4.741   2.541  0.2318  0.1631  0.2333
12714TIP3    H159557   2.672   4.650   2.548  0.8765  0.2031 -1.3835
12714TIP3    H259558   2.726   4.792   2.551  0.2740  0.4307 -1.2839
12715TIP3   OH259559   0.631   1.385   3.332 -0.0654  0.0050 -0.4604
12715TIP3    H159560   0.587   1.393   3.248  0.2110 -0.0049 -0.6064
12715TIP3    H259561   0.724   1.372   3.310  0.2067  1.3490 -0.1339
12716TIP3   OH259562   1.935   2.930  10.996 -0.2888 -0.4987 -0.2808
12716TIP3    H159563   1.866   2.864  11.006 -0.5045 -0.1876  0.2582
12716TIP3    H259564   1.891   3.014  11.008  0.3371 -0.3318  0.9563
12717TIP3   OH259565   4.445   0.782  11.173 -0.7483  0.1628  0.2998
12717TIP3    H159566   4.461   0.725  11.248 -1.0221 -0.5822 -0.1970
12717TIP3    H259567   4.468   0.870  11.204  2.0057 -0.5224  0.3244
12718TIP3   OH259568   5.626   1.863  14.652 -0.1870 -0.2136  0.5374
12718TIP3    H159569   5.633   1.920  14.576  0.5346 -1.7458 -0.5670
12718TIP3    H259570   5.638   1.921  14.727 -2.6896  1.6072 -0.4196
12719TIP3   OH259571   3.214   4.443  16.273 -0.3533 -0.0472 -0.2090
12719TIP3    H159572   3.187   4.359  16.236 -0.2112 -0.0813 -0.2373
12719TIP3    H259573   3.187   4.439  16.365  0.1623 -0.3569 -0.0630
12720TIP3   OH259574   6.777   4.805   2.664 -0.0965  0.1290  0.2660
12720TIP3    H159575   6.870   4.826   2.672 -0.0805  0.6223 -1.1112
12720TIP3    H259576   6.736   4.850   2.739  0.8556 -0.7297  1.3250
12721TIP3   OH259577   5.462   1.519   0.553 -0.0428  0.1451  1.0910
12721TIP3    H159578   5.491   1.523   0.461  1.3140  1.8834  1.5637
12721TIP3    H259579   5.367   1.528   0.548  0.1915  2.4220 -0.0382
12722TIP3   OH259580   4.049   2.618   3.977 -0.3513  0.1265  0.0942
12722TIP3    H159581   4.048   2.612   3.882  2.1717  2.5212 -0.1223
12722TIP3    H259582   4.061   2.711   3.996 -1.4137 -0.2310  2.7690
12723TIP3   OH259583   5.191   2.391   4.497 -0.0784 -0.3194 -0.3762
12723TIP3    H159584   5.278   2.428   4.482 -0.1333  0.2655  0.7101
12723TIP3    H259585   5.164   2.359   4.411  0.3877  1.2752 -1.1381
12724TIP3   OH259586   2.219   5.163  13.601 -0.6607 -0.6157  0.0863
12724TIP3    H159587   2.289   5.134  13.541 -0.5024  1.1799 -0.6176
12724TIP3    H259588   2.256   5.239  13.646 -2.8409  1.6185 -1.7487
12725TIP3   OH259589   6.358   3.289  10.568 -0.0140  0.3862  0.0153
12725TIP3    H159590   6.282   3.274  10.624  0.3097 -1.0608  0.0904
12725TIP3    H259591   6.368   3.208  10.518  1.3011  0.6667 -0.2118
12726TIP3   OH259592   0.310   3.726   5.602 -0.0325  0.3753 -0.0107
12726TIP3    H159593   0.257   3.755   5.677  0.8480 -1.2484  1.2810
12726TIP3    H259594   0.332   3.635   5.622  0.5548  0.0362 -2.0780
12727TIP3   OH259595   6.062   5.073   5.415  1.2320 -0.9543 -0.0651
12727TIP3    H159596   6.050   4.983   5.447 -0.3412 -0.6995  0.1063
12727TIP3    H259597   5.980   5.092   5.368  0.5385  1.2336  1.9527
12728TIP3   OH259598   0.937   4.635  16.110 -0.0446  0.1917 -0.1476
12728TIP3    H159599   0.917   4.648  16.017  0.0742  1.9702  0.0533
12728TIP3    H259600   0.871   4.687  16.156  1.3174  1.1905  0.6973
12729TIP3   OH259601   5.366   4.197  14.424  0.7970  0.6391 -0.1517
12729TIP3    H159602   5.425   4.273  14.428  1.8683 -0.3168  3.6896
12729TIP3    H259603   5.289   4.223  14.474 -1.0092  0.8788 -2.9034
12730TIP3   OH259604   5.709   4.019  12.358 -0.4788  0.2271  0.6344
12730TIP3    H159605   5.640   4.039  12.295  1.2913  1.8040 -0.8570
12730TIP3    H259606   5.753   4.102  12.372  1.0978 -0.7553  1.6084
12731TIP3   OH259607   5.624   1.155  14.802  0.4010 -0.0707 -0.0686
12731TIP3    H159608   5.708   1.186  14.769  1.4933  0.2269  2.8034
12731TIP3    H259609   5.621   1.062  14.779  1.8189 -0.2317  0.4037
12732TIP3   OH259610   0.348   3.481  14.519  0.8185 -0.1866 -0.4038
12732TIP3    H159611   0.410   3.472  14.591 -0.8833 -2.2115  0.8585
12732TIP3    H259612   0.401   3.510  14.445  2.8360  0.5205  1.2780
12733TIP3   OH259613   1.450   4.011   6.273 -0.5321 -0.5530 -0.1127
12733TIP3    H159614   1.455   3.923   6.310 -0.2460 -0.2489  0.5783
12733TIP3    H259615   1.509   4.009   6.198  2.9715  0.3021  2.4948
12734TIP3   OH259616   0.604   1.542  15.074 -0.6868  0.2642  0.0823
12734TIP3    H159617   0.543   1.605  15.113 -0.3174  1.2430 -0.9039
12734TIP3    H259618   0.559   1.510  14.996 -0.4385  0.0723  0.0181
12735TIP3   OH259619   1.759   5.744   0.408 -0.6303  0.0653  0.2989
12735TIP3    H159620   1.809   5.780   0.335 -1.6409 -1.6717 -1.3123
12735TIP3    H259621   1.769   5.649   0.399 -3.6156 -0.3153  0.2865
12736TIP3   OH259622   1.389   4.346   2.436 -0.4969  0.0464  0.3474
12736TIP3    H159623   1.311   4.346   2.380 -1.3868  1.3561  1.5699
12736TIP3    H259624   1.368   4.286   2.507 -0.4379  0.4984  0.7482
12737TIP3   OH259625   2.620   2.079   0.668 -0.2577  0.0117  0.6948
12737TIP3    H159626   2.681   2.071   0.595 -0.0883  1.8584  0.5949
12737TIP3    H259627   2.660   2.027   0.738  2.5508  2.7994  1.2951
12738TIP3   OH259628   0.696   4.371  14.294 -0.4272 -0.0700  0.1584
12738TIP3    H159629   0.738   4.445  14.250  0.7810 -0.9975 -0.2994
12738TIP3    H259630   0.768   4.310  14.312 -1.2545 -0.6963  1.4101
12739TIP3   OH259631   3.572   4.228   3.279 -0.3189  0.2002  0.6638
12739TIP3    H159632   3.480   4.213   3.301 -0.0709 -2.4128  0.0844
12739TIP3    H259633   3.620   4.171   3.340  0.8950  1.1409  0.5968
12740TIP3   OH259634   4.090   1.728   4.511 -0.1478 -0.1248  0.2176
12740TIP3    H159635   4.038   1.680   4.445 -1.4920 -0.0099  1.1749
12740TIP3    H259636   4.090   1.670   4.587 -0.2346  0.6029  0.7706
12741TIP3   OH259637   0.380   6.149   5.805  0.1911 -0.2022 -0.1504
12741TIP3    H159638   0.295   6.186   5.784 -0.0505  0.8350  2.3977
12741TIP3    H259639   0.360   6.073   5.860  0.8877 -0.3120 -0.0470
12742TIP3   OH259640   6.227   1.858   6.371  0.2802  0.2018 -0.0886
12742TIP3    H159641   6.312   1.900   6.359  0.4437 -0.7134 -2.3791
12742TIP3    H259642   6.249   1.769   6.399  0.0153  0.6318  1.5022
12743TIP3   OH259643   6.375   3.522  12.499  0.3624  0.6001 -0.0008
12743TIP3    H159644   6.385   3.489  12.410 -0.0785 -0.2487  0.2576
12743TIP3    H259645   6.287   3.559  12.501  0.0463 -0.1686  0.3299
12744TIP3   OH259646   2.389   5.767  13.845  0.7246 -0.2648 -0.1053
12744TIP3    H159647   2.388   5.861  13.858  1.1672 -0.3202  0.3593
12744TIP3    H259648   2.433   5.732  13.923  0.3321 -0.8727 -0.1445
12745TIP3   OH259649   2.608   0.620  17.098 -0.8122 -0.2839  0.4547
12745TIP3    H159650   2.644   0.695  17.144 -0.1862 -0.5293  0.3579
12745TIP3    H259651   2.666   0.607  17.023 -0.7972 -0.9911  0.5842
12746TIP3   OH259652   4.559   5.090   5.012 -0.2159 -0.3762  0.3074
12746TIP3    H159653   4.580   5.165   5.068 -1.2380  1.0039 -1.1295
12746TIP3    H259654   4.598   5.015   5.057  1.6203  1.1358  1.3141
12747TIP3   OH259655   2.699   6.114  13.110 -0.4045  0.3974  0.3685
12747TIP3    H159656   2.635   6.128  13.040 -0.5910  0.0007  0.4563
12747TIP3    H259657   2.731   6.201  13.132  1.0360  0.3977 -1.5151
12748TIP3   OH259658   4.512   5.886   0.668 -0.1401  0.3427  0.3768
12748TIP3    H159659   4.604   5.864   0.651 -0.1815  0.4394  0.0186
12748TIP3    H259660   4.486   5.940   0.593 -0.8736 -0.7867 -0.2065
12749TIP3   OH259661   5.128   4.798   0.201  0.1932 -0.4513 -0.1105
12749TIP3    H159662   5.181   4.742   0.143  0.2914 -1.6362  1.0905
12749TIP3    H259663   5.170   4.789   0.286  0.8188  2.2915 -0.0841
12750TIP3   OH259664   0.743   1.078  11.635  0.2825 -0.7041  0.4000
12750TIP3    H159665   0.725   1.144  11.702  0.9241  0.5804 -0.6595
12750TIP3    H259666   0.664   1.076  11.581  0.8046  0.2958 -0.4380
12751TIP3   OH259667   1.523   1.394   4.618  0.5025  0.1438 -0.3360
12751TIP3    H159668   1.610   1.370   4.586  0.0908 -2.6749  0.5573
12751TIP3    H259669   1.495   1.465   4.560  3.5569  1.4043 -0.3563
12752TIP3   OH259670   0.238   3.580  13.384  0.1372  0.2828  0.1985
12752TIP3    H159671   0.253   3.659  13.332  0.8906 -0.1741 -0.2779
12752TIP3    H259672   0.192   3.612  13.462  0.7486  1.2339  0.1805
12753TIP3   OH259673   3.771   3.061  15.410  0.0604 -0.8276  0.2230
12753TIP3    H159674   3.850   3.115  15.412  0.6910 -1.7377  0.6028
12753TIP3    H259675   3.742   3.064  15.319  0.3058 -0.1615  0.1658
12754TIP3   OH259676   6.335   4.546  16.891  0.4812  0.0214  0.7100
12754TIP3    H159677   6.370   4.488  16.823 -0.1705  0.6709 -0.1884
12754TIP3    H259678   6.314   4.488  16.964  0.6353 -0.7649  0.1303
12755TIP3   OH259679   2.906   4.706   0.613 -0.4661 -0.0182 -0.0199
12755TIP3    H159680   2.915   4.612   0.597 -1.5527 -0.0261 -0.6692
12755TIP3    H259681   2.837   4.734   0.552  1.8179  1.7652 -1.8494
12756TIP3   OH259682   0.540   1.043  16.335 -0.0078  0.0211  0.3975
12756TIP3    H159683   0.607   1.037  16.267 -0.1157 -1.1181  0.3865
12756TIP3    H259684   0.528   1.137  16.348 -1.7926  0.3128 -2.9338
12757TIP3   OH259685   3.713   0.608   4.178  0.1977 -0.1280  0.0773
12757TIP3    H159686   3.706   0.533   4.238 -0.3722 -0.1292  0.0151
12757TIP3    H259687   3.732   0.568   4.093 -1.6822 -0.3377 -0.2768
12758TIP3   OH259688   2.427   1.788  12.655  0.0777 -0.2525  0.5767
12758TIP3    H159689   2.409   1.696  12.676 -0.0431 -0.9787 -2.5092
12758TIP3    H259690   2.370   1.808  12.581  0.2550  2.2719  1.0695
12759TIP3   OH259691   6.026   6.663  12.463 -0.2929 -0.3331  0.3393
12759TIP3    H159692   6.099   6.699  12.513 -0.8865  0.3396  0.7218
12759TIP3    H259693   5.965   6.630  12.530  0.1689 -1.9171  0.0046
12760TIP3   OH259694   4.240   5.351   3.240 -0.0776  0.2479  0.0287
12760TIP3    H159695   4.334   5.352   3.223  0.2503  2.2322  1.7304
12760TIP3    H259696   4.209   5.270   3.199  1.8359  1.1012 -3.2754
12761TIP3   OH259697   1.099   2.323   0.717 -0.0998  0.5528 -0.4233
12761TIP3    H159698   1.149   2.390   0.763  1.7718 -1.5382  0.6736
12761TIP3    H259699   1.010   2.331   0.752  0.5270  1.2368  1.0616
12762TIP3   OH259700   3.486   3.848   3.366  0.0243 -0.3123 -0.3628
12762TIP3    H159701   3.506   3.770   3.417  0.8627 -0.3568 -0.7498
12762TIP3    H259702   3.497   3.821   3.275 -2.2479 -0.4458 -0.6101
12763TIP3   OH259703   4.875   6.393   3.181  0.6524  0.1583 -0.4887
12763TIP3    H159704   4.815   6.342   3.127  1.1906  1.1544 -2.0783
12763TIP3    H259705   4.886   6.341   3.261 -1.2578 -0.6689 -0.7317
12764TIP3   OH259706   1.754   1.061  14.674  0.1497  0.5754 -0.6596
12764TIP3    H159707   1.849   1.052  14.667  0.2031  0.5396  0.0778
12764TIP3    H259708   1.722   1.051  14.584  0.8573  0.7789 -0.9361
12765TIP3   OH259709   4.583   4.071  17.179  0.0547  0.3015 -0.5345
12765TIP3    H159710   4.585   3.975  17.172  1.7049  0.2455  0.4131
12765TIP3    H259711   4.504   4.090  17.228  0.1423 -0.6245 -0.0216
12766TIP3   OH259712   6.466   6.227   4.063  0.0930  0.4142 -0.0729
12766TIP3    H159713   6.406   6.173   4.012 -0.9690  2.9281 -1.5762
12766TIP3    H259714   6.433   6.316   4.053  2.9818  1.6259  0.6198
12767TIP3   OH259715   6.035   2.689   0.495 -0.7521  0.0302 -0.0723
12767TIP3    H159716   6.108   2.654   0.443 -0.7442 -1.0828  0.6605
12767TIP3    H259717   6.042   2.784   0.485  0.5448 -0.0799 -0.3665
12768TIP3   OH259718   3.673   5.703  16.879  0.3382  0.3360  0.1979
12768TIP3    H159719   3.691   5.690  16.786  0.2889 -0.0699  0.2430
12768TIP3    H259720   3.600   5.766  16.881 -0.6960 -0.8207 -0.0838
12769TIP3   OH259721   5.052   3.881  14.213 -0.0575 -0.0003  0.2184
12769TIP3    H159722   5.044   3.829  14.134  0.6244 -0.4547  0.4374
12769TIP3    H259723   5.100   3.960  14.186  0.2489 -0.1948  0.1927
12770TIP3   OH259724   3.303   5.979  14.355  0.5221 -0.0727  0.0693
12770TIP3    H159725   3.397   5.995  14.359  0.4536  0.0344  1.1596
12770TIP3    H259726   3.294   5.905  14.293  1.3312 -0.2433  0.1533
12771TIP3   OH259727   6.046   2.737   5.920  0.4809  0.5094  0.0487
12771TIP3    H159728   6.112   2.806   5.929  0.4134  0.3649  1.7453
12771TIP3    H259729   6.081   2.681   5.850  1.7014  0.9551  0.2834
12772TIP3   OH259730   4.585   4.929  14.868  0.5013  0.1333  0.1315
12772TIP3    H159731   4.601   5.000  14.929  1.0155  0.4536 -0.3642
12772TIP3    H259732   4.563   4.973  14.785  1.2618 -0.2718 -0.2895
12773TIP3   OH259733   0.072   4.985  14.189  0.3473 -0.2493  0.0877
12773TIP3    H159734   0.041   5.034  14.265 -0.2545  0.7010 -0.7549
12773TIP3    H259735   0.049   4.894  14.209 -1.3076  0.1968  0.3325
12774TIP3   OH259736   1.270   6.698   6.108  0.3669 -0.0300  0.4169
12774TIP3    H159737   1.181   6.662   6.105 -0.1086  1.1479  0.2028
12774TIP3    H259738   1.308   6.675   6.023 -0.1967  0.6179 -0.0158
12775TIP3   OH259739   1.888   5.283  16.211  0.3701  0.0235 -0.6974
12775TIP3    H159740   1.837   5.228  16.271 -2.0071 -0.3226 -2.9391
12775TIP3    H259741   1.953   5.223  16.174  0.8568 -0.1227  0.3552
12776TIP3   OH259742   4.960   4.117   2.926  0.6709  0.1599  0.2773
12776TIP3    H159743   5.005   4.070   2.855 -1.1568 -1.2417 -0.0050
12776TIP3    H259744   4.989   4.072   3.006 -1.6723 -2.0292 -0.0498
12777TIP3   OH259745   4.134   6.535   6.621  0.6490 -0.5145 -0.7351
12777TIP3    H159746   4.197   6.499   6.558  0.9405 -1.4137  0.0490
12777TIP3    H259747   4.150   6.629   6.622  0.4245 -0.4514 -2.2395
12778TIP3   OH259748   6.186   5.728   5.948  0.6218 -0.1006  1.0181
12778TIP3    H159749   6.262   5.723   6.006  0.7406 -1.3582  0.7747
12778TIP3    H259750   6.166   5.636   5.928 -0.5404  0.2557  0.5383
12779TIP3   OH259751   4.601   2.775   1.531  0.3468  0.0400  0.1147
12779TIP3    H159752   4.655   2.804   1.604  0.1068  0.5088  0.1056
12779TIP3    H259753   4.661   2.773   1.456  0.2928  0.8159  0.0472
12780TIP3   OH259754   1.734   5.405   3.314  0.0398  0.0013 -0.2400
12780TIP3    H159755   1.704   5.460   3.242  0.1336  1.6044  0.9183
12780TIP3    H259756   1.830   5.410   3.310  0.1580 -2.3178 -1.7937
12781TIP3   OH259757   0.787   5.639  15.326  0.1205 -0.5474  0.1742
12781TIP3    H159758   0.835   5.581  15.385  1.3596  0.5770  0.2898
12781TIP3    H259759   0.786   5.592  15.242  2.4033 -0.1338 -0.1265
12782TIP3   OH259760   3.345   6.502   0.938  0.6060 -0.1735  0.6073
12782TIP3    H159761   3.396   6.469   1.012  1.6954  0.2642  0.0606
12782TIP3    H259762   3.335   6.595   0.955  1.2592  0.0134 -0.0349
12783TIP3   OH259763   4.356   5.003  14.699 -0.3473 -0.0013  0.3756
12783TIP3    H159764   4.324   5.064  14.633  2.2249  1.5668  0.4944
12783TIP3    H259765   4.390   4.929  14.649 -1.6442 -0.4335  0.1285
12784TIP3   OH259766   2.098   1.107   5.579  0.3302 -0.0549  0.3741
12784TIP3    H159767   2.110   1.163   5.656  1.2208 -1.3047  1.1739
12784TIP3    H259768   2.156   1.032   5.595  3.1181  1.2696 -3.1153
12785TIP3   OH259769   6.393   6.604   0.069 -0.0657 -0.3956 -0.2029
12785TIP3    H159770   6.322   6.615   0.132  0.4515 -1.9478  0.6652
12785TIP3    H259771   6.352   6.561  -0.006 -0.3546  0.0884 -0.3275
12786TIP3   OH259772   0.317   2.740   5.898  0.2119  0.3370 -0.0696
12786TIP3    H159773   0.292   2.803   5.966  2.5925  0.6377  0.5496
12786TIP3    H259774   0.248   2.674   5.901 -0.2328  0.8621  1.9747
12787TIP3   OH259775   3.818   2.834  12.915 -0.0272  0.0692 -0.8788
12787TIP3    H159776   3.783   2.795  12.835 -2.7490 -0.1328  0.3575
12787TIP3    H259777   3.900   2.787  12.930 -0.2706 -0.9945 -2.6532
12788TIP3   OH259778   6.531   2.546   2.569 -0.6176  0.3664  0.6546
12788TIP3    H159779   6.453   2.597   2.545 -0.4603  1.3288  2.0953
12788TIP3    H259780   6.587   2.608   2.616  0.4705 -0.6324  0.7086
12789TIP3   OH259781   1.107   3.580  11.804  0.1510 -0.0333 -0.2873
12789TIP3    H159782   1.083   3.647  11.740  2.7170 -0.3830 -1.6977
12789TIP3    H259783   1.028   3.525  11.811 -0.7748  1.0388 -1.8123
12790TIP3   OH259784   3.738   3.454  17.061 -0.0887 -0.2925  0.1196
12790TIP3    H159785   3.763   3.546  17.049 -0.7410 -0.0855  0.2989
12790TIP3    H259786   3.755   3.436  17.153  0.2356 -0.4118  0.0347
12791TIP3   OH259787   4.691   1.702   3.921 -0.0442  0.3434 -0.0393
12791TIP3    H159788   4.603   1.678   3.890  0.2201  1.0189 -1.3759
12791TIP3    H259789   4.705   1.790   3.886  0.7517  0.6580  1.0526
12792TIP3   OH259790   5.411   2.850  12.542  0.0444 -0.4086 -0.1342
12792TIP3    H159791   5.353   2.854  12.466  1.6137 -0.0313 -1.3670
12792TIP3    H259792   5.450   2.762  12.537 -1.2490 -1.0924  1.3466
12793TIP3   OH259793   3.642   4.315   5.020  0.2254 -0.5440  0.0605
12793TIP3    H159794   3.723   4.287   5.063  0.2693 -0.5216 -0.0070
12793TIP3    H259795   3.591   4.358   5.089  1.0071  0.9661 -0.2789
12794TIP3   OH259796   5.947   2.616  16.864  0.1340 -0.2861  0.2188
12794TIP3    H159797   5.866   2.633  16.913  0.6731 -1.1528  1.4231
12794TIP3    H259798   5.990   2.702  16.860  0.6288 -0.4044  2.2734
12795TIP3   OH259799   5.449   2.612  13.995  0.4518  0.0135 -0.0120
12795TIP3    H159800   5.528   2.642  14.041 -0.4366  0.5286  1.2025
12795TIP3    H259801   5.410   2.691  13.959 -0.6594  0.0469  1.2351
12796TIP3   OH259802   2.125   2.848   5.851  0.4332 -0.7148  0.1917
12796TIP3    H159803   2.091   2.931   5.885  0.2448 -1.2366  1.2815
12796TIP3    H259804   2.140   2.866   5.758  0.0663  0.4381  0.3368
12797TIP3   OH259805   1.315   3.040  14.574  0.0465  0.0644 -0.2363
12797TIP3    H159806   1.236   3.024  14.523 -0.0803 -0.7921  0.2297
12797TIP3    H259807   1.284   3.076  14.657  0.2063  0.7007 -0.4521
12798TIP3   OH259808   0.238   5.434   4.677 -0.4590 -0.0552 -0.2540
12798TIP3    H159809   0.192   5.449   4.595 -0.8752  0.1463  0.0163
12798TIP3    H259810   0.241   5.520   4.719  1.9947  0.3690 -1.2057
12799TIP3   OH259811   2.351   6.392   1.838 -0.3531  0.1799 -0.0244
12799TIP3    H159812   2.268   6.344   1.844  0.0020 -0.6743 -1.6062
12799TIP3    H259813   2.377   6.384   1.746  0.5492  2.0310  0.0411
12800TIP3   OH259814   4.830   3.919   1.913  0.3203 -0.1117 -0.2776
12800TIP3    H159815   4.871   3.849   1.861 -1.4188 -1.0547 -0.4191
12800TIP3    H259816   4.751   3.942   1.864 -1.4721 -1.1764  2.0003
12801TIP3   OH259817   2.374   2.310  12.594  0.4353  0.3951 -0.0277
12801TIP3    H159818   2.279   2.315  12.579  0.6430  0.1601 -1.3911
12801TIP3    H259819   2.398   2.399  12.621 -0.4852  0.0022  2.2905
12802TIP3   OH259820   5.182   1.231  17.111  0.7348 -0.2227 -0.3075
12802TIP3    H159821   5.258   1.195  17.065 -0.5409 -1.0817 -1.7767
12802TIP3    H259822   5.122   1.256  17.041 -1.4430 -1.9721  0.9112
12803TIP3   OH259823   5.483   6.528  10.581  0.2168  0.2570 -0.0720
12803TIP3    H159824   5.543   6.602  10.590 -0.8564  1.3305 -1.3931
12803TIP3    H259825   5.537   6.458  10.545  0.8231  1.0083 -0.6458
12804TIP3   OH259826   2.943   3.886   4.823 -0.3167 -0.2986  0.5694
12804TIP3    H159827   2.955   3.796   4.854 -1.5207 -0.9294 -0.6992
12804TIP3    H259828   2.856   3.886   4.784 -0.1209  1.2980  0.0917
12805TIP3   OH259829   2.453   5.972   0.131 -0.4548 -0.4338  0.4989
12805TIP3    H159830   2.547   5.955   0.142 -0.3484 -0.0602  0.1908
12805TIP3    H259831   2.446   6.067   0.136 -0.3885 -0.2124 -2.6851
12806TIP3   OH259832   0.284   5.258   0.316 -0.2155 -0.2502  0.0335
12806TIP3    H159833   0.295   5.205   0.236  0.5879  0.0498 -0.0541
12806TIP3    H259834   0.234   5.201   0.375  0.8813 -1.2333  0.0444
12807TIP3   OH259835   2.474   2.125  12.269 -0.3067  0.1980  0.1021
12807TIP3    H159836   2.391   2.085  12.294 -0.9092  1.7135  0.5848
12807TIP3    H259837   2.523   2.133  12.351 -1.0078  2.2713  0.3420
12808TIP3   OH259838   6.047   1.456  11.955 -0.4750  0.0417  0.4079
12808TIP3    H159839   5.964   1.408  11.965  0.7567 -1.7884  2.4193
12808TIP3    H259840   6.085   1.422  11.874 -0.2169 -1.4899  1.1545
12809TIP3   OH259841   6.489   6.186   3.728  0.1663  0.0445 -0.3950
12809TIP3    H159842   6.409   6.224   3.767  1.1072  1.3837  0.3055
12809TIP3    H259843   6.535   6.262   3.691  0.9841 -0.7571 -1.0209
12810TIP3   OH259844   4.807   3.439   0.999 -0.0132  0.4435 -0.3279
12810TIP3    H159845   4.871   3.482   0.943  0.2196  0.9486  0.3102
12810TIP3    H259846   4.830   3.346   0.996  0.4372  0.5617 -0.4983
12811TIP3   OH259847   0.686   3.253   2.951  0.2597  0.2094  0.1046
12811TIP3    H159848   0.651   3.329   2.904  0.4981  0.9309  1.0606
12811TIP3    H259849   0.780   3.267   2.953  0.6374 -1.6767 -2.3623
12812TIP3   OH259850   0.157   2.080  15.060  0.4672 -0.1128 -0.1150
12812TIP3    H159851   0.077   2.113  15.017  1.9083  1.1064 -1.9213
12812TIP3    H259852   0.216   2.155  15.061  2.2209 -1.4628 -0.3397
12813TIP3   OH259853   1.823   0.509  11.129 -0.1783  0.0671 -0.2652
12813TIP3    H159854   1.801   0.602  11.141  0.0214  0.2118 -1.0093
12813TIP3    H259855   1.786   0.487  11.043  2.7386  0.3662 -1.6504
12814TIP3   OH259856   0.718   3.538  12.985 -0.1187  0.0578  0.1065
12814TIP3    H159857   0.744   3.454  12.948  0.8957  0.7120 -0.6814
12814TIP3    H259858   0.788   3.599  12.960 -0.6368  1.0504  1.0101
12815TIP3   OH259859   1.084   1.703   4.428  0.3698 -0.0002 -0.1642
12815TIP3    H159860   0.993   1.725   4.408 -0.2846 -1.1894  1.3734
12815TIP3    H259861   1.136   1.769   4.382 -1.2833  0.9502 -0.6960
12816TIP3   OH259862   0.382   1.696  16.848 -0.4760  0.1199  0.2002
12816TIP3    H159863   0.370   1.621  16.791  1.9713  0.2522 -0.5518
12816TIP3    H259864   0.366   1.772  16.792 -0.9024  0.1912  0.4210
12817TIP3   OH259865   2.632   0.651  10.983 -0.1313  0.6770  0.2676
12817TIP3    H159866   2.686   0.705  10.926 -0.0155 -1.3368 -1.5952
12817TIP3    H259867   2.686   0.638  11.062  1.6434 -0.2608 -1.0475
12818TIP3   OH259868   5.233   1.285   3.316 -0.0810 -0.3970 -0.4908
12818TIP3    H159869   5.326   1.264   3.319  0.4202  1.5426 -1.6272
12818TIP3    H259870   5.196   1.244   3.394  1.5138 -2.1308 -0.6150
12819TIP3   OH259871   5.684   1.529   2.094 -0.2016 -0.0138  0.1394
12819TIP3    H159872   5.665   1.615   2.057  0.8399  0.9608  1.8020
12819TIP3    H259873   5.633   1.525   2.175 -1.1762 -1.4598 -0.5127
12820TIP3   OH259874   6.598   2.374  15.431  0.4491 -0.2363  0.0861
12820TIP3    H159875   6.611   2.458  15.473  0.5199 -0.8472  1.3118
12820TIP3    H259876   6.685   2.347  15.403  0.4716 -0.0395 -0.0272
12821TIP3   OH259877   6.283   1.606  14.358  1.3695 -0.3688  0.4676
12821TIP3    H159878   6.371   1.642  14.341  1.3835  0.4250  2.1510
12821TIP3    H259879   6.236   1.678  14.399  0.2853 -1.1868  0.6557
12822TIP3   OH259880   0.830   4.295  11.573 -0.1559  0.0010  0.1105
12822TIP3    H159881   0.777   4.365  11.535  0.9592  1.0495  0.4651
12822TIP3    H259882   0.891   4.340  11.631  0.5930 -1.2676  0.3200
12823TIP3   OH259883   4.981   2.950   0.814  0.5872  0.3917  0.5455
12823TIP3    H159884   5.014   2.873   0.861  0.3266  0.5470  0.9806
12823TIP3    H259885   5.031   2.951   0.732  0.2238 -0.5299  0.3155
12824TIP3   OH259886   6.576   5.005  16.127 -0.3023 -0.3268 -0.6260
12824TIP3    H159887   6.566   5.093  16.163 -0.5584  0.0776 -1.6609
12824TIP3    H259888   6.491   4.963  16.142 -0.0019 -0.5883  0.3628
12825TIP3   OH259889   1.579   5.003   2.286  0.8322 -0.1770  0.4096
12825TIP3    H159890   1.583   5.097   2.269 -0.4785 -0.1361  0.2408
12825TIP3    H259891   1.583   4.995   2.381 -1.1707  0.2035  0.5517
12826TIP3   OH259892   3.319   5.299   3.007 -0.1546  0.1763  0.8115
12826TIP3    H159893   3.249   5.301   2.941  1.9146  0.5959 -1.4514
12826TIP3    H259894   3.322   5.389   3.041  0.4815  0.6660 -0.4652
12827TIP3   OH259895   4.132   2.837  16.966  0.5629 -0.9317 -0.1383
12827TIP3    H159896   4.057   2.887  16.999  0.5249 -0.6741 -0.6078
12827TIP3    H259897   4.093   2.764  16.918  0.5902 -0.3417 -1.0895
12828TIP3   OH259898   5.095   5.789   5.239 -0.3298 -0.0020  0.0682
12828TIP3    H159899   5.100   5.699   5.206  2.2168  0.0033  0.2711
12828TIP3    H259900   5.142   5.786   5.323 -0.7568  1.3823  0.3670
12829TIP3   OH259901   5.804   3.527  14.118  0.3856  0.9419 -0.1144
12829TIP3    H159902   5.826   3.616  14.089 -0.3424  0.5726 -1.8128
12829TIP3    H259903   5.827   3.471  14.045 -0.1606 -0.1668  0.5471
12830TIP3   OH259904   1.349   5.630   4.242 -0.2103  0.5928  0.1841
12830TIP3    H159905   1.433   5.675   4.242 -0.3234  0.8113 -0.5719
12830TIP3    H259906   1.289   5.690   4.287  0.2349  0.0465  1.5314
12831TIP3   OH259907   1.044   5.052   0.321 -0.2044 -0.3091  0.1127
12831TIP3    H159908   1.084   5.015   0.400  0.5521  1.0751  0.3924
12831TIP3    H259909   1.014   4.975   0.272  0.5708 -1.2585  1.0769
12832TIP3   OH259910   5.531   5.006   1.244 -0.2938  0.3861  0.4883
12832TIP3    H159911   5.519   4.914   1.218  1.8910  0.6769 -1.6551
12832TIP3    H259912   5.463   5.053   1.196 -1.4585 -0.0598  1.6353
12833TIP3   OH259913   5.943   4.413  11.573 -0.1071  0.2136 -0.8781
12833TIP3    H159914   5.849   4.429  11.583 -0.5523 -1.2606 -2.3946
12833TIP3    H259915   5.960   4.426  11.480  0.7974 -1.4770 -0.9682
12834TIP3   OH259916   1.962   4.713   2.417  0.0644  0.1593  0.1794
12834TIP3    H159917   1.899   4.645   2.391 -1.0026  0.7897  1.0533
12834TIP3    H259918   1.912   4.771   2.474  0.9735  1.6475 -0.5013
12835TIP3   OH259919   3.135   1.349   3.360  0.1583  0.8154  0.2571
12835TIP3    H159920   3.100   1.355   3.271 -1.2038 -0.3010  0.7004
12835TIP3    H259921   3.229   1.364   3.350  0.1196 -0.0083 -1.4683
12836TIP3   OH259922   6.016   1.030   5.494 -0.0227  0.4469  0.2542
12836TIP3    H159923   6.010   0.992   5.406 -2.0480 -1.4094  1.1321
12836TIP3    H259924   6.087   0.981   5.535  0.3595  0.7202 -0.0831
12837TIP3   OH259925   5.780   2.893   5.288 -0.2690 -0.7570  0.2633
12837TIP3    H159926   5.828   2.931   5.361 -1.1327 -1.4238  1.1824
12837TIP3    H259927   5.755   2.806   5.318  1.6087 -2.0515 -1.7866
12838TIP3   OH259928   5.161   6.535   4.660 -0.5304 -0.1457 -0.2099
12838TIP3    H159929   5.207   6.451   4.665 -1.3985 -0.5938  0.3656
12838TIP3    H259930   5.071   6.512   4.636 -0.8988  0.5800  0.4383
12839TIP3   OH259931   1.724   1.980  17.057  0.0710 -0.3336  0.4398
12839TIP3    H159932   1.780   1.903  17.065  0.1856 -0.3287 -0.2921
12839TIP3    H259933   1.636   1.948  17.076  0.2953 -0.3845  1.3792
12840TIP3   OH259934   1.243   2.309  15.131  0.5440 -0.3467 -0.2586
12840TIP3    H159935   1.324   2.358  15.119 -0.3804  1.0701 -0.8768
12840TIP3    H259936   1.259   2.225  15.088  2.7367 -1.2741  2.2533
12841TIP3   OH259937   5.645   3.192   5.501  0.0024  0.1931 -0.1286
12841TIP3    H159938   5.740   3.191   5.511  0.3748 -1.2867 -3.2511
12841TIP3    H259939   5.620   3.283   5.514  1.5240  0.2265  3.0667
12842TIP3   OH259940   1.158   4.288   0.560  0.2788 -0.2060  0.4400
12842TIP3    H159941   1.141   4.205   0.605  2.1395 -0.8414 -0.0029
12842TIP3    H259942   1.189   4.262   0.473  0.5197  0.9609  0.1778
12843TIP3   OH259943   0.912   2.120  12.245  0.1618  0.4624 -0.4813
12843TIP3    H159944   0.991   2.085  12.203  2.8365  2.6867  2.4223
12843TIP3    H259945   0.881   2.048  12.301  0.7153 -0.0836 -0.8637
12844TIP3   OH259946   5.756   2.432  12.921 -0.1333 -0.2404 -0.1737
12844TIP3    H159947   5.661   2.448  12.928 -0.3764 -0.5518 -2.4759
12844TIP3    H259948   5.791   2.461  13.005 -1.8876  2.8863 -0.4289
12845TIP3   OH259949   6.739   5.470   1.958 -0.2515 -0.3669  0.1872
12845TIP3    H159950   6.791   5.497   2.034  0.8386 -2.6870  0.2849
12845TIP3    H259951   6.722   5.377   1.972 -4.0297  0.1836 -0.0752
12846TIP3   OH259952   2.327   6.482  16.740 -0.1146 -0.2543 -0.6986
12846TIP3    H159953   2.345   6.392  16.712 -0.0444 -0.9591  1.4770
12846TIP3    H259954   2.412   6.524  16.744  0.1744 -0.9338  0.9181
12847TIP3   OH259955   2.591   2.528  13.563  0.3216  0.1042 -0.1170
12847TIP3    H159956   2.574   2.500  13.473  0.5043  0.5365 -0.2868
12847TIP3    H259957   2.656   2.597  13.555  0.9827 -0.4428  0.4107
12848TIP3   OH259958   3.102   6.543  11.573  0.4373  0.6390  0.1260
12848TIP3    H159959   3.054   6.516  11.651  0.1158  0.8694  0.0094
12848TIP3    H259960   3.073   6.483  11.505  0.9931  0.2015  0.2637
12849TIP3   OH259961   0.402   5.670   5.867  0.3511  0.0952 -0.3747
12849TIP3    H159962   0.439   5.582   5.879 -2.4641 -1.2255 -0.7751
12849TIP3    H259963   0.432   5.719   5.944  1.5878 -1.3585  0.0973
12850TIP3   OH259964   4.298   0.670   1.424 -0.6546 -0.3630 -0.2225
12850TIP3    H159965   4.260   0.675   1.511 -0.7925 -1.5159 -0.2075
12850TIP3    H259966   4.278   0.581   1.394 -0.0408 -0.1921 -1.1603
12851TIP3   OH259967   0.962   4.046  11.520 -0.2455  0.4077 -0.0318
12851TIP3    H159968   0.909   4.125  11.537 -1.1103 -0.1119 -0.2826
12851TIP3    H259969   1.002   4.062  11.435 -2.6090 -0.5680 -1.3870
12852TIP3   OH259970   4.565   1.361  10.745  0.0617 -0.1067  0.5224
12852TIP3    H159971   4.597   1.448  10.770 -1.1266  0.2009  0.9883
12852TIP3    H259972   4.610   1.301  10.805  1.7558  0.0651 -0.5519
12853TIP3   OH259973   4.335   4.919   1.511  0.3458 -0.1340  0.5776
12853TIP3    H159974   4.416   4.970   1.509  0.6837 -0.6816  0.2982
12853TIP3    H259975   4.329   4.880   1.424 -0.0882 -0.3007  0.6798
12854TIP3   OH259976   5.707   5.933   5.477 -0.1342 -0.6426 -0.3917
12854TIP3    H159977   5.623   5.965   5.445  1.1439  0.8979 -2.2975
12854TIP3    H259978   5.721   5.851   5.429 -0.6372 -1.0259  0.1048
12855TIP3   OH259979   4.842   3.304  16.325 -0.0925 -0.3161 -0.0899
12855TIP3    H159980   4.779   3.312  16.397  0.4132  0.0883  0.3080
12855TIP3    H259981   4.825   3.381  16.270 -0.0990 -0.3292 -0.1061
12856TIP3   OH259982   1.597   6.417  11.507  0.0064  0.4453 -0.2462
12856TIP3    H159983   1.610   6.400  11.601  0.9156  0.3269 -0.3953
12856TIP3    H259984   1.560   6.335  11.474  0.7234  0.1089 -0.2071
12857TIP3   OH259985   0.040   5.593  13.078  0.0953  0.6343 -0.6133
12857TIP3    H159986   0.091   5.664  13.118 -0.0981  1.0896 -1.1659
12857TIP3    H259987  -0.016   5.637  13.014 -0.1307 -0.0062 -0.8582
12858TIP3   OH259988   3.154   5.023  15.373 -0.0528 -0.8853  0.7571
12858TIP3    H159989   3.116   5.103  15.338  0.9850 -0.6187  0.2206
12858TIP3    H259990   3.083   4.959  15.371 -0.0370 -0.8743 -1.8073
12859TIP3   OH259991   1.731   2.613   5.191  0.2729 -0.2137  0.2183
12859TIP3    H159992   1.706   2.620   5.283 -1.1296 -0.9172 -0.1071
12859TIP3    H259993   1.823   2.641   5.189  0.3051 -0.1817  1.8217
12860TIP3   OH259994   4.506   1.128  11.824 -0.0234  0.0496  0.4247
12860TIP3    H159995   4.525   1.122  11.730 -0.4101  0.6548  0.3064
12860TIP3    H259996   4.559   1.201  11.854 -0.4385  0.3104  0.5332
12861TIP3   OH259997   5.554   2.265   5.796  0.2393  0.5391 -0.0031
12861TIP3    H159998   5.569   2.229   5.709 -2.9258  0.0065 -0.3701
12861TIP3    H259999   5.561   2.190   5.855  1.6032  0.7678  0.1507
12862TIP3   OH260000   3.638   1.862   6.206 -0.0336  0.4061 -0.2503
12862TIP3    H160001   3.715   1.808   6.224 -0.6609  0.2322  2.0873
12862TIP3    H260002   3.640   1.929   6.274 -3.4565 -1.2408  1.5827
12863TIP3   OH260003   0.154   4.268   4.770  0.4693  0.3638  0.0610
12863TIP3    H160004   0.192   4.324   4.838  1.4262  0.7455 -0.7649
12863TIP3    H260005   0.167   4.318   4.689  0.4340 -0.6289 -0.5590
12864TIP3   OH260006   1.599   6.040   1.695  0.2301  0.6413  0.6419
12864TIP3    H160007   1.552   6.085   1.625  0.2920  0.8269  0.7197
12864TIP3    H260008   1.540   5.970   1.723  0.9680 -0.6291 -0.8795
12865TIP3   OH260009   3.088   2.076   4.114  0.8029  0.4559 -0.1386
12865TIP3    H160010   3.174   2.072   4.156  0.1942  2.0327  1.3132
12865TIP3    H260011   3.091   2.154   4.059  0.0491  0.9412  0.5031
12866TIP3   OH260012   5.248   1.470   2.121 -0.4034  0.3282  0.6068
12866TIP3    H160013   5.200   1.552   2.116  2.3665  1.9563 -0.1733
12866TIP3    H260014   5.289   1.460   2.035  0.0544 -1.3891  0.9960
12867TIP3   OH260015   5.997   3.244  11.085 -0.4437 -0.3472 -0.1464
12867TIP3    H160016   5.944   3.260  11.163  1.4129  1.1790  0.8526
12867TIP3    H260017   6.007   3.149  11.082 -1.3829 -0.4811  0.9173
12868TIP3   OH260018   3.708   4.872  16.722 -0.4829  0.3245 -0.5029
12868TIP3    H160019   3.639   4.893  16.659  0.1538  0.8082 -1.0453
12868TIP3    H260020   3.752   4.795  16.685 -0.0165  0.6966 -0.7178
12869TIP3   OH260021   6.492   2.858  11.362  0.6771 -0.0353 -0.4807
12869TIP3    H160022   6.454   2.945  11.358  1.3576  0.2550 -0.7061
12869TIP3    H260023   6.493   2.836  11.456  1.6151  0.6942 -0.3168
12870TIP3   OH260024   2.452   0.866   0.090  0.2358 -0.3102 -0.0633
12870TIP3    H160025   2.388   0.860   0.160  0.3478 -0.2934  0.0402
12870TIP3    H260026   2.449   0.780   0.047  1.1452 -0.7970  0.8161
12871TIP3   OH260027   4.389   2.009  16.234 -0.4836  0.4879 -0.5028
12871TIP3    H160028   4.404   1.916  16.251 -0.4270  0.5242 -0.3549
12871TIP3    H260029   4.390   2.050  16.321 -1.2206  0.5206 -0.5042
12872TIP3   OH260030   5.111   2.262  16.384  0.8036  0.1952  0.1987
12872TIP3    H160031   5.062   2.198  16.435  0.3804 -0.0740 -0.5315
12872TIP3    H260032   5.067   2.264  16.299  2.9328 -1.1892 -0.9948
12873TIP3   OH260033   2.092   0.149   4.263  0.1720  0.0327 -0.1784
12873TIP3    H160034   2.126   0.060   4.260 -2.1148 -0.8859 -0.3286
12873TIP3    H260035   2.012   0.146   4.210  1.3824  2.7939 -2.2556
12874TIP3   OH260036   1.364   0.425   3.337 -0.3898 -0.0708  0.9868
12874TIP3    H160037   1.273   0.410   3.361 -0.6973  0.6863  0.2677
12874TIP3    H260038   1.402   0.337   3.333 -1.0476 -0.3798  1.4136
12875TIP3   OH260039   2.262   4.349   0.196 -0.5828 -0.1045  0.1273
12875TIP3    H160040   2.264   4.415   0.265 -2.4137 -0.8381  0.9106
12875TIP3    H260041   2.236   4.398   0.117 -1.6104  0.1885  0.6359
12876TIP3   OH260042   3.914   2.538   4.657  0.5352 -0.4899 -0.1963
12876TIP3    H160043   3.917   2.452   4.699  1.5302 -1.9757 -3.1405
12876TIP3    H260044   4.003   2.572   4.668  0.8147 -0.9082 -1.0876
12877TIP3   OH260045   3.592   0.721   3.110 -0.2842  0.2558 -0.2581
12877TIP3    H160046   3.676   0.756   3.079 -0.3625  0.6805  0.0062
12877TIP3    H260047   3.533   0.735   3.036  0.3428 -1.8487 -1.1871
12878TIP3   OH260048   5.868   0.409  15.389 -0.4319  0.4746  0.0470
12878TIP3    H160049   5.934   0.388  15.455 -1.8497  0.7161  1.5844
12878TIP3    H260050   5.857   0.504  15.395  0.1801  0.6317 -1.2749
12879TIP3   OH260051   4.315   0.761  12.068 -0.2723  0.4650 -0.4633
12879TIP3    H160052   4.235   0.758  12.122  0.0901  0.3130  0.0644
12879TIP3    H260053   4.353   0.847  12.086  1.1715 -0.5495  1.4306
12880TIP3   OH260054   2.667   1.707  13.228  0.1283  0.4365  0.4117
12880TIP3    H160055   2.711   1.645  13.287 -1.1314  0.3123  1.2457
12880TIP3    H260056   2.720   1.786  13.231  0.3346  0.2648  1.3595
12881TIP3   OH260057   4.410   0.717   0.002  0.0938 -0.5038  0.4342
12881TIP3    H160058   4.349   0.647  -0.022  0.6366 -0.6277 -0.6275
12881TIP3    H260059   4.365   0.798  -0.023 -0.0329 -0.5420  0.5403
12882TIP3   OH260060   2.810   5.776  17.076  0.0482 -0.7584  0.4175
12882TIP3    H160061   2.827   5.760  16.983  1.3329 -3.6984  1.0716
12882TIP3    H260062   2.731   5.726  17.095  0.1401 -0.6766  1.0238
12883TIP3   OH260063   3.644   2.329   1.893 -0.3076 -0.4186  0.5368
12883TIP3    H160064   3.689   2.252   1.926  0.5119 -0.2000 -0.0420
12883TIP3    H260065   3.714   2.394   1.881 -0.8075  0.0061 -0.1257
12884TIP3   OH260066   3.302   5.857  12.287 -0.5729 -0.3128  0.0196
12884TIP3    H160067   3.330   5.811  12.207 -0.0826  0.0361 -0.0117
12884TIP3    H260068   3.383   5.872  12.335 -0.4878  2.0861 -0.7905
12885TIP3   OH260069   4.791   3.094   0.037 -0.3860 -0.2964 -0.3804
12885TIP3    H160070   4.808   3.005   0.008  0.4178 -0.4879  0.6626
12885TIP3    H260071   4.775   3.087   0.132  0.6636  0.7832 -0.1112
12886TIP3   OH260072   4.916   6.720   4.079 -0.1998  0.0666  0.0339
12886TIP3    H160073   4.861   6.701   4.003  1.7126  0.6267 -1.5089
12886TIP3    H260074   4.885   6.805   4.110 -1.9596 -0.8142  0.8234
12887TIP3   OH260075   1.169   3.298   0.477  0.3772  0.8361  0.8012
12887TIP3    H160076   1.197   3.210   0.499  1.2505  1.2070  1.2010
12887TIP3    H260077   1.133   3.291   0.388  0.9518  0.1805  0.6180
12888TIP3   OH260078   2.693   4.192  12.655  0.2802 -0.1754  0.2123
12888TIP3    H160079   2.642   4.111  12.648  1.3116 -0.7057 -1.4260
12888TIP3    H260080   2.784   4.163  12.650  0.6404  1.1472 -1.3067
12889TIP3   OH260081   5.832   5.877   0.269 -0.1948  0.1276 -0.1551
12889TIP3    H160082   5.758   5.937   0.272  0.7254  1.2684 -0.0518
12889TIP3    H260083   5.810   5.809   0.333 -1.7633 -0.2771 -1.0887
12890TIP3   OH260084   3.732   2.371   3.222 -1.0446  0.5132  0.1429
12890TIP3    H160085   3.637   2.370   3.217 -1.0329  0.0365 -0.0407
12890TIP3    H260086   3.752   2.413   3.306 -1.3900  1.7550 -0.3931
12891TIP3   OH260087   6.445   0.426   3.613  0.2158 -0.2517 -0.1186
12891TIP3    H160088   6.388   0.376   3.554 -0.3995 -1.2172  1.2657
12891TIP3    H260089   6.386   0.490   3.653  0.6187  0.3581 -0.4983
12892TIP3   OH260090   2.178   5.488   3.829 -0.3081 -0.9978  0.5436
12892TIP3    H160091   2.263   5.532   3.832 -1.6355  1.7536  0.2034
12892TIP3    H260092   2.168   5.448   3.915  0.8016 -0.2521  1.0315
12893TIP3   OH260093   3.700   6.672  11.833 -0.1217  0.1563 -0.3465
12893TIP3    H160094   3.718   6.706  11.921 -1.2205  1.7394 -0.7073
12893TIP3    H260095   3.728   6.742  11.775 -0.8593 -0.2422 -1.1859
12894TIP3   OH260096   5.811   5.145  12.877 -0.6106 -0.3640 -0.3990
12894TIP3    H160097   5.862   5.065  12.892 -0.4505 -0.4339 -1.2933
12894TIP3    H260098   5.803   5.184  12.964 -2.2518 -2.2804  0.3495
12895TIP3   OH260099   0.480   1.884   2.691 -0.2091  0.1729 -0.3485
12895TIP3    H160100   0.495   1.869   2.597 -0.7174  0.9213 -0.5509
12895TIP3    H260101   0.485   1.796   2.730 -0.2132 -0.1722 -1.1088
12896TIP3   OH260102   5.876   4.624   3.124  0.0447 -0.2209  0.0992
12896TIP3    H160103   5.904   4.629   3.216  2.3591 -0.2614 -0.5788
12896TIP3    H260104   5.859   4.715   3.100 -0.8163 -0.2326  0.6225
12897TIP3   OH260105   2.069   1.798   1.114 -0.6720 -0.1603  0.1215
12897TIP3    H160106   2.114   1.812   1.030  0.1739 -1.1498  0.4081
12897TIP3    H260107   2.041   1.885   1.141 -0.0619  0.2931 -0.6961
12898TIP3   OH260108   1.704   2.541  14.304 -0.1311  0.2690 -0.1296
12898TIP3    H160109   1.770   2.542  14.373  0.0571  1.4199 -0.3193
12898TIP3    H260110   1.621   2.530  14.350 -0.0045  1.0006  0.2866
12899TIP3   OH260111   5.493   5.272  13.608  0.1746 -0.4322 -0.3930
12899TIP3    H160112   5.581   5.233  13.614  0.8513  1.0481 -0.4566
12899TIP3    H260113   5.483   5.321  13.689  0.0719  0.7435 -1.1128
12900TIP3   OH260114   2.799   6.194   0.507  0.5393  0.0430 -0.2182
12900TIP3    H160115   2.726   6.152   0.461  0.3021  1.4848 -1.1632
12900TIP3    H260116   2.851   6.121   0.540 -0.3070 -0.9984 -1.1551
12901TIP3   OH260117   5.003   4.820  16.764  0.3099 -0.3456  0.1742
12901TIP3    H160118   4.960   4.794  16.682  0.0542 -0.6616  0.4026
12901TIP3    H260119   5.039   4.738  16.798 -0.0461 -0.3129  0.6424
12902TIP3   OH260120   5.457   1.444   2.315 -0.5930 -1.0630 -0.9283
12902TIP3    H160121   5.392   1.454   2.246  0.8771  1.7516 -1.9583
12902TIP3    H260122   5.432   1.508   2.381  0.0660 -1.2445 -0.4935
12903TIP3   OH260123   1.635   4.386   5.599  0.0973  0.3761  0.2315
12903TIP3    H160124   1.677   4.330   5.665 -1.8308 -0.2002  1.0052
12903TIP3    H260125   1.664   4.475   5.621  1.9746 -0.1441 -0.0839
12904TIP3   OH260126   2.147   6.202  15.465 -0.1729 -0.1847 -0.5539
12904TIP3    H160127   2.135   6.157  15.549  1.2915 -0.5906 -0.5450
12904TIP3    H260128   2.130   6.135  15.399 -1.4595  0.1686 -0.6034
12905TIP3   OH260129   5.653   0.873   4.480  0.3389 -0.1388 -0.0033
12905TIP3    H160130   5.724   0.825   4.437  1.2436  0.6983  0.5465
12905TIP3    H260131   5.663   0.853   4.573 -0.5888 -0.5850  0.0160
12906TIP3   OH260132   3.261   3.896   0.542  0.3378  0.3118  0.4947
12906TIP3    H160133   3.170   3.866   0.544 -0.0991  1.7027  1.7522
12906TIP3    H260134   3.312   3.815   0.546 -0.8409 -0.4269  1.0623
12907TIP3   OH260135   0.228   1.905  15.951  0.0980  0.5736  0.4104
12907TIP3    H160136   0.168   1.960  15.901  0.5967  0.7842  0.0365
12907TIP3    H260137   0.311   1.913  15.905  0.2691 -0.1903  0.5803
12908TIP3   OH260138   1.814   3.279  13.501  0.0253 -0.6200  0.1071
12908TIP3    H160139   1.805   3.235  13.417  0.7001  0.8023 -0.7316
12908TIP3    H260140   1.908   3.277  13.519  0.0936  0.7057 -0.0792
12909TIP3   OH260141   4.660   6.368  15.506  0.2417  0.5451 -0.0425
12909TIP3    H160142   4.653   6.272  15.511  4.1126  0.2763  1.5686
12909TIP3    H260143   4.622   6.399  15.588 -2.5480  0.5892 -1.2683
12910TIP3   OH260144   5.361   6.013  15.844  0.1281  0.4504  0.3619
12910TIP3    H160145   5.410   6.025  15.763 -1.0531  2.1558 -0.1256
12910TIP3    H260146   5.428   5.990  15.909  0.9510 -2.0175 -1.2902
12911TIP3   OH260147   0.754   6.085   5.118  0.1571 -0.2483  0.3244
12911TIP3    H160148   0.707   6.084   5.201  2.6951  1.1177  1.8722
12911TIP3    H260149   0.790   5.997   5.110  0.3002 -0.2527  0.9380
12912TIP3   OH260150   5.105   1.257   5.355  0.1044 -0.0144  0.1571
12912TIP3    H160151   5.155   1.233   5.277 -2.0257 -1.5024 -0.7929
12912TIP3    H260152   5.129   1.190   5.419 -0.0208 -0.2224 -0.0140
12913TIP3   OH260153   5.681   0.916   5.020  0.0496  0.3031 -0.3902
12913TIP3    H160154   5.625   0.846   5.053 -1.4967  2.0360  0.8089
12913TIP3    H260155   5.770   0.883   5.030 -0.5906 -0.9426  1.4643
12914TIP3   OH260156   6.570   6.625   5.293 -0.1901  0.9863 -0.0079
12914TIP3    H160157   6.548   6.610   5.384 -1.0873  1.1943 -0.1825
12914TIP3    H260158   6.666   6.628   5.291 -0.0209 -2.4879  0.3617
12915TIP3   OH260159   5.006   3.763  13.933 -0.4762 -0.5609 -0.2549
12915TIP3    H160160   5.091   3.722  13.921 -0.2880 -0.1032 -0.4812
12915TIP3    H260161   4.995   3.820  13.857 -1.1590 -0.9184 -0.4307
12916TIP3   OH260162   6.177   2.335  12.744 -0.0942  0.1905 -0.1581
12916TIP3    H160163   6.090   2.307  12.772  0.1152 -0.6023 -0.2879
12916TIP3    H260164   6.166   2.357  12.651 -0.8148  2.9341  0.5324
12917TIP3   OH260165   4.873   5.711  12.764  0.1382  0.2469  0.1325
12917TIP3    H160166   4.927   5.782  12.729 -0.7140  0.8670  0.0476
12917TIP3    H260167   4.885   5.639  12.702  0.6107  0.4915 -0.0637
12918TIP3   OH260168   6.585   3.238   4.841  0.4886 -0.1576  1.1694
12918TIP3    H160169   6.586   3.161   4.898  1.4078  0.7233  2.3854
12918TIP3    H260170   6.676   3.268   4.841  0.3186  0.3850 -0.0462
12919TIP3   OH260171   5.455   4.814  16.961 -0.4766 -0.0178 -0.8932
12919TIP3    H160172   5.425   4.778  16.878  0.3595 -1.1480 -0.7042
12919TIP3    H260173   5.420   4.903  16.962 -3.0566 -0.9911 -1.0873
12920TIP3   OH260174   5.224   2.147  12.195 -0.2825  0.4994  0.4265
12920TIP3    H160175   5.207   2.194  12.276  0.6259 -0.3379  1.1178
12920TIP3    H260176   5.319   2.133  12.194 -0.2301  0.8430 -0.9700
12921TIP3   OH260177   5.384   2.695   0.761 -0.3301  0.1111 -0.1020
12921TIP3    H160178   5.300   2.727   0.729  0.0641  0.4967 -0.7671
12921TIP3    H260179   5.386   2.602   0.737  0.1154  0.4784 -1.5326
12922TIP3   OH260180   6.400   6.290  17.041 -0.2301 -0.1386  0.2869
12922TIP3    H160181   6.473   6.313  17.098 -0.9148 -0.4328  1.3016
12922TIP3    H260182   6.343   6.367  17.042  0.1155  0.1439 -0.6123
12923TIP3   OH260183   3.606   3.472   1.673 -0.0690  0.5067 -0.2079
12923TIP3    H160184   3.629   3.549   1.621  1.1791  0.4622  0.2592
12923TIP3    H260185   3.570   3.410   1.610 -1.7746  1.7360 -0.4854
12924TIP3   OH260186   0.435   3.202  10.971  0.1412 -0.0408  0.1033
12924TIP3    H160187   0.482   3.162  10.899  0.3364 -0.3324  0.3942
12924TIP3    H260188   0.498   3.204  11.043 -0.4693 -0.9960  0.6794
12925TIP3   OH260189   2.485   4.611   4.155 -0.2673  0.1103  0.2296
12925TIP3    H160190   2.496   4.603   4.250  0.5678 -2.6583 -0.0541
12925TIP3    H260191   2.566   4.650   4.124 -0.5724  1.0935  0.6521
12926TIP3   OH260192   2.468   2.545   5.302 -0.0958  0.4276  0.4794
12926TIP3    H160193   2.401   2.497   5.253 -1.0096  0.6490  1.5042
12926TIP3    H260194   2.515   2.478   5.351 -0.4665  0.4291  0.8350
12927TIP3   OH260195   2.343   4.892  12.043 -0.0963  0.1653  0.3368
12927TIP3    H160196   2.391   4.913  11.962 -1.5778 -0.7185 -0.7885
12927TIP3    H260197   2.253   4.877  12.015 -0.7202  0.2197  2.2243
12928TIP3   OH260198   6.531   4.765   3.581 -0.4130  0.1707  0.3434
12928TIP3    H160199   6.451   4.761   3.634 -0.2352 -0.5391  0.5551
12928TIP3    H260200   6.598   4.723   3.634 -0.4867 -1.5652 -0.8975
12929TIP3   OH260201   1.235   6.563   0.215 -0.1072 -0.3801 -0.1216
12929TIP3    H160202   1.185   6.629   0.263 -0.7978 -0.8887 -0.1332
12929TIP3    H260203   1.327   6.587   0.229 -0.3639  1.5012 -1.3828
12930TIP3   OH260204   1.398   6.375  13.574 -0.3571 -0.4058  0.5801
12930TIP3    H160205   1.358   6.352  13.489  0.1186 -2.2662  0.8326
12930TIP3    H260206   1.407   6.291  13.619  1.4959  0.2929  1.5647
12931TIP3   OH260207   4.923   6.421  13.161  0.2246  0.6386  0.0533
12931TIP3    H160208   4.887   6.349  13.214 -0.5990  0.7480 -0.3490
12931TIP3    H260209   4.986   6.464  13.219  1.8770 -1.3540 -0.2113
12932TIP3   OH260210   5.662   3.256   4.504  0.5294 -0.0889  0.0717
12932TIP3    H160211   5.744   3.210   4.524  0.7318 -0.3024 -1.1793
12932TIP3    H260212   5.615   3.258   4.587  1.3692 -0.8462  0.5811
12933TIP3   OH260213   3.581   2.223  10.807 -0.4187 -0.2252 -0.3930
12933TIP3    H160214   3.503   2.184  10.767 -0.9668  0.7611 -0.3025
12933TIP3    H260215   3.556   2.315  10.822 -0.1890 -0.5681  2.1235
12934TIP3   OH260216   3.401   1.300   6.177  0.4923 -0.4611  0.0709
12934TIP3    H160217   3.436   1.240   6.243  2.5504 -0.2609 -0.7696
12934TIP3    H260218   3.418   1.387   6.212  0.1616 -0.3680 -0.0039
12935TIP3   OH260219   3.802   5.291  11.142 -0.1201 -0.3805  0.3666
12935TIP3    H160220   3.826   5.265  11.231  0.5410  2.7745  1.1702
12935TIP3    H260221   3.832   5.219  11.087 -1.3124 -2.7797  2.7615
12936TIP3   OH260222   4.785   5.255  13.880 -0.0851 -0.2444  0.0379
12936TIP3    H160223   4.799   5.175  13.829 -0.7399 -1.1642  1.2743
12936TIP3    H260224   4.853   5.253  13.947 -1.0237 -0.5467  0.9993
12937TIP3   OH260225   6.692   4.625   3.824  0.0595  0.3128 -0.5058
12937TIP3    H160226   6.742   4.707   3.816 -0.0701  0.3155 -1.3003
12937TIP3    H260227   6.689   4.608   3.919  2.0060  0.0378 -0.4695
12938TIP3   OH260228   0.965   6.021   4.727  0.1437  0.0297  0.3020
12938TIP3    H160229   1.034   6.083   4.704 -2.8921  2.1881 -3.8373
12938TIP3    H260230   0.901   6.073   4.776 -1.3885 -0.3004 -1.2922
12939TIP3   OH260231   5.284   1.863   2.278  0.0110  0.4562 -0.2981
12939TIP3    H160232   5.257   1.934   2.336 -0.6433  0.1986 -0.2900
12939TIP3    H260233   5.203   1.827   2.243  0.3256 -0.4041 -0.1682
12940TIP3   OH260234   6.681   4.932   2.877  0.3843  0.3828  0.5132
12940TIP3    H160235   6.603   4.877   2.868  0.5745  0.0616  0.8261
12940TIP3    H260236   6.646   5.021   2.888  0.0893  0.4319 -0.6905
12941TIP3   OH260237   2.638   5.133  13.028 -0.0847  0.9510 -0.3043
12941TIP3    H160238   2.626   5.063  12.965  2.1310  1.7212 -1.6125
12941TIP3    H260239   2.564   5.123  13.089 -0.4319 -1.7778 -1.1114
12942TIP3   OH260240   5.020   1.362   4.116 -0.2212 -0.4280 -0.7603
12942TIP3    H160241   4.979   1.313   4.188 -0.0047 -1.0912 -1.0857
12942TIP3    H260242   4.980   1.449   4.121 -0.5847 -0.6236 -0.1541
12943TIP3   OH260243   6.514   1.876  14.348 -0.5154 -0.0161 -0.1067
12943TIP3    H160244   6.554   1.934  14.284 -1.6183 -1.6403 -2.3526
12943TIP3    H260245   6.432   1.919  14.371 -0.0753  0.6196  0.2700
12944TIP3   OH260246   1.048   1.781   0.233 -0.3794 -0.7948  0.5012
12944TIP3    H160247   1.122   1.775   0.294 -1.6187 -0.8236  2.0173
12944TIP3    H260248   1.007   1.865   0.253  0.8102  0.4905 -2.1876
12945TIP3   OH260249   4.059   2.581   2.525 -0.0149  0.1165  0.2884
12945TIP3    H160250   4.074   2.664   2.479 -0.0931 -0.7892 -1.4126
12945TIP3    H260251   4.018   2.524   2.460  0.5839 -1.4586  1.2535
12946TIP3   OH260252   3.536   2.764  12.817  0.5670 -0.2695  0.1878
12946TIP3    H160253   3.455   2.719  12.840 -0.3465  1.9007  1.4502
12946TIP3    H260254   3.511   2.821  12.743  1.0000  0.1734  0.3799
12947TIP3   OH260255   5.802   4.209  14.180  0.1948 -0.1110 -0.0619
12947TIP3    H160256   5.818   4.204  14.275 -3.1013  1.6284  0.6705
12947TIP3    H260257   5.809   4.302  14.160  0.2876 -0.4113 -1.4234
12948TIP3   OH260258   6.532   3.672  14.988  0.1904  0.7444  0.1936
12948TIP3    H160259   6.591   3.599  14.970  0.4670  0.7218  1.1567
12948TIP3    H260260   6.461   3.633  15.041 -0.3122  0.9182 -0.3445
12949TIP3   OH260261   2.620   4.201   6.855 -0.6466  0.3161 -0.1955
12949TIP3    H160262   2.535   4.164   6.832 -0.1397 -0.3454 -1.0475
12949TIP3    H260263   2.624   4.285   6.808 -0.4978 -0.0390 -0.8321
12950TIP3   OH260264   2.982   3.141   3.283 -0.6348 -0.2648  0.3366
12950TIP3    H160265   3.017   3.216   3.234  0.9716 -0.1709  1.5933
12950TIP3    H260266   2.948   3.083   3.216 -1.5001  1.3815 -0.6925
12951TIP3   OH260267   1.208   2.333   4.937 -0.1971 -0.5984  0.2551
12951TIP3    H160268   1.209   2.251   4.987  2.7544 -0.7849  0.0300
12951TIP3    H260269   1.286   2.327   4.882 -0.4859  1.9466 -0.4787
12952TIP3   OH260270   6.283   2.876   3.458  0.5794  0.3056 -0.2284
12952TIP3    H160271   6.342   2.835   3.395  1.3678  0.4240  0.4168
12952TIP3    H260272   6.248   2.953   3.413 -0.1994 -0.5757 -1.1229
12953TIP3   OH260273   2.635   3.686  16.541  0.1352  0.1385 -0.1307
12953TIP3    H160274   2.729   3.672  16.557  0.0307 -0.9291 -0.4463
12953TIP3    H260275   2.625   3.781  16.544  1.1656  0.2426  0.2842
12954TIP3   OH260276   1.253   5.113   2.102 -0.0556 -0.1560  0.1703
12954TIP3    H160277   1.340   5.152   2.104  1.3415 -3.2365  2.7427
12954TIP3    H260278   1.224   5.112   2.193 -2.9060  1.0190 -0.6635
12955TIP3   OH260279   2.275   1.976   6.152  0.4327  0.3678 -0.0849
12955TIP3    H160280   2.365   1.989   6.123  0.4291 -1.7352 -1.0949
12955TIP3    H260281   2.282   1.917   6.227  0.0329  1.7502  1.0646
12956TIP3   OH260282   3.450   2.319  14.202 -0.3787  0.2180  0.3671
12956TIP3    H160283   3.442   2.244  14.262 -0.6057  0.7671  1.0403
12956TIP3    H260284   3.465   2.280  14.116  1.4267 -0.5428  1.0168
12957TIP3   OH260285   2.968   0.613   4.842  0.0972  0.4032 -0.0698
12957TIP3    H160286   2.910   0.683   4.811 -0.1260 -0.0412 -0.6681
12957TIP3    H260287   2.914   0.534   4.836  0.8811 -0.0725 -0.9773
12958TIP3   OH260288   1.666   5.888   0.021  0.2277  0.4050 -0.1577
12958TIP3    H160289   1.629   5.805  -0.010  1.6645 -0.2443 -0.1790
12958TIP3    H260290   1.592   5.936   0.057 -0.8748 -0.2808 -1.4661
12959TIP3   OH260291   3.183   5.890  14.086  0.1298  0.0193 -0.1523
12959TIP3    H160292   3.140   5.938  14.157 -2.1101 -0.3430 -1.2178
12959TIP3    H260293   3.139   5.805  14.085  0.9236 -0.3826 -1.2472
12960TIP3   OH260294   5.436   5.968   4.434 -0.0222  0.1397  0.5261
12960TIP3    H160295   5.474   6.006   4.513  1.4721 -2.1919  0.9883
12960TIP3    H260296   5.509   5.921   4.393 -2.0205 -3.1352  0.5711
12961TIP3   OH260297   6.677   0.379   6.317  0.0681  0.0711  0.2791
12961TIP3    H160298   6.612   0.410   6.380 -0.3911 -2.2486  0.9797
12961TIP3    H260299   6.628   0.322   6.258  1.1244 -0.2371 -0.3105
12962TIP3   OH260300   0.434   3.443   5.418 -0.2642 -0.4810  0.5574
12962TIP3    H160301   0.411   3.458   5.509 -2.5816 -0.2846 -0.0369
12962TIP3    H260302   0.460   3.351   5.415  0.6761 -0.2621  1.5555
12963TIP3   OH260303   3.431   3.229   2.081  0.1006 -0.0772 -0.2855
12963TIP3    H160304   3.490   3.154   2.077 -0.3289 -0.4503  0.1969
12963TIP3    H260305   3.471   3.295   2.025  1.5062  0.0491  0.8417
12964TIP3   OH260306   0.160   5.310   3.256 -0.0455  0.2207  0.1131
12964TIP3    H160307   0.104   5.308   3.334 -0.1797 -1.0729  0.0019
12964TIP3    H260308   0.100   5.332   3.185 -0.0939  0.5171  0.2442
12965TIP3   OH260309   1.361   6.170  16.946 -0.2611 -0.1136  0.6388
12965TIP3    H160310   1.298   6.242  16.946 -1.0201 -0.7595 -0.9969
12965TIP3    H260311   1.426   6.196  17.011 -0.8816  1.7388  0.5589
12966TIP3   OH260312   0.714   1.479  15.963  0.7863  0.3578 -0.2929
12966TIP3    H160313   0.645   1.531  16.004 -0.7615 -1.1888 -0.8950
12966TIP3    H260314   0.752   1.428  16.034 -0.3064 -0.5651 -0.3664
12967TIP3   OH260315   6.035   6.059   2.244 -0.2995 -0.3094 -0.4317
12967TIP3    H160316   6.013   6.149   2.268  0.4852  0.0871 -1.1696
12967TIP3    H260317   6.130   6.059   2.235 -0.3551 -1.0649 -1.0581
12968TIP3   OH260318   1.356   4.638   2.370  0.1846 -0.1571 -0.3639
12968TIP3    H160319   1.376   4.545   2.374 -1.7980 -0.6045 -0.7869
12968TIP3    H260320   1.355   4.658   2.276 -1.5733 -0.2091 -0.3737
12969TIP3   OH260321   6.333   4.369   0.225  0.0489 -0.8817  0.1589
12969TIP3    H160322   6.347   4.275   0.217 -0.5033 -0.9332 -0.1894
12969TIP3    H260323   6.278   4.392   0.150  0.1601 -0.2851  0.2556
12970TIP3   OH260324   0.518   4.357  16.193 -0.5708  0.0352  0.0875
12970TIP3    H160325   0.559   4.271  16.200 -2.4520 -0.6613  3.6428
12970TIP3    H260326   0.437   4.341  16.146  0.0183  0.2403 -1.0146
12971TIP3   OH260327   2.153   1.258  11.329  0.2396 -0.3589 -0.0619
12971TIP3    H160328   2.160   1.347  11.295  0.3273 -0.1846  0.4047
12971TIP3    H260329   2.062   1.233  11.313  0.4912 -0.5977 -1.1852
12972TIP3   OH260330   5.507   5.441   4.054 -0.3169  0.6318  0.2799
12972TIP3    H160331   5.474   5.439   3.964 -0.2016 -0.3890  0.2487
12972TIP3    H260332   5.547   5.355   4.066 -0.8698  0.5383  1.5123
12973TIP3   OH260333   6.505   6.165  12.155  0.0856 -0.6445  0.3793
12973TIP3    H160334   6.522   6.190  12.065  1.2410 -0.5861  0.6036
12973TIP3    H260335   6.538   6.239  12.207 -0.4718 -0.7228  0.8435
12974TIP3   OH260336   5.466   5.323   0.259 -0.6623  0.0507 -0.6234
12974TIP3    H160337   5.534   5.359   0.202 -0.6637  0.6995 -0.2143
12974TIP3    H260338   5.413   5.268   0.202 -0.1573  0.0250 -1.0716
12975TIP3   OH260339   6.740   0.182  16.566  0.3411  0.0405 -0.3859
12975TIP3    H160340   6.738   0.266  16.611  0.3635 -0.0504 -0.2148
12975TIP3    H260341   6.774   0.202  16.479  0.3457  0.2086 -0.3450
12976TIP3   OH260342   4.973   3.260   3.460  0.3673  0.3799  0.5821
12976TIP3    H160343   4.998   3.173   3.491 -0.6705  0.3526  1.4077
12976TIP3    H260344   5.018   3.321   3.519  3.6507  0.5355 -1.9332
12977TIP3   OH260345   3.727   6.504   3.047 -0.2489  0.5191 -0.3270
12977TIP3    H160346   3.730   6.485   2.953 -1.1362  0.9088 -0.4379
12977TIP3    H260347   3.671   6.581   3.054  1.1152  1.4630  0.3745
12978TIP3   OH260348   0.050   6.493   2.615  0.3394  0.3154  0.0913
12978TIP3    H160349   0.087   6.579   2.599 -0.4981  0.5354 -0.7062
12978TIP3    H260350   0.075   6.440   2.539  1.2583 -0.2861  0.8041
12979TIP3   OH260351   6.137   0.646   4.054  0.5535 -0.1504  0.3789
12979TIP3    H160352   6.161   0.736   4.073 -1.4472  0.3270  0.7224
12979TIP3    H260353   6.197   0.594   4.108  3.5518  0.8287 -1.8420
12980TIP3   OH260354   0.178   6.166   2.862 -0.2721  0.3651 -0.1226
12980TIP3    H160355   0.101   6.214   2.832 -2.1087 -2.2113  0.2722
12980TIP3    H260356   0.148   6.117   2.939  2.0056  0.0226  0.5905
12981TIP3   OH260357   5.933   0.786  17.006  0.4677  0.5292 -0.1332
12981TIP3    H160358   6.000   0.730  17.044  1.5233  0.3923 -2.1092
12981TIP3    H260359   5.920   0.752  16.917 -1.5063  1.1714 -0.1325
12982TIP3   OH260360   0.671   1.870   2.986  0.3195  0.0579  0.0366
12982TIP3    H160361   0.667   1.786   2.941  4.1273 -0.6404  0.8304
12982TIP3    H260362   0.659   1.935   2.917  0.8054 -1.0662 -1.1210
12983TIP3   OH260363   2.346   6.434   4.479 -0.4686 -0.2395 -0.2400
12983TIP3    H160364   2.323   6.424   4.386  0.2263  0.9847 -0.5532
12983TIP3    H260365   2.365   6.527   4.489  1.3022 -0.6832  0.7062
12984TIP3   OH260366   6.732   0.717   5.925 -0.0433  0.1850  0.0139
12984TIP3    H160367   6.705   0.803   5.957 -1.8517 -0.1768 -0.4823
12984TIP3    H260368   6.678   0.655   5.974  1.7340 -0.7317  0.8674
12985TIP3   OH260369   4.045   1.648   0.286  0.1507  0.2749 -0.0387
12985TIP3    H160370   4.123   1.614   0.331 -0.6577  1.2189  2.1718
12985TIP3    H260371   4.001   1.570   0.252  1.0467 -0.4255  0.3761
12986TIP3   OH260372   5.371   2.440  11.212 -0.3032  0.1057 -0.0787
12986TIP3    H160373   5.374   2.462  11.118 -1.8916  1.8869  0.2562
12986TIP3    H260374   5.287   2.397  11.224 -0.5118  0.7070  0.6846
12987TIP3   OH260375   0.650   2.281  14.035  0.3243 -0.1418 -0.2858
12987TIP3    H160376   0.597   2.338  13.979 -0.2472  0.7567  1.1426
12987TIP3    H260377   0.739   2.318  14.029  0.2110  0.1137 -0.3934
12988TIP3   OH260378   3.616   2.891   5.584 -0.4944 -0.2278 -0.2896
12988TIP3    H160379   3.638   2.808   5.625  0.6373 -0.2787 -0.9654
12988TIP3    H260380   3.605   2.870   5.491 -3.7862 -0.2599  0.0260
12989TIP3   OH260381   3.130   6.525   2.428 -0.0557  0.9592 -0.2217
12989TIP3    H160382   3.129   6.486   2.516  1.6169  0.3536 -0.4564
12989TIP3    H260383   3.220   6.558   2.418 -0.0444  0.4194 -1.9753
12990TIP3   OH260384   0.833   0.562   1.877  0.3220 -0.3720 -0.7658
12990TIP3    H160385   0.908   0.521   1.834 -0.2585 -0.0885 -2.0594
12990TIP3    H260386   0.812   0.638   1.822 -1.0143 -0.5386 -0.5012
12991TIP3   OH260387   6.340   4.773   5.137  0.3073 -0.8535  0.0945
12991TIP3    H160388   6.419   4.811   5.099  1.0930 -1.7115  0.8502
12991TIP3    H260389   6.288   4.849   5.164  1.7860 -0.2881  1.4369
12992TIP3   OH260390   6.309   5.318   3.750 -0.3103  0.0981 -0.2883
12992TIP3    H160391   6.227   5.356   3.719  0.3477 -0.5595 -2.9703
12992TIP3    H260392   6.303   5.225   3.726  0.9833 -0.0717 -0.0238
12993TIP3   OH260393   4.343   4.682   5.464 -0.8514 -0.1159  0.4451
12993TIP3    H160394   4.320   4.603   5.513 -2.9268  0.2459  0.0970
12993TIP3    H260395   4.262   4.708   5.421  0.3392  1.0139 -1.1548
12994TIP3   OH260396   2.146   3.917   5.227  0.2656  0.1432  0.1052
12994TIP3    H160397   2.146   3.828   5.262  0.0060  0.2563  0.3952
12994TIP3    H260398   2.239   3.939   5.217  0.3575  0.3427  1.3127
12995TIP3   OH260399   2.844   0.659   3.320 -0.0137  0.3303  0.1948
12995TIP3    H160400   2.891   0.645   3.403 -0.7139  2.9292  1.0662
12995TIP3    H260401   2.913   0.655   3.253  0.7211 -0.7206  0.9977
12996TIP3   OH260402   4.841   6.508   0.129  0.5037 -0.5050  0.2696
12996TIP3    H160403   4.823   6.502   0.036 -2.0080 -0.1880  0.6945
12996TIP3    H260404   4.933   6.483   0.138  0.0827 -3.0449 -1.9824
12997TIP3   OH260405   4.985   3.144  10.781  0.0057 -0.3563  0.4441
12997TIP3    H160406   4.924   3.174  10.713  0.2881 -0.8656 -0.0347
12997TIP3    H260407   4.989   3.217  10.843 -1.0748 -0.3124  0.4653
12998TIP3   OH260408   5.015   5.758   0.289 -0.1224  0.0727 -0.0372
12998TIP3    H160409   5.091   5.788   0.239 -0.0809 -1.9992 -1.2760
12998TIP3    H260410   4.939   5.790   0.240 -0.0622 -0.4463 -0.4755
12999TIP3   OH260411   3.232   1.219  12.939  0.2908 -0.6363 -0.0142
12999TIP3    H160412   3.299   1.151  12.930  0.9165 -0.1076  0.6058
12999TIP3    H260413   3.160   1.189  12.884  0.4894 -1.8880  0.3992
13000TIP3   OH260414   3.242   1.261   5.181  0.3059 -0.0811  0.2102
13000TIP3    H160415   3.331   1.297   5.185 -0.2440  1.2662  0.7282
13000TIP3    H260416   3.215   1.274   5.091  0.5167 -0.1913  0.1307
13001TIP3   OH260417   4.426   2.280  14.145 -0.3153 -0.2305  0.1556
13001TIP3    H160418   4.410   2.234  14.227 -1.6801  0.6510  0.4090
13001TIP3    H260419   4.359   2.247  14.085 -0.6127  0.5966  0.0175
13002TIP3   OH260420   3.625   5.462  15.349 -0.0423  0.0944 -0.0330
13002TIP3    H160421   3.597   5.545  15.310  0.1694 -1.1983 -3.1200
13002TIP3    H260422   3.721   5.466  15.347  0.0177  0.8921  2.4424
13003TIP3   OH260423   3.355   2.378   5.950  0.2661 -0.4434 -0.3193
13003TIP3    H160424   3.374   2.428   6.030 -1.6987  0.1892 -0.2057
13003TIP3    H260425   3.341   2.289   5.981 -1.7715  0.0497  0.2478
13004TIP3   OH260426   5.103   4.611   4.385 -0.0572  0.0054  0.3546
13004TIP3    H160427   5.059   4.632   4.467 -0.0522 -0.1715  0.4039
13004TIP3    H260428   5.165   4.682   4.372 -3.3943  2.6648 -1.9780
13005TIP3   OH260429   5.013   5.834  17.042  0.0734 -0.4822  0.5462
13005TIP3    H160430   5.006   5.890  16.964  0.8600 -1.3325 -0.1570
13005TIP3    H260431   4.923   5.813  17.064 -0.2766  1.6228  1.2480
13006TIP3   OH260432   2.879   1.483  12.259 -0.5791 -0.3394 -0.0692
13006TIP3    H160433   2.923   1.446  12.183 -0.1143  0.5046 -0.2142
13006TIP3    H260434   2.911   1.573  12.264 -3.0308  0.6219 -0.7767
13007TIP3   OH260435   5.717   4.856   4.956 -0.1650  0.1906 -0.2743
13007TIP3    H160436   5.794   4.811   4.993  0.1086  0.0827 -0.9692
13007TIP3    H260437   5.664   4.878   5.032  1.2245  1.4933  0.3478
13008TIP3   OH260438   1.254   2.716  11.673  0.3656  0.4984 -0.3579
13008TIP3    H160439   1.338   2.683  11.704  0.3553  2.0232  1.4085
13008TIP3    H260440   1.193   2.694  11.743 -0.9353 -1.5003 -2.0710
13009TIP3   OH260441   0.898   1.909   3.267  0.2180 -0.9109  0.0495
13009TIP3    H160442   0.925   1.910   3.359  2.4533  0.2413 -0.5782
13009TIP3    H260443   0.834   1.838   3.261  1.6668 -2.4264  2.0393
13010TIP3   OH260444   6.614   2.315   3.491  0.4387 -0.0903 -0.4560
13010TIP3    H160445   6.598   2.344   3.401 -0.7125  0.9270  0.0672
13010TIP3    H260446   6.538   2.346   3.540  0.5280 -1.6009  0.6596
13011TIP3   OH260447   5.892   2.213   1.815  0.1761  0.1084  0.1820
13011TIP3    H160448   5.882   2.229   1.909 -1.5427 -3.1340  0.6142
13011TIP3    H260449   5.977   2.170   1.807 -1.0401 -2.4905  0.7080
13012TIP3   OH260450   5.881   3.303  11.580  0.0650 -0.2249  0.8082
13012TIP3    H160451   5.892   3.228  11.638 -1.5975 -1.8902 -0.9716
13012TIP3    H260452   5.795   3.339  11.604 -0.6806 -0.9895 -0.6471
13013TIP3   OH260453   5.177   2.427   0.821 -0.2893 -0.3148 -0.5276
13013TIP3    H160454   5.219   2.408   0.737 -0.7466  0.1544 -0.8702
13013TIP3    H260455   5.109   2.491   0.799  1.1261  1.5932  0.5530
13014TIP3   OH260456   4.675   2.474  10.926  0.7296  0.2115  0.0099
13014TIP3    H160457   4.597   2.528  10.920  0.8081  0.5086  1.7033
13014TIP3    H260458   4.747   2.536  10.936  1.0927 -0.1113 -0.5178
13015TIP3   OH260459   6.037   2.988   1.018 -0.4620 -0.0395 -0.5139
13015TIP3    H160460   5.946   2.981   1.048  0.2011  0.1468  1.5632
13015TIP3    H260461   6.052   2.906   0.970 -0.9031 -1.2745  1.4179
13016TIP3   OH260462   0.857   5.712  13.863 -0.0173  0.1325  0.0045
13016TIP3    H160463   0.822   5.798  13.843  2.1333  1.8566  3.1596
13016TIP3    H260464   0.801   5.679  13.934 -1.0280 -1.2376 -1.4027
13017TIP3   OH260465   4.761   5.164  17.239  0.4805  0.4958  0.2594
13017TIP3    H160466   4.841   5.166  17.293 -0.6739  0.7766  2.0018
13017TIP3    H260467   4.774   5.089  17.181  2.3615  1.0161 -0.0534
13018TIP3   OH260468   3.641   2.510  10.616  0.1881  0.4461  0.2517
13018TIP3    H160469   3.619   2.490  10.707  1.5347 -1.7364  0.1363
13018TIP3    H260470   3.731   2.542  10.619  0.1571  0.5834 -0.2894
13019TIP3   OH260471   3.172   5.941  14.598  0.1021 -0.5847  0.6946
13019TIP3    H160472   3.081   5.915  14.584  0.3013 -1.7934  1.5694
13019TIP3    H260473   3.209   5.946  14.509 -0.7155 -0.4187  0.3577
13020TIP3   OH260474   2.594   1.927   5.186  0.3733 -0.1725  0.5016
13020TIP3    H160475   2.552   1.846   5.155  0.6529 -0.5649  1.1341
13020TIP3    H260476   2.670   1.897   5.235  0.4316  0.4782  0.8089
13021TIP3   OH260477   2.415   5.520  11.338 -0.1551 -0.2491  0.0991
13021TIP3    H160478   2.496   5.488  11.379  0.3666  0.2842 -0.5016
13021TIP3    H260479   2.381   5.585  11.400  0.1062 -0.1558  0.1464
13022TIP3   OH260480   6.235   0.202  16.055  0.1891  0.3539  0.1888
13022TIP3    H160481   6.324   0.217  16.087  0.9862  0.2202 -1.8618
13022TIP3    H260482   6.212   0.114  16.087  0.8720  0.3088  0.5574
13023TIP3   OH260483   5.521   3.762  12.990 -0.2926  0.4612 -0.1178
13023TIP3    H160484   5.527   3.708  12.910  0.0380  1.9554 -1.1185
13023TIP3    H260485   5.579   3.836  12.973 -0.0038  0.6540  1.6429
13024TIP3   OH260486   3.954   4.985   5.842  0.5889  0.6819 -0.0026
13024TIP3    H160487   4.005   4.997   5.762 -1.1593  1.7153 -0.9975
13024TIP3    H260488   3.931   5.074   5.870 -1.3708  0.2197 -0.0609
13025TIP3   OH260489   6.570   2.373  14.392 -0.3260  0.1307  0.7619
13025TIP3    H160490   6.647   2.382  14.448  1.3599  0.7004 -1.5361
13025TIP3    H260491   6.536   2.462  14.383  0.5655  0.3663 -0.5997
13026TIP3   OH260492   0.849   0.816  12.241 -0.6218 -0.1925  0.0794
13026TIP3    H160493   0.773   0.819  12.183 -0.8631 -1.2187  0.3211
13026TIP3    H260494   0.815   0.783  12.324  0.2048 -1.3457 -0.0185
13027TIP3   OH260495   4.438   6.581   2.189 -0.1087 -0.1565  0.4334
13027TIP3    H160496   4.506   6.631   2.233  0.5987  0.2123 -1.0602
13027TIP3    H260497   4.472   6.492   2.185  0.7055  0.2056 -1.1182
13028TIP3   OH260498   2.240   0.792  13.873 -0.5879  0.2853 -0.7739
13028TIP3    H160499   2.163   0.749  13.836  0.0390  0.0843 -1.8703
13028TIP3    H260500   2.241   0.878  13.832 -0.5778  0.5204 -0.2842
13029TIP3   OH260501   4.825   5.498  15.680  0.0196  0.2292 -0.6169
13029TIP3    H160502   4.785   5.578  15.648 -0.4773 -0.1564 -0.9578
13029TIP3    H260503   4.761   5.430  15.663 -1.1616  0.2936  3.0546
13030TIP3   OH260504   3.719   5.606   3.275  0.1564  0.1311  0.2170
13030TIP3    H160505   3.808   5.589   3.306  0.6379 -0.1105 -1.2468
13030TIP3    H260506   3.719   5.698   3.250  0.1423  0.0007 -0.2628
13031TIP3   OH260507   2.537   6.715   5.053 -0.4250  0.2666  0.3397
13031TIP3    H160508   2.490   6.795   5.074 -1.1303 -0.1323  0.3099
13031TIP3    H260509   2.469   6.647   5.051  0.3711 -0.6270  1.9752
13032TIP3   OH260510   3.562   3.423   3.193 -0.1666 -0.3318 -0.4993
13032TIP3    H160511   3.524   3.360   3.254 -0.7180 -0.6247 -1.1269
13032TIP3    H260512   3.631   3.373   3.148  1.1567  0.2725  0.8159
13033TIP3   OH260513   2.053   0.132  13.210 -0.2428  0.4867  0.6811
13033TIP3    H160514   2.038   0.153  13.118 -1.3364  0.1705  0.7770
13033TIP3    H260515   2.125   0.190  13.236 -0.0671  0.7301 -0.3093
13034TIP3   OH260516   4.600   3.410  14.466 -0.3542 -0.2578  0.1614
13034TIP3    H160517   4.667   3.468  14.429 -0.6116 -0.4998 -0.6960
13034TIP3    H260518   4.577   3.351  14.394  0.3824 -1.8673  1.1945
13035TIP3   OH260519   3.414   5.903   1.383 -0.0229  0.4496 -0.3393
13035TIP3    H160520   3.450   5.988   1.355  0.0371  0.3932 -0.4316
13035TIP3    H260521   3.320   5.910   1.367 -0.0686  0.6320 -0.0163
13036TIP3   OH260522   6.646   0.976   3.272  0.3141  1.0442  0.1516
13036TIP3    H160523   6.692   1.060   3.282  1.4170  0.5709 -0.8930
13036TIP3    H260524   6.714   0.915   3.245 -0.4150 -0.2861  1.2615
13037TIP3   OH260525   5.473   2.908   0.377  0.1108 -0.6389  0.1014
13037TIP3    H160526   5.458   2.813   0.373  2.3366 -0.9670 -1.4933
13037TIP3    H260527   5.386   2.946   0.369 -0.7709 -2.5421  0.2630
13038TIP3   OH260528   6.756   5.278  11.220 -0.4098  0.0250 -0.1329
13038TIP3    H160529   6.717   5.228  11.291 -0.4980 -0.1587 -0.3106
13038TIP3    H260530   6.693   5.272  11.148  0.0149 -0.3970 -0.4717
13039TIP3   OH260531   6.561   3.187  11.370  0.2217 -0.2732  0.2275
13039TIP3    H160532   6.627   3.248  11.338  0.8503 -0.4761  1.1446
13039TIP3    H260533   6.603   3.141  11.442 -0.9689 -0.2900  0.9231
13040TIP3   OH260534   0.485   0.815  15.317 -0.3869  0.1344 -0.1995
13040TIP3    H160535   0.507   0.824  15.224 -1.1077 -0.1626 -0.3998
13040TIP3    H260536   0.408   0.871  15.329 -0.6723 -0.3127  0.0787
13041TIP3   OH260537   3.458   6.382   0.674 -0.7233  1.3264 -0.2655
13041TIP3    H160538   3.480   6.472   0.648  0.9405  0.7046 -1.0554
13041TIP3    H260539   3.416   6.344   0.597  0.3634  0.8122 -0.6086
13042TIP3   OH260540   5.875   3.510   4.078 -0.1116  0.3043 -0.2647
13042TIP3    H160541   5.924   3.527   4.159  0.4504  0.1747 -0.5762
13042TIP3    H260542   5.784   3.531   4.101 -0.2785 -1.6446  1.0007
13043TIP3   OH260543   0.821   5.927  14.851  0.5070  0.0600  0.4357
13043TIP3    H160544   0.890   5.990  14.832  0.7274  0.3999  2.2410
13043TIP3    H260545   0.814   5.928  14.947 -1.2650 -0.7495  0.3296
13044TIP3   OH260546   6.343   1.809  15.285 -0.3916 -0.3995  0.0452
13044TIP3    H160547   6.375   1.724  15.257  2.1636  1.0437 -1.6044
13044TIP3    H260548   6.420   1.855  15.317 -1.5661  1.6199  0.0649
13045TIP3   OH260549   0.350   5.288  14.829  0.1533 -0.2238  0.3130
13045TIP3    H160550   0.382   5.267  14.917  2.2816 -0.4965 -0.4855
13045TIP3    H260551   0.323   5.204  14.792  1.1228 -0.4115  0.0094
13046TIP3   OH260552   1.740   0.495   5.062 -0.0361 -0.3663 -0.0486
13046TIP3    H160553   1.714   0.564   5.123  0.6653 -0.8288  0.7863
13046TIP3    H260554   1.832   0.515   5.042 -0.1959 -0.3503 -0.7779
13047TIP3   OH260555   2.272   5.730  11.197 -0.1705  0.1529  0.1672
13047TIP3    H160556   2.210   5.682  11.141  1.8933 -1.1727 -1.0331
13047TIP3    H260557   2.356   5.687  11.182  0.9221  1.4807  2.3174
13048TIP3   OH260558   2.889   3.967   2.321  0.0562  0.7091 -0.2059
13048TIP3    H160559   2.937   3.930   2.247  0.7889  3.0705 -0.9689
13048TIP3    H260560   2.837   3.895   2.355  0.8344 -0.7885 -2.1071
13049TIP3   OH260561   1.948   3.737  11.689  0.5971  0.2481  0.2765
13049TIP3    H160562   1.875   3.697  11.640  2.0576 -1.6093 -0.4683
13049TIP3    H260563   1.959   3.823  11.650  0.6042 -0.5535 -1.5528
13050TIP3   OH260564   4.777   3.594  13.976  0.0007 -0.0362  0.0418
13050TIP3    H160565   4.811   3.681  13.998  1.1054 -0.5296  0.3368
13050TIP3    H260566   4.820   3.572  13.894 -0.1822 -0.3568  0.0339
13051TIP3   OH260567   3.751   0.521   5.806 -0.4085 -0.1320 -0.2030
13051TIP3    H160568   3.729   0.593   5.747 -0.3257  0.3007  0.2963
13051TIP3    H260569   3.812   0.467   5.755  2.1624  1.9341  0.5989
13052TIP3   OH260570   6.316   0.504   6.235 -0.1806 -0.2493  0.0284
13052TIP3    H160571   6.229   0.535   6.207 -1.2291 -3.9086 -0.9506
13052TIP3    H260572   6.304   0.483   6.328 -0.4061 -0.9173 -0.1489
13053TIP3   OH260573   5.356   3.959   5.516 -0.1309  0.6995  0.1169
13053TIP3    H160574   5.374   3.973   5.423  0.8534 -2.6974 -0.2778
13053TIP3    H260575   5.442   3.949   5.556 -0.6078 -1.8555  0.6258
13054TIP3   OH260576   3.553   2.669   1.097 -0.3006 -0.3403  0.2769
13054TIP3    H160577   3.511   2.606   1.037  0.0384 -0.8730  0.5936
13054TIP3    H260578   3.602   2.728   1.040  1.1735 -1.6990  0.1066
13055TIP3   OH260579   0.839   4.755  10.970  0.6238  0.4020  0.3703
13055TIP3    H160580   0.749   4.774  10.997  0.4291  0.0344 -0.0289
13055TIP3    H260581   0.832   4.680  10.912  1.5224 -1.6731  2.8132
13056TIP3   OH260582   2.045   0.492  11.273  0.6630  0.9597 -0.1112
13056TIP3    H160583   1.955   0.499  11.241  0.2561 -0.4421  0.6863
13056TIP3    H260584   2.070   0.401  11.255  1.5190  1.0291  0.7002
13057TIP3   OH260585   2.107   1.569   2.926 -0.6423 -0.4619 -0.4306
13057TIP3    H160586   2.092   1.632   2.855 -0.6544  0.9400  0.7777
13057TIP3    H260587   2.032   1.581   2.984 -0.4902 -1.3968 -0.0453
13058TIP3   OH260588   3.254   0.198  14.242  0.1141  0.1506 -0.1150
13058TIP3    H160589   3.253   0.103  14.231 -0.2845  0.1061  0.3003
13058TIP3    H260590   3.335   0.216  14.288 -0.0878 -0.0505  0.3255
13059TIP3   OH260591   6.534   4.315  16.826  0.5087 -0.4962 -0.3038
13059TIP3    H160592   6.594   4.366  16.771  0.8911 -1.8317 -1.1376
13059TIP3    H260593   6.577   4.230  16.836  0.9976  0.0666  3.0132
13060TIP3   OH260594   3.978   3.951   0.787 -0.2903 -0.6589  0.0165
13060TIP3    H160595   3.986   4.002   0.706  0.4306 -1.2649 -0.2933
13060TIP3    H260596   3.883   3.949   0.804 -0.3923  0.0375 -0.4449
13061TIP3   OH260597   4.898   4.367   4.611 -0.1204  0.0624 -0.1854
13061TIP3    H160598   4.884   4.276   4.587  1.0437 -0.1929  0.0734
13061TIP3    H260599   4.840   4.382   4.686 -1.1956 -0.1153 -0.9705
13062TIP3   OH260600   3.069   3.437  12.998 -0.7355 -0.4639 -0.2256
13062TIP3    H160601   3.035   3.405  12.914 -0.4400  1.2626 -1.0234
13062TIP3    H260602   3.007   3.504  13.025 -1.0486 -1.2958  1.1562
13063TIP3   OH260603   0.723   1.215  12.412 -0.1402  0.2575  0.1531
13063TIP3    H160604   0.678   1.197  12.494 -0.4949 -1.3099 -0.3526
13063TIP3    H260605   0.813   1.234  12.437 -0.5047  0.9018  0.9859
13064TIP3   OH260606   3.652   3.830  13.775 -0.3321 -0.2551 -0.4901
13064TIP3    H160607   3.605   3.890  13.833 -1.1041 -0.4669 -0.8818
13064TIP3    H260608   3.674   3.883  13.698  0.9349  0.0973  0.1092
13065TIP3   OH260609   1.368   3.552  15.873 -0.3062 -0.3762 -0.1293
13065TIP3    H160610   1.436   3.619  15.880  0.3793 -1.0921  0.0954
13065TIP3    H260611   1.349   3.526  15.963 -0.2509 -0.8095 -0.2415
13066TIP3   OH260612   0.584   4.299  16.672  0.3719  0.4623 -0.1599
13066TIP3    H160613   0.502   4.266  16.709  0.3379  1.4503  0.6323
13066TIP3    H260614   0.564   4.389  16.646  0.9251  0.3797 -0.8877
13067TIP3   OH260615   1.894   1.737  13.228 -0.5391  0.3209 -0.2123
13067TIP3    H160616   1.908   1.709  13.138 -0.0452  0.2288 -0.1079
13067TIP3    H260617   1.837   1.671  13.266  0.1936 -0.2606 -0.1204
13068TIP3   OH260618   5.798   3.167  14.468 -0.1055  0.2580 -0.4173
13068TIP3    H160619   5.809   3.262  14.468  0.5717  0.1924  1.2509
13068TIP3    H260620   5.719   3.152  14.521  0.8093 -0.1890  0.8633
13069TIP3   OH260621   6.405   6.557  16.072 -0.1126 -0.1844 -0.6622
13069TIP3    H160622   6.367   6.502  16.003 -0.8444  0.5209 -0.8348
13069TIP3    H260623   6.340   6.627  16.084  0.2942  0.0199  0.3246
13070TIP3   OH260624   2.479   1.670   3.679  0.4864  0.5145 -0.2875
13070TIP3    H160625   2.491   1.578   3.653  2.0687  0.2465  1.3510
13070TIP3    H260626   2.524   1.720   3.611 -0.4315  0.0959 -1.2236
13071TIP3   OH260627   2.096   3.692   5.404  0.0494  0.2155  0.4412
13071TIP3    H160628   2.127   3.625   5.465  2.4755  1.4342  0.5842
13071TIP3    H260629   2.028   3.739   5.453 -0.7569 -1.2762  0.7953
13072TIP3   OH260630   3.053   3.323   6.445  0.6599  0.3880  0.4469
13072TIP3    H160631   2.973   3.353   6.403  1.0578 -1.1150 -1.4849
13072TIP3    H260632   3.025   3.285   6.528 -0.3087  2.2007  0.9589
13073TIP3   OH260633   3.267   5.946   3.129  0.1291 -0.5615 -0.2460
13073TIP3    H160634   3.190   5.986   3.089  0.0872 -1.7358 -1.3325
13073TIP3    H260635   3.337   5.959   3.065 -0.0151 -2.7369 -0.8746
13074TIP3   OH260636   2.889   2.077  13.762  0.4505 -0.4489  0.0907
13074TIP3    H160637   2.840   2.003  13.728 -0.1814 -1.2503  2.6346
13074TIP3    H260638   2.970   2.039  13.797 -0.3554 -0.1558  2.3926
13075TIP3   OH260639   6.027   6.148   5.871 -0.1511  0.0624  0.3095
13075TIP3    H160640   5.971   6.130   5.796  1.2753 -0.3245 -0.6687
13075TIP3    H260641   6.029   6.065   5.920  0.6188 -0.2975 -0.3414
13076TIP3   OH260642   0.267   6.705   3.523  0.1167  0.1695  0.4824
13076TIP3    H160643   0.175   6.712   3.496 -0.4127 -1.7522  1.6634
13076TIP3    H260644   0.316   6.706   3.440 -0.9363  1.4804 -0.1427
13077TIP3   OH260645   0.017   0.338   0.743 -0.2181 -0.8722  0.6615
13077TIP3    H160646   0.092   0.323   0.687 -0.9555 -0.0162 -0.5815
13077TIP3    H260647   0.054   0.369   0.826  0.6986  2.2612 -0.8515
13078TIP3   OH260648   4.081   2.908   3.687 -0.3153 -0.0742  0.3357
13078TIP3    H160649   4.167   2.949   3.676  0.3571 -1.2433  1.2153
13078TIP3    H260650   4.066   2.908   3.781 -0.8447 -0.7735  0.2569
13079TIP3   OH260651   4.609   2.699   2.094  0.5011 -0.0521 -0.0208
13079TIP3    H160652   4.576   2.717   2.182  0.8582 -0.8254  0.2698
13079TIP3    H260653   4.593   2.780   2.046 -2.6842 -0.7010 -0.1543
13080TIP3   OH260654   3.433   0.643  14.374 -0.2001 -0.1568 -0.2400
13080TIP3    H160655   3.379   0.692  14.436  2.5047  1.1521  1.1372
13080TIP3    H260656   3.469   0.570  14.425  1.3729  0.4423 -0.4641
13081TIP3   OH260657   2.958   6.748  15.353 -0.8773 -0.2896  0.3869
13081TIP3    H160658   2.964   6.802  15.432 -2.7552  1.9951 -0.9702
13081TIP3    H260659   2.949   6.659  15.386  3.1179  0.0178  2.6998
13082TIP3   OH260660   6.098   5.658   5.602  0.0479  0.3012  0.5408
13082TIP3    H160661   6.118   5.581   5.656 -0.4780 -0.4718 -0.3353
13082TIP3    H260662   6.094   5.623   5.513  2.8644  1.9109 -0.2679
13083TIP3   OH260663   1.827   0.090  14.199  0.1721 -0.5464 -0.5285
13083TIP3    H160664   1.871   0.174  14.209 -0.2808 -0.2485 -1.0021
13083TIP3    H260665   1.840   0.045  14.282 -1.0168  0.6693  0.3325
13084TIP3   OH260666   5.478   4.419   4.228  0.3045  0.5437  0.3693
13084TIP3    H160667   5.439   4.340   4.264  0.4698  0.1587 -0.2833
13084TIP3    H260668   5.569   4.394   4.208 -0.0596  0.4324 -1.2604
13085TIP3   OH260669   3.778   6.563  15.756 -0.0884 -0.0357  0.5232
13085TIP3    H160670   3.765   6.628  15.826  1.4171  1.4658 -0.5337
13085TIP3    H260671   3.810   6.615  15.682  1.0107 -1.9867 -0.3973
13086TIP3   OH260672   4.434   5.033  15.487 -0.6384  0.0728 -0.1446
13086TIP3    H160673   4.506   4.987  15.444 -2.2221 -1.1735 -1.5745
13086TIP3    H260674   4.453   5.126  15.475  0.3122 -0.2542 -1.2621
13087TIP3   OH260675   2.003   0.961  11.873  0.5505  0.6113  0.1335
13087TIP3    H160676   2.030   0.885  11.820 -0.6776 -0.0662  0.4635
13087TIP3    H260677   2.073   0.971  11.938  0.0604 -1.1205  0.9670
13088TIP3   OH260678   0.316   2.206  12.929  0.1068 -0.3239  0.3456
13088TIP3    H160679   0.378   2.132  12.937  0.7294  0.1042 -0.4295
13088TIP3    H260680   0.230   2.166  12.937  0.3986 -1.3363 -1.4526
13089TIP3   OH260681   1.821   5.543  11.449  0.9739  0.4633 -0.1264
13089TIP3    H160682   1.749   5.489  11.480  0.9170  0.5071 -0.1796
13089TIP3    H260683   1.787   5.633  11.455  1.3879  0.5577  0.8028
13090TIP3   OH260684   3.284   2.812   5.253  0.2843  0.0855 -0.3464
13090TIP3    H160685   3.250   2.824   5.164 -0.0765 -1.1303 -0.3802
13090TIP3    H260686   3.210   2.833   5.309  0.0318 -0.6820 -0.3793
13091TIP3   OH260687   0.788   4.307  13.380  0.1757 -0.6920  0.3202
13091TIP3    H160688   0.861   4.264  13.423 -0.2164 -0.5129  1.1795
13091TIP3    H260689   0.825   4.387  13.343  0.4518 -0.7055  0.5680
13092TIP3   OH260690   0.154   1.461   3.713 -0.8774 -0.1961  0.6978
13092TIP3    H160691   0.179   1.384   3.763  0.6829  0.4246  0.9112
13092TIP3    H260692   0.126   1.525   3.778 -1.3826 -0.2954  0.5810
13093TIP3   OH260693   3.627   4.007   2.843  0.1089  0.0784 -0.1042
13093TIP3    H160694   3.682   4.064   2.789  0.2329  1.2038  1.1835
13093TIP3    H260695   3.604   3.934   2.785  2.3077 -0.0133 -0.8942
13094TIP3   OH260696   2.117   5.366   3.100 -0.2272 -0.3707 -0.5484
13094TIP3    H160697   2.117   5.294   3.163  0.3939  1.0794  1.1539
13094TIP3    H260698   2.064   5.434   3.142 -0.8172  0.1673 -2.1363
13095TIP3   OH260699   2.050   1.892  11.350  0.0574 -0.1454  0.6701
13095TIP3    H160700   1.997   1.850  11.281 -0.5015 -1.0860  1.6619
13095TIP3    H260701   2.013   1.980  11.357  1.9952  0.9946 -2.2498
13096TIP3   OH260702   1.378   0.937   0.516 -0.8917 -0.2477 -0.2004
13096TIP3    H160703   1.290   0.919   0.484 -1.1834 -1.1001  1.0547
13096TIP3    H260704   1.429   0.958   0.437 -2.5828  1.9100 -0.7685
13097TIP3   OH260705   5.832   2.294  12.192  0.3056  0.2051 -0.5156
13097TIP3    H160706   5.834   2.367  12.255 -2.4892 -0.9050  0.9370
13097TIP3    H260707   5.803   2.335  12.110 -2.5758  0.5852  0.6191
13098TIP3   OH260708   0.622   4.185  17.081  0.1316  0.5027  0.3668
13098TIP3    H160709   0.692   4.150  17.136  2.9877  1.8186 -2.3236
13098TIP3    H260710   0.627   4.280  17.092 -0.6995  0.6538 -0.4536
13099TIP3   OH260711   6.477   3.673   5.643 -0.0554  0.3451  0.3608
13099TIP3    H160712   6.503   3.656   5.552 -1.8962 -0.1037 -0.0994
13099TIP3    H260713   6.542   3.736   5.675  0.5738  0.5553 -1.2838
13100TIP3   OH260714   0.031   3.522   5.958 -0.2090 -0.8318  0.4266
13100TIP3    H160715   0.116   3.563   5.941  0.3502 -1.9213  0.5588
13100TIP3    H260716  -0.012   3.522   5.873  0.0751 -0.6198  0.2798
13101TIP3   OH260717   4.548   0.409  16.790  0.0153 -0.3950  0.2120
13101TIP3    H160718   4.537   0.499  16.821 -0.6031 -1.1823  2.3723
13101TIP3    H260719   4.488   0.401  16.717  0.3269  1.0496 -0.2198
13102TIP3   OH260720   2.718   5.612   1.010  0.0906 -0.1042 -0.4315
13102TIP3    H160721   2.694   5.657   0.929  1.6078  3.4249  0.9807
13102TIP3    H260722   2.789   5.664   1.047  0.7691 -2.7441  2.2023
13103TIP3   OH260723   3.889   3.905  15.449 -0.3146 -0.1386 -0.0146
13103TIP3    H160724   3.924   3.937  15.366 -0.0351  3.2369  1.3277
13103TIP3    H260725   3.798   3.935  15.451 -0.8362 -1.6657  0.1816
13104TIP3   OH260726   1.704   4.966   4.132  0.1948 -0.6922 -0.5654
13104TIP3    H160727   1.673   4.876   4.134 -0.3401 -0.4741  2.3432
13104TIP3    H260728   1.774   4.970   4.198 -1.2725  1.5280  0.9349
13105TIP3   OH260729   3.876   0.059  11.702  0.3192 -0.6374  0.1520
13105TIP3    H160730   3.877   0.141  11.751  0.3650  1.0702 -2.6112
13105TIP3    H260731   3.966   0.026  11.707 -0.0025 -1.2836  2.4187
13106TIP3   OH260732   3.463   1.541   6.275 -0.2174 -0.3026  0.2254
13106TIP3    H160733   3.507   1.550   6.359 -1.0160 -1.7113  0.8222
13106TIP3    H260734   3.452   1.631   6.244  1.8103  0.1435  0.6951
13107TIP3   OH260735   5.388   4.637   3.482  0.2677  0.3412  0.4526
13107TIP3    H160736   5.333   4.650   3.559 -1.8579 -0.4519 -0.8860
13107TIP3    H260737   5.420   4.725   3.460 -2.8939  1.3228 -0.4605
13108TIP3   OH260738   5.879   1.886  13.722  0.0607  0.2117 -1.0217
13108TIP3    H160739   5.954   1.877  13.781 -1.2731  2.3111  1.0675
13108TIP3    H260740   5.841   1.798  13.717  0.5144 -0.1135  0.8452
13109TIP3   OH260741   0.396   1.158   5.294  0.0944 -0.3177  0.1530
13109TIP3    H160742   0.416   1.251   5.309  0.8867 -0.7718  2.0026
13109TIP3    H260743   0.312   1.160   5.247 -0.0696  1.3283  0.4650
13110TIP3   OH260744   3.038   4.323  16.776 -0.0572  0.0747  0.2200
13110TIP3    H160745   2.982   4.303  16.851 -2.2003  0.0642 -1.3628
13110TIP3    H260746   3.118   4.358  16.815 -0.8428 -0.6346  2.5381
13111TIP3   OH260747   5.755   2.680  17.029 -0.2875  0.1601 -0.3847
13111TIP3    H160748   5.769   2.683  17.123 -1.8780 -0.7177 -0.0964
13111TIP3    H260749   5.715   2.765  17.008 -1.4162 -0.2724 -0.0033
13112TIP3   OH260750   3.953   6.372  13.642 -0.6222 -0.0769  0.1395
13112TIP3    H160751   3.858   6.383  13.651 -0.7106 -1.2563  0.7492
13112TIP3    H260752   3.965   6.347  13.550 -0.7633  1.3718 -0.2856
13113TIP3   OH260753   4.725   3.143  14.386 -0.2661 -0.0135  0.1043
13113TIP3    H160754   4.749   3.196  14.462  0.8160 -1.1211  0.5418
13113TIP3    H260755   4.701   3.207  14.319  1.0970  1.0487  0.6020
13114TIP3   OH260756   4.210   4.419  12.358 -0.1329  0.1943 -0.1400
13114TIP3    H160757   4.296   4.438  12.394  0.2000 -0.2972 -0.6772
13114TIP3    H260758   4.217   4.438  12.265 -0.8111  0.8294 -0.0716
13115TIP3   OH260759   3.698   2.689  10.834 -0.6317 -0.0502  0.6299
13115TIP3    H160760   3.726   2.735  10.913 -2.6391  1.7405  0.3503
13115TIP3    H260761   3.609   2.659  10.854 -0.6630 -0.7227 -0.4844
13116TIP3   OH260762   1.732   3.198   3.122 -0.4281  0.3921 -0.1888
13116TIP3    H160763   1.652   3.158   3.155 -1.2295  2.7237  0.8409
13116TIP3    H260764   1.800   3.169   3.183 -0.5945 -1.0560 -0.6781
13117TIP3   OH260765   3.435   6.171  12.766 -0.7111 -0.7388  0.2949
13117TIP3    H160766   3.481   6.211  12.692  0.4085  0.1079  1.4108
13117TIP3    H260767   3.360   6.228  12.781 -2.1720 -2.1272 -1.5376
13118TIP3   OH260768   3.283   1.139   3.111 -0.0623  0.1460 -0.2464
13118TIP3    H160769   3.281   1.118   3.017  1.6854  1.4970 -0.6112
13118TIP3    H260770   3.204   1.190   3.125 -1.0032 -1.1412 -0.6940
13119TIP3   OH260771   2.333   6.723  16.568  0.2135 -0.3912  0.0424
13119TIP3    H160772   2.398   6.773  16.518  1.4452  0.2920  2.2830
13119TIP3    H260773   2.338   6.758  16.657 -1.6674 -1.8561  0.7648
13120TIP3   OH260774   1.717   1.789  16.171 -0.0605  0.4335  0.1202
13120TIP3    H160775   1.646   1.829  16.221  0.5578  0.5744  0.8818
13120TIP3    H260776   1.685   1.701  16.151 -0.5799  0.6051  0.1937
13121TIP3   OH260777   4.095   2.597  16.693  0.4221 -0.0986 -0.5554
13121TIP3    H160778   4.061   2.517  16.653  0.7423 -0.5889  0.1453
13121TIP3    H260779   4.025   2.626  16.752  1.2272 -1.1722  0.9760
13122TIP3   OH260780   6.348   1.583   4.985 -0.9635 -0.3246 -0.6730
13122TIP3    H160781   6.289   1.547   5.052  0.9258 -1.3125  0.5103
13122TIP3    H260782   6.360   1.512   4.923  0.2234 -0.7023 -0.0430
13123TIP3   OH260783   5.232   1.985  12.590 -0.2043 -0.5565  0.2485
13123TIP3    H160784   5.183   2.042  12.530  1.5933  0.1529 -0.5722
13123TIP3    H260785   5.184   1.991  12.673 -2.0067 -0.5671 -0.7630
13124TIP3   OH260786   0.164   2.803   1.165  0.1760  0.2741  0.1160
13124TIP3    H160787   0.189   2.777   1.077 -0.8274  0.9233 -0.3653
13124TIP3    H260788   0.240   2.849   1.199  1.4564 -1.9971  0.4628
13125TIP3   OH260789   6.633   1.121  15.389 -0.4204 -0.1551  0.1829
13125TIP3    H160790   6.585   1.047  15.352 -0.1264 -0.4619  0.4098
13125TIP3    H260791   6.704   1.137  15.327 -2.1807  1.8418 -1.4185
13126TIP3   OH260792   2.086   2.089   1.320  0.3558  0.8399  0.1511
13126TIP3    H160793   2.027   2.076   1.245 -1.0198  2.3811  0.9268
13126TIP3    H260794   2.039   2.050   1.394  2.0288 -1.3261  0.1080
13127TIP3   OH260795   1.902   3.356   6.245 -0.5312 -0.0693 -0.2709
13127TIP3    H160796   1.915   3.408   6.323  0.9896 -1.4052  0.3890
13127TIP3    H260797   1.989   3.350   6.204 -1.3549  0.9023 -2.2712
13128TIP3   OH260798   0.742   4.717  16.896 -0.2899  0.7113 -0.4967
13128TIP3    H160799   0.774   4.688  16.982 -0.0430 -0.1046 -0.8548
13128TIP3    H260800   0.717   4.808  16.909 -0.5378  0.5029  0.5193
13129TIP3   OH260801   1.272   3.093   4.084  0.3964  0.0437  0.1782
13129TIP3    H160802   1.204   3.031   4.110 -0.8151  1.2717 -0.0171
13129TIP3    H260803   1.274   3.088   3.989 -0.2116  0.8323  0.1217
13130TIP3   OH260804   0.475   2.480   5.308 -0.3230 -0.1334 -0.0466
13130TIP3    H160805   0.477   2.389   5.338 -1.4986  0.1965  1.0346
13130TIP3    H260806   0.515   2.530   5.379  0.7149  0.1679 -0.8178
13131TIP3   OH260807   2.295   4.845  15.643  0.1538 -0.1302 -0.0964
13131TIP3    H160808   2.365   4.905  15.667 -0.3069  0.4311 -0.1540
13131TIP3    H260809   2.262   4.813  15.727 -1.2451  1.5928  0.0398
13132TIP3   OH260810   4.176   3.566   1.910 -0.2687 -0.3673  0.3648
13132TIP3    H160811   4.253   3.516   1.936  1.5038  1.9985 -0.1116
13132TIP3    H260812   4.170   3.636   1.975 -2.4928 -0.9667  0.8373
13133TIP3   OH260813   3.544   2.228   3.731 -0.5634 -0.5372 -0.3631
13133TIP3    H160814   3.450   2.228   3.713 -0.5320  1.0267 -0.5824
13133TIP3    H260815   3.569   2.320   3.727  0.8262 -0.8659  0.5009
13134TIP3   OH260816   1.528   6.682  10.497  0.1537 -0.4519 -0.0539
13134TIP3    H160817   1.610   6.649  10.533  0.7311  1.7115  0.6724
13134TIP3    H260818   1.549   6.770  10.467 -1.6170 -0.3180 -0.9662
13135TIP3   OH260819   3.069   5.454   2.085 -0.1508  0.0134 -0.7671
13135TIP3    H160820   3.106   5.480   2.170 -0.2649 -0.7463 -0.4797
13135TIP3    H260821   3.130   5.388   2.052 -1.3209 -1.3705 -0.2175
13136TIP3   OH260822   5.654   1.517  16.113  0.1578  0.0779  0.1973
13136TIP3    H160823   5.734   1.560  16.142 -0.0733  0.2031  0.6579
13136TIP3    H260824   5.664   1.426  16.144 -0.2428  0.2955  0.9923
13137TIP3   OH260825   6.509   3.415   4.107  0.2838 -0.1654  0.0380
13137TIP3    H160826   6.553   3.483   4.159  0.5733 -0.6376  0.4140
13137TIP3    H260827   6.462   3.362   4.171 -1.1582  0.5585 -0.3968
13138TIP3   OH260828   6.698   2.779   5.819  0.1282 -0.2458 -0.1159
13138TIP3    H160829   6.708   2.873   5.828  0.1679 -0.5097  3.4332
13138TIP3    H260830   6.604   2.765   5.810  0.3546  0.2949 -4.0255
13139TIP3   OH260831   0.341   3.442  15.077 -0.5995  0.7566  0.4535
13139TIP3    H160832   0.382   3.484  15.002  1.5957  1.4917  2.0184
13139TIP3    H260833   0.375   3.352  15.076 -0.6257  0.7452  0.5364
13140TIP3   OH260834   4.870   3.109   0.305  0.6962 -0.2651 -0.1020
13140TIP3    H160835   4.948   3.068   0.267  0.5304 -0.9585  0.3049
13140TIP3    H260836   4.892   3.202   0.312  1.7413 -0.5699  0.6671
13141TIP3   OH260837   0.681   1.875  13.444 -0.8801  0.5160  0.3848
13141TIP3    H160838   0.684   1.785  13.476 -0.6487  0.5925  0.5755
13141TIP3    H260839   0.721   1.927  13.513 -1.6240  0.8515  0.5702
13142TIP3   OH260840   3.864   1.111  12.961 -0.3936  0.2015  0.0867
13142TIP3    H160841   3.848   1.198  12.923 -0.2454  0.2300  0.0901
13142TIP3    H260842   3.863   1.125  13.055  0.6084  0.3760  0.0813
13143TIP3   OH260843   4.843   6.175   3.973 -0.4779  0.3286  0.2594
13143TIP3    H160844   4.851   6.095   3.921 -1.6188  0.1225  0.3731
13143TIP3    H260845   4.847   6.144   4.064  0.1170  0.5222  0.2996
13144TIP3   OH260846   0.905   0.811  14.162  0.3560 -0.5138  0.1670
13144TIP3    H160847   0.841   0.806  14.233  0.6401  0.0984  0.4763
13144TIP3    H260848   0.914   0.905  14.145  2.3847 -0.4876  1.2373
13145TIP3   OH260849   5.602   5.664  13.383  0.3066 -0.0629  0.5946
13145TIP3    H160850   5.587   5.749  13.341 -0.0495  0.5289  1.8848
13145TIP3    H260851   5.683   5.677  13.432  0.8420 -0.8189 -0.0731
13146TIP3   OH260852   3.962   5.666  12.006 -0.2818  0.3079  0.1036
13146TIP3    H160853   3.972   5.607  11.931  1.4582 -1.3876  1.6062
13146TIP3    H260854   4.043   5.655  12.056 -0.2599  3.4298  0.8377
13147TIP3   OH260855   4.107   6.021   5.921 -0.1764 -0.5929 -0.4321
13147TIP3    H160856   4.167   5.950   5.944  1.1330  0.6444  0.0391
13147TIP3    H260857   4.067   6.046   6.004 -1.3747 -1.4119 -0.7439
13148TIP3   OH260858   1.018   6.153  14.828 -0.4390  0.8119 -0.1625
13148TIP3    H160859   1.060   6.124  14.747 -1.2561 -0.2269 -0.2152
13148TIP3    H260860   1.062   6.235  14.849  0.6072  0.4821 -1.0127
13149TIP3   OH260861   1.008   4.281  11.272 -0.1273 -0.2237 -0.5698
13149TIP3    H160862   0.920   4.280  11.236 -0.4672 -1.5261  0.2249
13149TIP3    H260863   1.031   4.373  11.279 -1.4464  0.1284 -0.7504
13150TIP3   OH260864   2.674   5.431   2.125  0.1042 -0.2050 -0.2613
13150TIP3    H160865   2.688   5.360   2.188 -1.9192 -0.5143 -0.1086
13150TIP3    H260866   2.726   5.406   2.048  3.2631  0.5778  1.5321
13151TIP3   OH260867   1.563   5.252  10.958 -0.1056  0.3561  0.5826
13151TIP3    H160868   1.574   5.323  11.021 -0.5225 -1.0488  2.2610
13151TIP3    H260869   1.469   5.235  10.956  0.2190 -1.8467  2.1260
13152TIP3   OH260870   5.053   0.704  13.554 -0.2254  0.0640  0.2552
13152TIP3    H160871   4.991   0.661  13.495  1.3513 -1.7704 -0.1200
13152TIP3    H260872   5.025   0.795  13.555 -0.8118 -0.0283 -2.6442
13153TIP3   OH260873   6.333   3.615  11.475  0.0358  0.2331  0.2545
13153TIP3    H160874   6.263   3.681  11.470  0.4761  0.8375  1.7776
13153TIP3    H260875   6.310   3.563  11.553 -0.4776 -1.6244 -1.1018
13154TIP3   OH260876   6.657   0.299  15.465  0.0496 -0.1414  0.0440
13154TIP3    H160877   6.691   0.221  15.508 -0.8228 -0.7782 -0.4177
13154TIP3    H260878   6.592   0.334  15.526  0.3031  0.1192  0.1642
13155TIP3   OH260879   4.224   1.861  13.672  0.0435 -0.1673  0.4037
13155TIP3    H160880   4.293   1.817  13.722  1.5120 -1.6562 -2.8342
13155TIP3    H260881   4.144   1.814  13.696  0.6151 -0.4866  1.7653
13156TIP3   OH260882   0.946   5.314  11.412  0.2674 -0.3543 -0.2095
13156TIP3    H160883   0.940   5.251  11.340  1.8587 -0.5203 -0.2280
13156TIP3    H260884   1.031   5.295  11.453 -0.2276  0.3115  1.1721
13157TIP3   OH260885   2.811   2.212   3.736 -0.0220  0.4723  0.3318
13157TIP3    H160886   2.760   2.132   3.748 -0.8907  1.0361  0.3487
13157TIP3    H260887   2.902   2.182   3.739 -0.3465 -0.5762 -0.0570
13158TIP3   OH260888   6.062   6.454  11.987  0.2034 -0.8201 -0.2381
13158TIP3    H160889   6.004   6.424  12.057 -0.1695  0.4508  0.0044
13158TIP3    H260890   6.014   6.436  11.906  0.3684 -1.6989 -0.1558
13159TIP3   OH260891   0.610   3.752   0.519  0.0889 -0.3540 -0.3146
13159TIP3    H160892   0.526   3.713   0.494 -1.6663  1.5069  2.2749
13159TIP3    H260893   0.598   3.846   0.503  1.4100  0.0102  0.7545
13160TIP3   OH260894   4.926   4.683   3.737 -0.0052 -0.2319 -0.1686
13160TIP3    H160895   4.885   4.704   3.653 -2.4453 -1.3308  0.6837
13160TIP3    H260896   4.852   4.675   3.798  1.4853 -2.3632  1.4389
13161TIP3   OH260897   1.530   5.919   4.040  0.5219  0.1633  0.4014
13161TIP3    H160898   1.447   5.939   3.996 -1.3325  0.5344  3.8284
13161TIP3    H260899   1.570   6.005   4.055 -1.3165  0.5288  3.8017
13162TIP3   OH260900   5.486   3.192   2.361 -0.0762 -0.0073  0.1048
13162TIP3    H160901   5.398   3.227   2.344 -0.2442 -0.0282  0.9236
13162TIP3    H260902   5.487   3.173   2.455  1.3265  1.4746  0.4213
13163TIP3   OH260903   4.877   2.327   5.212  0.4955 -0.2287 -0.4397
13163TIP3    H160904   4.913   2.412   5.185 -1.2294  0.3469 -0.9483
13163TIP3    H260905   4.924   2.306   5.292  1.3442  0.9359 -0.6161
13164TIP3   OH260906   4.786   3.444   0.398  0.4539  0.7665  0.3049
13164TIP3    H160907   4.790   3.488   0.482  1.9973  0.7059  0.2764
13164TIP3    H260908   4.736   3.364   0.415 -0.0571  1.2181  0.9458
13165TIP3   OH260909   1.403   0.077   5.370 -0.0405  0.2723  0.0466
13165TIP3    H160910   1.443   0.164   5.360  0.9610 -0.3130 -1.1819
13165TIP3    H260911   1.464   0.018   5.327 -0.6711 -1.0666  0.9668
13166TIP3   OH260912   3.418   5.197  15.686 -0.0171 -0.1735  0.1994
13166TIP3    H160913   3.378   5.197  15.772  0.8999  3.1035  0.7135
13166TIP3    H260914   3.509   5.170  15.702 -0.6159 -2.5153 -0.2110
13167TIP3   OH260915   5.353   5.397   3.527  0.2257 -0.0618  0.1781
13167TIP3    H160916   5.292   5.461   3.564 -1.0425 -0.4646 -1.1446
13167TIP3    H260917   5.329   5.315   3.569  0.9462  0.0834  0.8691
13168TIP3   OH260918   5.966   4.703  16.946 -0.0798 -0.7336  0.3727
13168TIP3    H160919   6.030   4.671  17.010 -0.4864  1.8060  2.1011
13168TIP3    H260920   6.018   4.726  16.869  1.0392  0.7632  1.5561
13169TIP3   OH260921   2.920   5.277  15.902  0.4681  0.0357  0.1089
13169TIP3    H160922   2.851   5.339  15.927  0.1324 -0.3655  0.1781
13169TIP3    H260923   2.909   5.203  15.961  0.4946 -0.3503 -0.3612
13170TIP3   OH260924   0.178   2.928   1.501 -0.6341 -0.1303 -0.4555
13170TIP3    H160925   0.087   2.899   1.513 -0.8250  0.1811 -1.0883
13170TIP3    H260926   0.174   2.986   1.425 -0.1581  1.0475  0.3972
13171TIP3   OH260927   3.829   5.748  13.628  0.4180 -0.0998 -0.4610
13171TIP3    H160928   3.755   5.801  13.599  2.3409  2.0487 -1.5945
13171TIP3    H260929   3.863   5.793  13.706  1.2398 -0.3933 -0.6383
13172TIP3   OH260930   3.784   0.981   2.583 -1.1119  0.1955  0.0512
13172TIP3    H160931   3.768   0.960   2.675 -2.0525 -0.5138 -0.2657
13172TIP3    H260932   3.697   1.004   2.548 -1.0315 -1.0804 -1.0472
13173TIP3   OH260933   4.543   4.602  16.779 -0.0430  0.3282 -0.1110
13173TIP3    H160934   4.452   4.581  16.802 -0.2732  3.0867  1.7197
13173TIP3    H260935   4.584   4.516  16.766 -2.1199 -1.0919  2.1030
13174TIP3   OH260936   1.834   1.816   2.041  0.6219  0.0023 -0.4854
13174TIP3    H160937   1.798   1.731   2.018 -1.0404  0.0355  1.7408
13174TIP3    H260938   1.767   1.879   2.014 -0.3838  0.1870  2.2784
13175TIP3   OH260939   3.513   1.660   4.885 -0.3940 -0.0899  0.5074
13175TIP3    H160940   3.445   1.697   4.941  1.0423  0.2867  2.0346
13175TIP3    H260941   3.589   1.650   4.942  0.4469 -1.7640 -0.8400
13176TIP3   OH260942   2.106   2.524   1.225 -0.5495 -0.0148 -0.0136
13176TIP3    H160943   2.091   2.443   1.274 -1.2459 -0.6006 -1.1598
13176TIP3    H260944   2.129   2.588   1.291  0.7338 -1.3316  0.8490
13177TIP3   OH260945   5.390   0.224  14.390 -0.4053  0.3314 -0.3430
13177TIP3    H160946   5.408   0.231  14.483 -0.5868  0.4884 -0.3219
13177TIP3    H260947   5.333   0.298  14.370 -0.1262  0.4688 -0.6347
13178TIP3   OH260948   6.522   1.338  15.527  0.5386 -0.2227 -0.3680
13178TIP3    H160949   6.542   1.263  15.470 -1.4310 -0.7499 -0.4215
13178TIP3    H260950   6.432   1.361  15.503  1.8648  3.5905 -1.9365
13179TIP3   OH260951   6.495   1.125   1.965  0.6073  0.4126  0.2031
13179TIP3    H160952   6.463   1.039   1.937 -0.0826  1.6200 -2.9936
13179TIP3    H260953   6.579   1.134   1.920  0.1854  1.8179 -0.3303
13180TIP3   OH260954   0.692   2.636   2.688  0.3648 -0.1007  0.1122
13180TIP3    H160955   0.676   2.589   2.770 -0.9441 -0.4153 -0.3067
13180TIP3    H260956   0.673   2.571   2.619 -2.0795  1.1726 -0.4785
13181TIP3   OH260957   4.683   6.407   4.275  0.3145  0.0354 -0.2883
13181TIP3    H160958   4.614   6.345   4.299  0.6846 -0.5701 -0.7895
13181TIP3    H260959   4.708   6.382   4.186  1.4514  0.0129  0.0297
13182TIP3   OH260960   2.427   0.659  14.922 -0.1066 -0.3772 -0.0825
13182TIP3    H160961   2.442   0.749  14.895 -1.0622  0.3322  1.6698
13182TIP3    H260962   2.506   0.635  14.971 -0.5565  0.0963  0.8938
13183TIP3   OH260963   6.321   4.219  15.432 -0.0940  0.3698 -0.2357
13183TIP3    H160964   6.260   4.285  15.465 -1.1157 -0.4371 -0.4630
13183TIP3    H260965   6.407   4.247  15.464 -0.8950  0.2103  2.1550
13184TIP3   OH260966   1.043   4.971  10.926 -0.3923  0.4718 -0.8549
13184TIP3    H160967   1.007   5.054  10.897  0.0645  0.8222 -0.4211
13184TIP3    H260968   0.969   4.911  10.925 -0.8474  1.0247 -0.6048
13185TIP3   OH260969   2.119   0.517   5.351 -0.1252  0.1384  0.2812
13185TIP3    H160970   2.101   0.498   5.443 -1.2972  0.5627  0.1483
13185TIP3    H260971   2.212   0.539   5.349 -0.0563 -0.0300  1.3408
13186TIP3   OH260972   0.749   5.888   1.287  0.1882  0.0749  0.2453
13186TIP3    H160973   0.699   5.838   1.351  2.7721 -0.6897  1.7637
13186TIP3    H260974   0.784   5.823   1.227  1.7425  0.2446  0.9315
13187TIP3   OH260975   2.080   0.941  15.378  0.7450 -0.1265  0.5505
13187TIP3    H160976   1.996   0.974  15.409  0.0549  0.1136 -1.4984
13187TIP3    H260977   2.132   1.019  15.359  1.1501 -0.2678  1.0542
13188TIP3   OH260978   6.032   4.418   4.008 -0.8109 -0.3419 -0.0498
13188TIP3    H160979   5.956   4.446   4.059  0.3087  0.2713  1.3274
13188TIP3    H260980   6.107   4.437   4.065  0.5247  0.9831 -2.1956
13189TIP3   OH260981   1.980   5.889   3.985 -0.4601 -0.4202 -0.0621
13189TIP3    H160982   1.887   5.911   3.971 -0.0396  0.5521 -1.4686
13189TIP3    H260983   2.024   5.919   3.905  0.9261 -1.8238  0.1461
13190TIP3   OH260984   3.358   6.304  11.265  0.6621 -0.1319 -0.0956
13190TIP3    H160985   3.274   6.283  11.305  0.5604 -0.6699 -0.5982
13190TIP3    H260986   3.423   6.271  11.327  0.5122  0.7390  0.5399
13191TIP3   OH260987   6.179   3.260  14.963 -0.0042  0.0098 -0.1133
13191TIP3    H160988   6.094   3.274  14.923 -0.7654  0.8996  1.7607
13191TIP3    H260989   6.177   3.170  14.995 -0.0989 -0.0814 -0.3778
13192TIP3   OH260990   0.206   6.050   1.404 -0.2321  0.5240  0.4576
13192TIP3    H160991   0.240   6.046   1.493  0.2787  1.6548  0.3326
13192TIP3    H260992   0.146   5.976   1.397  1.5951 -1.0250  0.9525
13193TIP3   OH260993   4.455   4.972  12.292 -0.5518  0.5601 -0.2901
13193TIP3    H160994   4.546   5.001  12.294 -0.6532  1.0499 -1.8180
13193TIP3    H260995   4.405   5.050  12.316 -0.5673  0.2088  0.8592
13194TIP3   OH260996   6.141   2.838   2.311  0.4692 -0.0783 -0.3160
13194TIP3    H160997   6.202   2.764   2.317  0.0955 -0.3130  0.7069
13194TIP3    H260998   6.068   2.813   2.368  0.2265  0.9726 -0.1639
13195TIP3   OH260999   1.478   6.470  16.785  0.2549 -0.2789 -0.0923
13195TIP3    H161000   1.511   6.511  16.705 -1.5273  0.2882 -0.5548
13195TIP3    H261001   1.522   6.385  16.789  0.4029 -0.2764 -1.6389
13196TIP3   OH261002   0.619   5.382   3.397 -0.2935  0.1754 -0.0208
13196TIP3    H161003   0.661   5.459   3.435  0.6429 -0.4576  0.2411
13196TIP3    H261004   0.533   5.413   3.368 -0.0890  1.2129  0.4727
13197TIP3   OH261005   6.445   3.848  11.702  0.7555  0.6494 -1.0009
13197TIP3    H161006   6.502   3.882  11.770  0.1520 -0.2807 -0.0151
13197TIP3    H261007   6.437   3.919  11.638 -0.5551  2.3959  1.0477
13198TIP3   OH261008   4.468   3.867  13.875  0.1356 -0.2476 -0.2474
13198TIP3    H161009   4.392   3.913  13.840 -1.1018 -1.5434  0.6504
13198TIP3    H261010   4.499   3.812  13.803 -0.3513 -0.4055 -0.3384
13199TIP3   OH261011   4.698   0.243   3.333 -0.4431 -0.8155 -0.6289
13199TIP3    H161012   4.669   0.169   3.386  0.7457 -1.2584 -0.5944
13199TIP3    H261013   4.617   0.290   3.312 -1.1627 -1.8878 -0.3064
13200TIP3   OH261014   0.259   3.614  15.832  0.1326  0.3675  0.2065
13200TIP3    H161015   0.334   3.565  15.865  0.2660 -0.3333 -1.0872
13200TIP3    H261016   0.277   3.625  15.738 -0.7732  1.2929  0.1373
13201TIP3   OH261017   0.703   2.106   1.798  0.0793 -0.3915  0.4018
13201TIP3    H161018   0.646   2.121   1.722  0.6908 -2.1386 -0.4505
13201TIP3    H261019   0.783   2.153   1.777  0.0371 -0.3999  0.2152
13202TIP3   OH261020   0.145   4.507   2.386 -0.4815  0.1790  0.0113
13202TIP3    H161021   0.217   4.550   2.339  0.4440 -0.4951  0.7963
13202TIP3    H261022   0.187   4.464   2.460 -1.9361  1.1949  1.4408
13203TIP3   OH261023   4.518   6.162   4.350  0.8738  0.3028 -0.2323
13203TIP3    H161024   4.425   6.179   4.339  0.8849  1.0821  0.8061
13203TIP3    H261025   4.524   6.101   4.424  1.2428  1.1951  0.4909
13204TIP3   OH261026   6.117   4.105   0.439 -0.4384  0.1869  0.4949
13204TIP3    H161027   6.189   4.164   0.417  0.0964  0.2103  2.2187
13204TIP3    H261028   6.093   4.130   0.528 -1.5504 -0.8697  0.4973
13205TIP3   OH261029   1.087   1.565   0.072 -0.3079  0.2248 -0.0349
13205TIP3    H161030   1.026   1.505   0.114 -1.6603  1.2486 -0.5217
13205TIP3    H261031   1.106   1.630   0.140 -0.7462  0.6180 -0.2892
13206TIP3   OH261032   2.648   6.336  12.812  0.0673 -0.2663  0.2785
13206TIP3    H161033   2.598   6.268  12.857  0.4723 -0.3342  0.6311
13206TIP3    H261034   2.592   6.413  12.814 -0.0046 -0.3306  0.7100
13207TIP3   OH261035   5.783   5.648   6.114 -0.0321 -0.4498 -0.5497
13207TIP3    H161036   5.710   5.608   6.159  1.2621 -1.1490  0.9673
13207TIP3    H261037   5.813   5.718   6.172  1.2454 -0.9455 -0.5779
13208TIP3   OH261038   6.451   5.847   1.179  0.4691  0.2566 -0.2544
13208TIP3    H161039   6.452   5.851   1.274  0.1736  1.5392 -0.3023
13208TIP3    H261040   6.387   5.779   1.158  1.5348 -0.9993  0.4741
13209TIP3   OH261041   2.433   2.633  15.867  0.3867 -0.1236  0.2669
13209TIP3    H161042   2.416   2.632  15.773 -2.3259  0.2065  0.7128
13209TIP3    H261043   2.465   2.721  15.885  0.3564 -0.0071 -0.2487
13210TIP3   OH261044   2.417   4.742   1.076  0.1608 -0.5921 -0.0856
13210TIP3    H161045   2.381   4.743   1.164  0.3564  0.1915 -0.0020
13210TIP3    H261046   2.469   4.823   1.071  0.4888 -0.8386 -0.7748
13211TIP3   OH261047   0.466   1.908   4.694 -0.4928 -1.1571 -0.1658
13211TIP3    H161048   0.493   1.838   4.633 -1.9972 -3.0136  1.2580
13211TIP3    H261049   0.544   1.923   4.748  0.2816 -0.7475 -1.3696
13212TIP3   OH261050   2.283   2.883  15.052 -0.2089  0.6458 -0.5766
13212TIP3    H161051   2.195   2.920  15.045  0.5348  2.0579 -2.8429
13212TIP3    H261052   2.305   2.855  14.964  1.2709 -0.5804  0.1501
13213TIP3   OH261053   2.999   1.676  14.649  0.4914  0.2735  0.1724
13213TIP3    H161054   2.912   1.646  14.674  0.4480 -2.2002 -2.6488
13213TIP3    H261055   3.059   1.630  14.708  0.1311 -1.6662 -0.9467
13214TIP3   OH261056   4.044   2.144  12.814  0.1505  0.3104 -0.5502
13214TIP3    H161057   4.134   2.111  12.817 -0.0003 -0.0533  2.6783
13214TIP3    H261058   4.053   2.237  12.797  1.2147  0.4016  0.4485
13215TIP3   OH261059   5.725   3.501   2.996  0.3250  0.3575 -0.3798
13215TIP3    H161060   5.653   3.541   3.044  2.0817  0.6836  2.0924
13215TIP3    H261061   5.762   3.572   2.944  1.2374  1.1553  1.3099
13216TIP3   OH261062   2.952   1.206   2.489 -0.3874 -0.0222 -0.3166
13216TIP3    H161063   2.925   1.118   2.460  0.9152  0.1951 -2.2911
13216TIP3    H261064   2.889   1.265   2.447 -1.1745  0.0397  0.8973
13217TIP3   OH261065   5.778   5.498  16.193  0.0699 -0.3300  0.7619
13217TIP3    H161066   5.854   5.440  16.189 -0.9580 -1.6522 -0.1253
13217TIP3    H261067   5.802   5.572  16.138  0.2604 -1.3177 -0.5228
13218TIP3   OH261068   2.556   4.897  10.491 -0.2786 -0.1771 -0.0395
13218TIP3    H161069   2.504   4.976  10.502  0.4495  0.1791  0.8945
13218TIP3    H261070   2.645   4.928  10.473  0.2005 -0.7647  1.2392
13219TIP3   OH261071   0.949   0.225  12.642 -0.2596 -0.3750 -0.9083
13219TIP3    H161072   1.001   0.270  12.709 -1.8985 -0.0928  0.2176
13219TIP3    H261073   0.951   0.133  12.668  1.2065 -0.6366 -1.9202
13220TIP3   OH261074   3.626   6.167  12.961 -0.4395 -0.4606  0.1978
13220TIP3    H161075   3.557   6.164  12.895  1.3731  1.2634 -1.8761
13220TIP3    H261076   3.592   6.226  13.029 -2.0547 -1.7281  0.5053
13221TIP3   OH261077   6.434   6.410   2.785 -0.0947 -0.2017 -0.1396
13221TIP3    H161078   6.484   6.470   2.729  0.5863 -0.9370 -0.3378
13221TIP3    H261079   6.392   6.466   2.850  0.1824  0.5287 -0.5859
13222TIP3   OH261080   2.287   5.753   5.401  0.0443 -0.6055 -0.0892
13222TIP3    H161081   2.330   5.806   5.467 -0.4122  0.5538 -0.7212
13222TIP3    H261082   2.329   5.777   5.318  0.1308 -1.5418 -0.3327
13223TIP3   OH261083   3.439   3.443   3.769 -0.5595 -0.2097  0.1961
13223TIP3    H161084   3.435   3.384   3.844  1.0007  0.1056  0.5360
13223TIP3    H261085   3.386   3.519   3.795  1.4989  0.7442  1.7622
13224TIP3   OH261086   0.434   1.473   5.547 -0.1301  0.0526 -0.3883
13224TIP3    H161087   0.345   1.441   5.540 -0.4124  1.3241 -3.1111
13224TIP3    H261088   0.479   1.408   5.601 -2.6921 -0.5438  1.1110
13225TIP3   OH261089   6.530   5.355  12.627 -0.2480  0.4819  1.0089
13225TIP3    H161090   6.438   5.364  12.606  0.2143  1.1648 -0.7993
13225TIP3    H261091   6.548   5.261  12.619  0.1952  0.8257 -3.0526
13226TIP3   OH261092   3.508   3.535   5.767  0.4960 -0.1186  0.0431
13226TIP3    H161093   3.532   3.626   5.753 -1.3618  0.1747 -1.4393
13226TIP3    H261094   3.459   3.510   5.689 -0.3693 -1.9232  1.1141
13227TIP3   OH261095   0.576   3.598   3.542 -0.4137 -0.1790 -0.0020
13227TIP3    H161096   0.573   3.534   3.613 -0.4939 -0.9222 -0.6761
13227TIP3    H261097   0.506   3.573   3.483 -1.4376  1.4504  0.4935
13228TIP3   OH261098   0.327   1.139   5.804 -0.2069 -0.1699  0.1771
13228TIP3    H161099   0.304   1.062   5.856  0.0701  0.2793  0.9810
13228TIP3    H261100   0.261   1.142   5.735 -1.2412 -0.1611  1.1432
13229TIP3   OH261101   4.165   1.484  12.492 -0.3125 -0.6157 -0.0991
13229TIP3    H161102   4.126   1.416  12.546 -0.1191 -1.6385 -1.2265
13229TIP3    H261103   4.250   1.449  12.467  0.4337  0.6958  0.5753
13230TIP3   OH261104   1.320   0.562   2.328  0.1770 -0.5375  0.6212
13230TIP3    H161105   1.353   0.482   2.369 -1.0112 -1.6090 -0.5022
13230TIP3    H261106   1.235   0.577   2.371 -0.1806 -0.5912 -0.0610
13231TIP3   OH261107   4.640   3.298  14.154  0.4437  0.3329 -0.8331
13231TIP3    H161108   4.567   3.331  14.103  0.0344  1.6321  0.5577
13231TIP3    H261109   4.717   3.339  14.116  0.3421 -0.1050 -1.5295
13232TIP3   OH261110   2.048   5.323   5.841 -0.1237  0.0540 -0.1106
13232TIP3    H161111   2.064   5.237   5.880  2.9355 -1.1755 -3.7407
13232TIP3    H261112   2.109   5.382   5.885  1.6487 -0.8351 -1.3056
13233TIP3   OH261113   1.482   1.594   0.079 -0.1337  0.3071  0.1444
13233TIP3    H161114   1.463   1.688   0.079 -0.1997  0.3021  1.0395
13233TIP3    H261115   1.483   1.570  -0.013 -0.3715  1.1370 -0.0858
13234TIP3   OH261116   3.529   5.568  14.465  0.4430  0.2543 -0.2411
13234TIP3    H161117   3.549   5.650  14.420  0.1806  0.2014 -0.4505
13234TIP3    H261118   3.436   5.576  14.489  0.2062 -0.3149 -0.9532
13235TIP3   OH261119   2.528   5.056   1.056 -0.4247  0.0418 -0.1466
13235TIP3    H161120   2.559   5.074   1.144  1.3092 -1.1286 -0.4786
13235TIP3    H261121   2.439   5.091   1.053 -0.0472  1.1759  1.6664
13236TIP3   OH261122   6.728   4.160   2.499  0.3239 -0.3762 -0.2304
13236TIP3    H161123   6.743   4.224   2.430  0.1063  0.4800  0.5033
13236TIP3    H261124   6.799   4.097   2.489  1.4293  0.8121 -0.0087
13237TIP3   OH261125   3.107   2.040   4.546  0.4793 -0.3891 -0.5143
13237TIP3    H161126   3.156   2.104   4.495 -1.8607  1.0844 -0.9943
13237TIP3    H261127   3.111   1.960   4.494  1.9008 -0.1420 -0.8029
13238TIP3   OH261128   4.409   4.899   2.147  0.7136 -0.0664 -0.1604
13238TIP3    H161129   4.373   4.862   2.067  1.8047  0.8390 -1.0833
13238TIP3    H261130   4.335   4.902   2.208  0.1771 -1.9624 -0.6957
13239TIP3   OH261131   4.573   2.961   3.805 -0.2031 -0.7979 -0.3194
13239TIP3    H161132   4.565   2.984   3.898 -0.1828 -0.0096 -0.5071
13239TIP3    H261133   4.662   2.988   3.782 -0.4318 -0.4035 -0.7325
13240TIP3   OH261134   0.345   2.980  11.808 -0.5853 -0.6925 -0.3166
13240TIP3    H161135   0.404   3.004  11.880 -0.8860  0.5501 -0.4773
13240TIP3    H261136   0.381   2.898  11.774 -0.5264 -1.3884  1.3481
13241TIP3   OH261137   5.791   5.520   1.179  0.1144 -0.4530 -0.3050
13241TIP3    H161138   5.714   5.568   1.209  0.5276  0.3030 -0.4360
13241TIP3    H261139   5.820   5.471   1.256  1.1138  1.4029  0.5422
13242TIP3   OH261140   0.197   5.204  11.085  0.3952 -0.7673  0.3344
13242TIP3    H161141   0.177   5.226  10.994  0.1103  0.9792  0.8029
13242TIP3    H261142   0.125   5.242  11.135  0.4646 -1.8609  1.2872
13243TIP3   OH261143   0.582   4.853   0.587 -0.1558  0.1012  0.7657
13243TIP3    H161144   0.511   4.891   0.638 -0.6188 -0.1802  0.3233
13243TIP3    H261145   0.618   4.926   0.537 -0.8079  0.0284  0.1951
13244TIP3   OH261146   6.007   5.610  11.579 -0.1742 -0.4498 -0.6389
13244TIP3    H161147   6.016   5.705  11.576 -2.8570 -0.0770  0.8980
13244TIP3    H261148   6.058   5.584  11.656 -0.5562 -0.0636 -0.2448
13245TIP3   OH261149   2.118   6.268   3.957  0.3753 -0.4852  0.6197
13245TIP3    H161150   2.166   6.325   4.017  0.7254  1.3962 -1.3497
13245TIP3    H261151   2.185   6.234   3.897 -0.1877 -1.0384  0.2932
13246TIP3   OH261152   3.897   5.045   3.412 -0.3816 -0.4631  0.5295
13246TIP3    H161153   3.935   5.070   3.497  0.7204  1.8994 -0.6030
13246TIP3    H261154   3.958   5.080   3.348 -2.4237 -0.1531 -1.2890
13247TIP3   OH261155   2.429   5.245  16.976  0.1184  0.3534 -0.6865
13247TIP3    H161156   2.370   5.317  17.000 -0.9865 -1.1053  1.0476
13247TIP3    H261157   2.440   5.254  16.881 -0.8432  2.1757 -0.6418
13248TIP3   OH261158   1.916   2.608   0.094 -0.0180  0.0116  0.1144
13248TIP3    H161159   1.877   2.522   0.108 -1.2896  0.3370 -1.3451
13248TIP3    H261160   1.928   2.614  -0.000  0.8501  1.1144  0.2800
13249TIP3   OH261161   2.972   3.537  10.818 -0.4511 -0.2189  0.7823
13249TIP3    H161162   2.947   3.455  10.776 -2.7321  1.1483 -0.6546
13249TIP3    H261163   2.977   3.600  10.746  3.3082  0.5112  1.5581
13250TIP3   OH261164   5.926   0.422   0.519  0.0319 -0.2389  0.3428
13250TIP3    H161165   6.002   0.467   0.554 -0.5122  1.1184 -0.1894
13250TIP3    H261166   5.912   0.461   0.433 -1.9549  0.3381  0.8973
13251TIP3   OH261167   4.653   5.608  16.335 -0.2360  0.2661  0.6538
13251TIP3    H161168   4.727   5.669  16.324 -1.3151  1.2622 -1.3729
13251TIP3    H261169   4.575   5.662  16.320 -1.2219 -1.5389 -0.9632
13252TIP3   OH261170   2.501   3.278   1.509  0.0702 -0.2319  0.7853
13252TIP3    H161171   2.587   3.316   1.489 -0.5429  0.8423  0.1068
13252TIP3    H261172   2.492   3.289   1.603  0.2252  0.6590  0.7060
13253TIP3   OH261173   3.311   3.000  13.366  0.6170 -0.0722 -0.0446
13253TIP3    H161174   3.367   2.976  13.292  0.1586  0.0879 -0.4413
13253TIP3    H261175   3.331   2.934  13.433  0.4324 -0.7027 -0.6032
13254TIP3   OH261176   6.478   1.809  13.589 -0.1794 -0.6067  0.1428
13254TIP3    H161177   6.437   1.731  13.552 -2.0630  0.8964 -1.0754
13254TIP3    H261178   6.408   1.852  13.638  0.7797  0.4163  0.6418
13255TIP3   OH261179   6.505   1.800   6.513 -0.0074  0.3915  0.1078
13255TIP3    H161180   6.455   1.722   6.490  0.5530 -0.0102  0.2510
13255TIP3    H261181   6.453   1.843   6.581 -1.7997  1.7091 -2.0111
13256TIP3   OH261182   2.743   3.210  12.344  0.4539 -0.0545 -0.3125
13256TIP3    H161183   2.704   3.247  12.423  0.5456  0.2842 -0.4252
13256TIP3    H261184   2.820   3.264  12.328  1.9275 -1.7616  0.8741
13257TIP3   OH261185   0.016   5.797  13.487  0.6592 -0.1175  0.0510
13257TIP3    H161186   0.084   5.844  13.439 -0.5042  0.8425 -0.7032
13257TIP3    H261187   0.029   5.823  13.578  1.8591 -0.6689  0.0513
13258TIP3   OH261188   5.928   3.769  16.352 -0.1114  0.0729  0.3084
13258TIP3    H161189   5.845   3.724  16.334 -0.9916  1.4695  0.7601
13258TIP3    H261190   5.935   3.835  16.282  0.4213  0.2276  0.5069
13259TIP3   OH261191   6.272   0.972   2.142 -0.2102  0.3490 -0.1686
13259TIP3    H161192   6.181   0.959   2.113 -0.6862  0.1464  1.3321
13259TIP3    H261193   6.322   0.903   2.098 -0.9850 -0.2361 -0.1470
13260TIP3   OH261194   3.441   3.481  14.629  0.2746  0.0201  0.5211
13260TIP3    H161195   3.370   3.525  14.677  1.8966  2.4799  0.7200
13260TIP3    H261196   3.407   3.471  14.540 -0.1635  1.5636  0.5054
13261TIP3   OH261197   0.649   2.498   4.028  0.2013  0.2850 -0.5258
13261TIP3    H161198   0.641   2.512   4.122  1.7524 -0.7190 -0.2266
13261TIP3    H261199   0.562   2.468   4.000 -0.0913 -0.0009  0.6874
13262TIP3   OH261200   3.645   0.639  15.536 -0.2854  0.3297  0.6004
13262TIP3    H161201   3.616   0.600  15.454 -0.1316  0.5602  0.4358
13262TIP3    H261202   3.709   0.577  15.571 -0.9865 -0.1759  0.9670
13263TIP3   OH261203   5.370   4.574  16.509 -0.5178 -0.1009  0.0930
13263TIP3    H161204   5.338   4.532  16.429  0.2741  1.1614 -0.8813
13263TIP3    H261205   5.393   4.500  16.566 -2.4823 -1.0286 -0.2346
13264TIP3   OH261206   0.657   3.854  12.485  0.3591  0.5031  0.4002
13264TIP3    H161207   0.700   3.880  12.404  1.4920 -1.0549  0.4812
13264TIP3    H261208   0.661   3.758  12.484  0.3126  0.4764  2.2656
13265TIP3   OH261209   3.865   3.345  16.844 -0.2603 -0.3141 -0.3989
13265TIP3    H161210   3.893   3.418  16.789 -0.7108  0.1513 -0.0188
13265TIP3    H261211   3.791   3.380  16.894  0.1949 -0.6973  0.5571
13266TIP3   OH261212   3.727   3.779   3.858  0.1390 -0.2218 -0.1009
13266TIP3    H161213   3.707   3.772   3.765 -1.0358  0.5181  0.0841
13266TIP3    H261214   3.722   3.873   3.877 -2.1937 -0.5667  1.2508
13267TIP3   OH261215   3.878   6.301  15.843 -0.0362  0.1803 -0.1104
13267TIP3    H161216   3.869   6.270  15.752 -0.1320  0.2631 -0.1289
13267TIP3    H261217   3.835   6.386  15.844  1.6992  1.0933 -0.4642
13268TIP3   OH261218   1.452   4.841  16.531  0.3686 -0.1516  0.7567
13268TIP3    H161219   1.469   4.935  16.531 -0.1949 -0.0049 -1.9834
13268TIP3    H261220   1.539   4.801  16.529  0.6015  0.3238  1.2233
13269TIP3   OH261221   4.416   5.461  14.177  0.1711  0.2020 -0.2209
13269TIP3    H161222   4.358   5.389  14.202 -0.4019 -0.1177 -2.3733
13269TIP3    H261223   4.357   5.534  14.158  0.4472 -0.1888 -2.6379
13270TIP3   OH261224   2.977   3.066  12.039 -0.1356 -0.0386 -0.4247
13270TIP3    H161225   2.992   3.126  12.112 -0.5299 -1.7308  1.0861
13270TIP3    H261226   2.896   3.097  11.999 -1.1266 -0.4334  1.2461
13271TIP3   OH261227   4.882   2.733  14.220 -0.0913  0.0461 -0.2904
13271TIP3    H161228   4.943   2.665  14.192  1.1222  0.4533  1.2622
13271TIP3    H261229   4.802   2.716  14.170  0.6019 -1.7561 -0.8360
13272TIP3   OH261230   2.952   4.818  12.274 -0.1799  0.1134 -0.6542
13272TIP3    H161231   3.026   4.816  12.215 -0.9229 -0.6067 -1.5831
13272TIP3    H261232   2.904   4.898  12.252 -0.0829  0.1984 -0.5544
13273TIP3   OH261233   3.391   5.403  13.595 -0.4134 -0.1410  0.6328
13273TIP3    H161234   3.373   5.335  13.530 -2.3431  1.0962 -0.1532
13273TIP3    H261235   3.403   5.483  13.544  2.8863 -0.0169  1.4649
13274TIP3   OH261236   2.981   5.882   4.532  0.1135  0.1234  0.0825
13274TIP3    H161237   2.886   5.891   4.543  0.4345  0.8898  2.5302
13274TIP3    H261238   3.009   5.962   4.487 -0.2393  0.4242  0.4013
13275TIP3   OH261239   2.732   2.052  16.262  0.0108 -0.3921 -0.1049
13275TIP3    H161240   2.688   1.975  16.226 -0.3319  0.2681 -1.1255
13275TIP3    H261241   2.818   2.051  16.220 -0.0711 -0.1051 -0.2786
13276TIP3   OH261242   0.740   1.677   3.283  0.0428  0.5038 -0.4614
13276TIP3    H161243   0.767   1.690   3.374 -1.3987 -2.3784  0.4534
13276TIP3    H261244   0.646   1.699   3.283 -0.6292 -2.1271 -0.5388
13277TIP3   OH261245   1.070   6.407   2.107 -0.0424  0.4811 -0.1785
13277TIP3    H161246   1.134   6.466   2.149 -0.5482  0.1696  1.0608
13277TIP3    H261247   1.115   6.374   2.030  0.9025  1.1146  0.0912
13278TIP3   OH261248   2.839   3.464   3.727  0.2808  0.3233  0.3438
13278TIP3    H161249   2.811   3.547   3.688  0.7826  0.4532  0.2562
13278TIP3    H261250   2.761   3.409   3.725 -0.2631  1.0486  1.0871
13279TIP3   OH261251   5.785   2.627  16.153 -0.0283  0.2518 -0.5071
13279TIP3    H161252   5.760   2.547  16.108 -1.2323  0.4987 -0.2869
13279TIP3    H261253   5.839   2.598  16.226  1.4854 -0.1952 -1.7522
13280TIP3   OH261254   0.297   6.719  11.403  0.0997 -0.6084  0.2198
13280TIP3    H161255   0.356   6.753  11.336  1.1495  0.0805  1.4573
13280TIP3    H261256   0.261   6.639  11.365  0.1167  0.1477 -1.4381
13281TIP3   OH261257   0.193   6.166  12.207  0.1855  0.3566  0.1134
13281TIP3    H161258   0.130   6.095  12.222  0.5956 -0.0466 -0.0642
13281TIP3    H261259   0.245   6.169  12.287  1.0308 -0.4290 -0.3946
13282TIP3   OH261260   2.827   1.777  11.842  0.6348  0.2057 -0.1262
13282TIP3    H161261   2.884   1.711  11.880 -0.0887 -0.0297  0.5809
13282TIP3    H261262   2.788   1.822  11.918 -0.6716 -0.1291 -0.5757
13283TIP3   OH261263   6.778   4.692   2.158 -0.0196 -0.6490  0.0412
13283TIP3    H161264   6.766   4.781   2.191 -0.6601 -0.5885 -0.3410
13283TIP3    H261265   6.863   4.693   2.116  0.6141 -0.6092  1.3019
13284TIP3   OH261266   0.778   1.689   6.040  0.5109  0.2025  0.1404
13284TIP3    H161267   0.700   1.742   6.060  0.7019  1.1438 -1.5373
13284TIP3    H261268   0.813   1.666   6.126 -1.1331  0.4989  0.9104
13285TIP3   OH261269   4.127   5.702  13.771 -0.2543 -0.2933  0.5903
13285TIP3    H161270   4.105   5.707  13.678  2.0107 -0.7597 -0.0118
13285TIP3    H261271   4.066   5.763  13.814  0.7063  2.2961 -1.5901
13286TIP3   OH261272   6.089   5.867  16.739  0.1862  0.1063  0.0207
13286TIP3    H161273   6.060   5.938  16.682 -0.8558 -0.4171 -0.1236
13286TIP3    H261274   6.176   5.843  16.706 -0.6312 -0.5528 -1.7023
13287TIP3   OH261275   2.004   2.773  15.758  0.4493  0.0232 -0.3325
13287TIP3    H161276   1.933   2.745  15.700 -0.4535  1.3716  0.0851
13287TIP3    H261277   1.963   2.781  15.844  0.9246  1.5110 -0.2313
13288TIP3   OH261278   2.622   2.219  14.872  0.4867  0.2351  0.4545
13288TIP3    H161279   2.673   2.140  14.855 -0.7674 -0.8539  1.6762
13288TIP3    H261280   2.560   2.193  14.940 -0.6118  1.9957  0.1363
13289TIP3   OH261281   2.781   3.530  12.533  0.7479  0.5372 -0.2372
13289TIP3    H161282   2.847   3.475  12.576 -0.5150 -2.1363 -1.5711
13289TIP3    H261283   2.697   3.500  12.570  0.0483  1.7047 -0.8502
13290TIP3   OH261284   0.627   0.627  14.945 -0.1942  0.7655 -0.3722
13290TIP3    H161285   0.611   0.612  14.852  0.9237 -0.1770 -0.4228
13290TIP3    H261286   0.561   0.574  14.990 -0.1214  0.4595 -0.6241
13291TIP3   OH261287   1.151   6.579  15.124  0.2122  0.1325 -0.7285
13291TIP3    H161288   1.217   6.642  15.094  0.5049  0.8268  1.2661
13291TIP3    H261289   1.077   6.633  15.151  0.2510 -0.4013  0.4854
13292TIP3   OH261290   5.034   4.070   5.753 -0.2272 -0.5801 -0.1145
13292TIP3    H161291   4.970   4.049   5.820 -0.0258 -1.4015 -0.1740
13292TIP3    H261292   5.113   4.021   5.779 -0.0821 -0.7268 -0.8218
13293TIP3   OH261293   5.067   0.181   2.988  0.3319  0.0832  0.1693
13293TIP3    H161294   4.985   0.151   3.028 -0.4916  1.7310 -0.2209
13293TIP3    H261295   5.132   0.116   3.013 -0.9306 -0.8043  1.1825
13294TIP3   OH261296   0.957   1.325  16.673 -0.4717  0.1211  0.1076
13294TIP3    H161297   1.000   1.345  16.590  1.1376  0.5534  1.0302
13294TIP3    H261298   1.026   1.335  16.739 -1.1190 -2.5123  1.2700
13295TIP3   OH261299   6.045   1.317   0.324  0.1843  0.0894 -0.3980
13295TIP3    H161300   5.982   1.291   0.391  0.5398 -0.9998 -0.4815
13295TIP3    H261301   6.107   1.374   0.371 -1.2932  1.8169 -0.4933
13296TIP3   OH261302   2.118   5.448  14.883  0.0151  0.1295  0.5945
13296TIP3    H161303   2.188   5.511  14.900  0.7315 -0.3729 -0.4181
13296TIP3    H261304   2.051   5.467  14.949  0.3746  1.7081  0.5099
13297TIP3   OH261305   6.362   6.045  12.974  0.1102  0.1189 -0.1038
13297TIP3    H161306   6.434   6.085  13.022  1.8143 -1.5210 -1.2114
13297TIP3    H261307   6.369   6.081  12.885 -0.4674 -0.0241 -0.2141
13298TIP3   OH261308   3.617   3.589   5.148 -0.3074  0.2984  0.0050
13298TIP3    H161309   3.537   3.546   5.178 -0.4336  0.4147 -0.1705
13298TIP3    H261310   3.592   3.681   5.134 -0.0634  0.4113  0.2794
13299TIP3   OH261311   5.315   1.304   6.824 -0.5102 -0.6059  0.4871
13299TIP3    H161312   5.323   1.364   6.899  2.0730 -0.9330  0.5101
13299TIP3    H261313   5.371   1.342   6.757 -3.4120  0.1120 -1.6607
13300TIP3   OH261314   1.356   4.977   0.139 -0.9514 -0.2625 -0.1714
13300TIP3    H161315   1.386   4.970   0.048  3.1771  0.6559  1.0061
13300TIP3    H261316   1.280   5.036   0.135 -0.0565  0.7812 -2.8846
13301TIP3   OH261317   1.648   1.322  14.742 -0.0408 -0.2597  0.6901
13301TIP3    H161318   1.601   1.301  14.661 -1.5794  0.1645  1.4458
13301TIP3    H261319   1.708   1.248  14.755  1.6735  0.6183 -1.8607
13302TIP3   OH261320   0.509   5.026  11.256  0.1069 -0.4136  0.1121
13302TIP3    H161321   0.543   4.937  11.247  0.0008 -0.2558 -2.2621
13302TIP3    H261322   0.414   5.015  11.260  0.1829 -0.5528  2.4805
13303TIP3   OH261323   6.006   0.196  13.347 -0.4578 -0.4816  0.1719
13303TIP3    H161324   6.025   0.283  13.379  0.1561  0.4092 -2.4593
13303TIP3    H261325   5.911   0.195  13.336 -0.3579  0.2488 -0.8220
13304TIP3   OH261326   1.288   1.604  12.953  0.5540  0.4293 -0.8135
13304TIP3    H161327   1.292   1.698  12.934 -0.6094  0.9883  1.5514
13304TIP3    H261328   1.281   1.599  13.048  0.0622 -2.0368 -0.9530
13305TIP3   OH261329   6.233   5.338  16.701 -0.0310 -0.0357 -0.2885
13305TIP3    H161330   6.184   5.349  16.782 -0.5523 -0.1184 -0.5836
13305TIP3    H261331   6.261   5.247  16.702  1.7140  0.5033  0.7480
13306TIP3   OH261332   1.625   1.500  12.236 -0.1129 -0.1250  0.6132
13306TIP3    H161333   1.534   1.491  12.208 -0.3334  2.1987  0.4675
13306TIP3    H261334   1.675   1.460  12.165 -0.9711 -0.4114  0.1506
13307TIP3   OH261335   6.018   0.180   1.366 -0.3121 -0.6943 -0.2166
13307TIP3    H161336   5.970   0.098   1.376  0.0548 -0.8689  0.1511
13307TIP3    H261337   5.979   0.239   1.431 -1.3961 -0.1845 -1.3167
13308TIP3   OH261338   6.399   0.352  16.549  0.3071  0.2615  0.1404
13308TIP3    H161339   6.317   0.396  16.527  0.3609 -0.8084 -2.5024
13308TIP3    H261340   6.467   0.406  16.508  0.5956 -0.7396 -0.7326
13309TIP3   OH261341   1.011   2.743   5.844  0.2459 -0.3647 -0.8305
13309TIP3    H161342   1.100   2.725   5.876 -0.0169 -0.8302 -0.3470
13309TIP3    H261343   1.004   2.692   5.763 -0.0289 -1.3744 -0.1763
13310TIP3   OH261344   4.214   1.844   3.267  0.1351  0.7860 -0.3699
13310TIP3    H161345   4.193   1.928   3.226 -1.1082 -0.6074 -2.7103
13310TIP3    H261346   4.248   1.791   3.195  0.6297 -0.8205  1.0321
13311TIP3   OH261347   4.412   6.623  16.712  0.4624  0.0448 -0.8135
13311TIP3    H161348   4.497   6.661  16.737 -0.4208  0.6791  1.3147
13311TIP3    H261349   4.435   6.543  16.665  2.2490 -0.4654  0.8291
13312TIP3   OH261350   6.533   6.709   5.607 -0.2462  0.1050 -1.0926
13312TIP3    H161351   6.582   6.757   5.541 -2.3981  0.4672 -2.4813
13312TIP3    H261352   6.452   6.759   5.618  0.4242  0.4711  2.4201
13313TIP3   OH261353   5.583   2.719  12.295 -0.2703  0.3594  0.4957
13313TIP3    H161354   5.564   2.625  12.301  1.5011  0.0456  1.5050
13313TIP3    H261355   5.497   2.760  12.297 -1.0170 -1.1681  1.9054
13314TIP3   OH261356   1.865   3.850  10.749  0.0000  0.8094 -0.8699
13314TIP3    H161357   1.940   3.909  10.745 -0.4716  1.3975 -1.1447
13314TIP3    H261358   1.899   3.771  10.792  0.9281  0.8132 -1.5908
13315TIP3   OH261359   2.591   2.630   2.896  0.0403  0.4057  0.3070
13315TIP3    H161360   2.609   2.560   2.833  0.9006  2.3069 -1.6374
13315TIP3    H261361   2.665   2.628   2.956  0.2300 -0.1001  0.0621
13316TIP3   OH261362   2.105   2.991  13.002  0.5549 -0.2072  0.7107
13316TIP3    H161363   2.038   2.935  13.041 -0.2954  1.1767  1.2672
13316TIP3    H261364   2.179   2.985  13.063 -0.2188  0.7466  1.7514
13317TIP3   OH261365   2.735   5.536  14.420 -0.1678  0.4402 -0.1694
13317TIP3    H161366   2.792   5.464  14.394  1.5946  0.9740  2.1048
13317TIP3    H261367   2.670   5.541  14.350  0.8475 -2.0551 -1.3535
13318TIP3   OH261368   0.516   1.327   6.184 -1.3706 -0.0263 -0.2929
13318TIP3    H161369   0.542   1.319   6.092 -1.5708 -0.1048 -0.3418
13318TIP3    H261370   0.588   1.375   6.225 -2.6944  2.8057 -1.1281
13319TIP3   OH261371   3.241   4.862   4.955 -0.2155 -0.1859  0.2132
13319TIP3    H161372   3.207   4.774   4.972  0.6520 -0.4179  0.7940
13319TIP3    H261373   3.229   4.909   5.038  0.8281 -0.2583  0.4119
13320TIP3   OH261374   1.383   1.499   2.417  0.4092 -0.1156 -0.3032
13320TIP3    H161375   1.349   1.588   2.423  0.9943  0.0732  0.2605
13320TIP3    H261376   1.307   1.443   2.431 -0.1551  0.2787 -1.6844
13321TIP3   OH261377   6.734   3.612  10.912 -0.4417  0.2329 -0.1097
13321TIP3    H161378   6.794   3.673  10.868 -0.6429  0.7669  0.3581
13321TIP3    H261379   6.655   3.663  10.927  0.1460  0.5058  2.1926
13322TIP3   OH261380   4.464   2.301   3.946  0.8524  0.2412 -0.5414
13322TIP3    H161381   4.474   2.319   4.040 -0.6422 -0.1974 -0.2919
13322TIP3    H261382   4.411   2.373   3.913  1.5527  0.5082 -1.1067
13323TIP3   OH261383   4.708   3.729   5.684  0.0293  0.2869  0.6550
13323TIP3    H161384   4.714   3.794   5.754 -1.9559  1.2083  0.0205
13323TIP3    H261385   4.676   3.650   5.727  0.4823  0.3353  1.0827
13324TIP3   OH261386   5.275   4.656  12.990 -0.1682 -0.3927  0.3385
13324TIP3    H161387   5.207   4.722  13.002 -1.2937 -1.7901  1.9421
13324TIP3    H261388   5.250   4.585  13.049  0.6973 -2.5003 -1.7498
13325TIP3   OH261389   0.825   3.571   0.269  0.3939  0.0123  0.1831
13325TIP3    H161390   0.734   3.589   0.292  0.9429  2.0218  0.9433
13325TIP3    H261391   0.821   3.497   0.209 -1.5052 -1.7469  2.4038
13326TIP3   OH261392   2.944   0.294   4.052  0.2168  0.2345 -0.4842
13326TIP3    H161393   2.955   0.199   4.064  0.4201 -0.2452 -3.9768
13326TIP3    H261394   2.861   0.303   4.006 -0.8784  1.9408  1.7829
13327TIP3   OH261395   6.310   1.696  16.285  0.0545 -0.4830 -0.6756
13327TIP3    H161396   6.398   1.690  16.247 -0.6413 -2.2283 -2.0940
13327TIP3    H261397   6.264   1.619  16.252 -2.5551  1.2917 -1.3867
13328TIP3   OH261398   3.500   4.350   4.705 -0.0049 -0.7886 -0.1502
13328TIP3    H161399   3.495   4.424   4.765  0.3971 -0.9901  0.1337
13328TIP3    H261400   3.441   4.374   4.633 -1.9373 -1.3923  1.2096
13329TIP3   OH261401   5.249   5.873   5.535 -0.0724  0.5073  0.1635
13329TIP3    H161402   5.308   5.821   5.480 -1.2187  0.1860 -0.7900
13329TIP3    H261403   5.243   5.823   5.617  0.3152  0.1040 -0.0513
13330TIP3   OH261404   0.379   3.592   0.455 -0.6101 -0.2218  0.4720
13330TIP3    H161405   0.286   3.590   0.431 -0.1051 -1.1014 -1.4998
13330TIP3    H261406   0.420   3.527   0.397  1.1086 -0.4027  1.8549
13331TIP3   OH261407   0.601   1.529   1.622  0.1938 -0.7613 -0.4873
13331TIP3    H161408   0.610   1.495   1.533  0.6337  0.3441 -0.8824
13331TIP3    H261409   0.518   1.577   1.620  0.4760 -0.2658 -0.4710
13332TIP3   OH261410   0.802   1.753   1.314  0.3088  0.0104  0.2798
13332TIP3    H161411   0.857   1.719   1.385  0.3552 -0.4518  0.0256
13332TIP3    H261412   0.744   1.816   1.357  1.8874  1.4559  0.3502
13333TIP3   OH261413   0.669   0.331  11.909 -0.4646 -0.0775  0.3473
13333TIP3    H161414   0.698   0.250  11.867 -2.0198  0.6200 -2.2399
13333TIP3    H261415   0.735   0.396  11.885  0.4130 -0.3942  1.8379
13334TIP3   OH261416   5.896   5.171  16.087  0.0628  0.4548 -0.0586
13334TIP3    H161417   5.959   5.239  16.111  0.0266  0.7927 -0.8925
13334TIP3    H261418   5.883   5.183  15.993 -2.3815  1.3736  0.3465
13335TIP3   OH261419   3.602   2.628   0.587 -0.1971 -0.0108 -0.5773
13335TIP3    H161420   3.626   2.562   0.521  0.4883 -2.2391  1.8341
13335TIP3    H261421   3.542   2.582   0.645 -1.2209  2.1005  0.0928
13336TIP3   OH261422   3.538   5.677   3.044 -0.4867  0.5461 -0.4639
13336TIP3    H161423   3.527   5.685   2.949 -2.8618  0.0309 -0.2728
13336TIP3    H261424   3.520   5.765   3.078 -0.6781  0.4902 -0.4173
13337TIP3   OH261425   0.847   3.318   4.761 -0.1343  0.3159  0.3454
13337TIP3    H161426   0.802   3.283   4.839 -1.1990  1.1586  0.1080
13337TIP3    H261427   0.798   3.395   4.737  0.1717  0.0367 -1.2153
13338TIP3   OH261428   1.936   5.999  13.905  0.0166  0.3452  0.1030
13338TIP3    H161429   1.899   6.013  13.818 -1.4785  2.6496  1.0621
13338TIP3    H261430   1.877   5.937  13.947 -0.2976  0.6371  0.0956
13339TIP3   OH261431   0.783   3.880   2.706  0.2757 -0.3304  0.2185
13339TIP3    H161432   0.828   3.891   2.789 -0.1794  1.2340  0.2795
13339TIP3    H261433   0.787   3.966   2.665 -0.6409 -0.7542 -0.7928
13340TIP3   OH261434   4.559   6.150  14.935  0.5373  0.1799 -0.5367
13340TIP3    H161435   4.597   6.198  15.008  1.3858  0.5043 -1.1839
13340TIP3    H261436   4.617   6.169  14.861  0.8737 -1.8116 -0.8123
13341TIP3   OH261437   3.952   2.707   2.982  0.0626  0.6096 -0.0657
13341TIP3    H161438   4.017   2.712   3.052  0.4761  2.8257 -0.5844
13341TIP3    H261439   3.868   2.721   3.026  0.3115  1.8879  0.0054
13342TIP3   OH261440   2.199   4.371  11.948 -0.1768 -0.0153  0.2500
13342TIP3    H161441   2.245   4.438  12.000 -1.6848  1.0336  0.2464
13342TIP3    H261442   2.248   4.291  11.967  1.4819  1.0052  0.4918
13343TIP3   OH261443   6.097   3.438  14.093 -0.4054 -0.7145 -0.2492
13343TIP3    H161444   6.128   3.519  14.050  0.7916 -0.7180  0.5764
13343TIP3    H261445   6.021   3.466  14.144 -0.1461 -0.1562 -0.1606
13344TIP3   OH261446   1.989   2.457   3.941 -0.0323  0.5899  0.1489
13344TIP3    H161447   2.063   2.421   3.989  0.8931  0.5443 -1.2990
13344TIP3    H261448   2.028   2.513   3.874 -1.3327  1.1824 -0.1304
13345TIP3   OH261449   2.838   1.634   0.932  0.0144  0.1670 -0.3575
13345TIP3    H161450   2.788   1.657   0.853 -0.9665  1.0304  0.5130
13345TIP3    H261451   2.910   1.698   0.934 -1.1770  1.5026  0.5956
13346TIP3   OH261452   0.640   2.815   5.323  0.1913 -0.0533 -0.6090
13346TIP3    H161453   0.723   2.791   5.282 -0.0040  1.4393 -1.9474
13346TIP3    H261454   0.631   2.909   5.304 -0.7707  0.2726  1.3683
13347TIP3   OH261455   0.586   0.219  14.854 -0.2244 -0.4338 -0.5071
13347TIP3    H161456   0.609   0.290  14.794 -3.1817  0.2049 -0.9837
13347TIP3    H261457   0.529   0.260  14.919  0.3366 -1.7982  0.8833
13348TIP3   OH261458   2.195   1.226   4.103  0.3902 -0.4440 -0.6596
13348TIP3    H161459   2.155   1.143   4.129  0.7142 -0.4951 -0.3196
13348TIP3    H261460   2.169   1.238   4.012 -0.0997 -0.6536 -0.5475
13349TIP3   OH261461   2.577   1.944   0.198  0.9526 -0.0754  0.1577
13349TIP3    H161462   2.550   2.034   0.183  1.4249  0.0246 -0.1144
13349TIP3    H261463   2.560   1.900   0.115 -0.2624 -0.4854  0.6207
13350TIP3   OH261464   4.050   2.694  12.985 -0.4653  0.5019  0.3490
13350TIP3    H161465   4.108   2.655  12.919 -1.4007  0.2974 -0.3610
13350TIP3    H261466   4.101   2.766  13.022  0.0111  0.7261 -0.7098
13351TIP3   OH261467   0.914   4.700  15.542 -0.1895 -0.1428  0.8602
13351TIP3    H161468   0.968   4.777  15.554 -0.9876  0.5227  0.2257
13351TIP3    H261469   0.871   4.712  15.458  1.6933 -2.5333 -0.5088
13352TIP3   OH261470   2.843   4.421  13.510 -0.4727 -0.6725  0.4924
13352TIP3    H161471   2.796   4.492  13.466 -0.0385 -1.7580 -1.7943
13352TIP3    H261472   2.782   4.347  13.507 -0.1137 -0.9865  0.9937
13353TIP3   OH261473   3.443   2.216   3.395  0.4123 -0.2505 -0.5541
13353TIP3    H161474   3.403   2.215   3.482 -0.1676 -1.6205 -0.8271
13353TIP3    H261475   3.500   2.139   3.394 -0.5104 -0.9376 -1.8019
13354TIP3   OH261476   6.704   6.457   2.943 -0.1756  0.5673  0.1625
13354TIP3    H161477   6.695   6.405   2.863  1.3667  0.3427  0.1264
13354TIP3    H261478   6.746   6.538   2.914  2.6639 -0.5334  1.1300
13355TIP3   OH261479   2.906   3.063   5.944 -0.0425  0.0927  0.4247
13355TIP3    H161480   2.903   3.157   5.962 -0.7915  0.0079  0.7641
13355TIP3    H261481   2.897   3.022   6.030 -0.5326 -0.2897  0.1937
13356TIP3   OH261482   4.063   5.991   0.979 -0.3556 -0.1340  0.3672
13356TIP3    H161483   4.029   6.080   0.986 -0.9258 -0.5000  2.9073
13356TIP3    H261484   4.071   5.975   0.885 -0.7191  2.4042 -0.1246
13357TIP3   OH261485   1.847   3.261  14.441  0.0185  0.5871 -0.3329
13357TIP3    H161486   1.805   3.185  14.480  0.5229  0.6178  0.2881
13357TIP3    H261487   1.791   3.335  14.466 -0.2578  0.4641 -0.5984
13358TIP3   OH261488   2.827   2.539  15.332  0.4753  0.1650  0.2298
13358TIP3    H161489   2.893   2.596  15.371  1.2523  0.1328 -1.0371
13358TIP3    H261490   2.840   2.548  15.238 -1.0356 -0.1848 -0.0197
13359TIP3   OH261491   2.756   6.433   2.320  0.4418 -1.3799  0.4716
13359TIP3    H161492   2.787   6.355   2.273 -1.1749 -0.7614 -1.7015
13359TIP3    H261493   2.757   6.407   2.412  0.2012 -3.9061 -0.1906
13360TIP3   OH261494   0.820   1.958   5.060 -0.1799  0.3437 -0.2865
13360TIP3    H161495   0.831   1.953   4.965 -1.2582  0.9970 -0.4504
13360TIP3    H261496   0.909   1.945   5.095  0.0203 -1.1945 -1.3174
13361TIP3   OH261497   0.661   6.546   4.999  0.0650  0.6235 -0.3136
13361TIP3    H161498   0.731   6.484   4.975 -0.1447  0.9606 -1.8307
13361TIP3    H261499   0.624   6.573   4.915 -1.6059  0.7873  0.4704
13362TIP3   OH261500   6.119   1.513   0.990  0.5598 -0.1388  0.1639
13362TIP3    H161501   6.159   1.437   1.031 -0.1798  0.1759  1.5136
13362TIP3    H261502   6.049   1.478   0.935 -0.7137 -0.3804  1.8821
13363TIP3   OH261503   3.712   4.290  15.642 -0.1821 -0.1422 -0.0295
13363TIP3    H161504   3.711   4.309  15.549  0.0147 -0.7114 -0.1525
13363TIP3    H261505   3.738   4.372  15.684 -1.8691  0.5657 -0.3574
13364TIP3   OH261506   1.117   3.276   5.810  0.4685  0.4204  0.0059
13364TIP3    H161507   1.189   3.320   5.765  0.6326 -0.4480 -0.5816
13364TIP3    H261508   1.117   3.187   5.775 -0.1630  0.0829  0.8422
13365TIP3   OH261509   0.252   5.177   3.813  0.0630  0.0280  0.5952
13365TIP3    H161510   0.279   5.162   3.722  0.0353  1.9704  0.2473
13365TIP3    H261511   0.294   5.260   3.837  0.3944 -0.6765  2.4963
13366TIP3   OH261512   3.656   5.686  15.171 -0.5999  0.1368 -0.2815
13366TIP3    H161513   3.715   5.620  15.135 -0.2636  0.3970 -0.2127
13366TIP3    H261514   3.656   5.756  15.107  0.6780  0.9793  0.6146
13367TIP3   OH261515   2.374   0.147   1.708 -0.2283  0.0821  0.4474
13367TIP3    H161516   2.419   0.195   1.638 -1.1069  0.0445 -0.1500
13367TIP3    H261517   2.298   0.200   1.729  0.6212  0.6411  2.1518
13368TIP3   OH261518   4.828   3.576   3.212  0.6259 -0.0117  0.6794
13368TIP3    H161519   4.854   3.484   3.214  0.5774 -0.0291  0.5165
13368TIP3    H261520   4.878   3.613   3.139  0.9576  0.1872  1.0042
13369TIP3   OH261521   0.399   5.409  11.224 -0.4254 -0.3557 -0.4629
13369TIP3    H161522   0.437   5.497  11.233  0.3143 -0.9009  2.5848
13369TIP3    H261523   0.469   5.357  11.183 -0.2028  0.0873 -0.6485
13370TIP3   OH261524   2.993   5.759  16.510 -0.4759  0.5428 -0.3141
13370TIP3    H161525   3.048   5.706  16.568 -1.2665  0.5258  0.4314
13370TIP3    H261526   3.045   5.769  16.430  0.4211  0.1543  0.2144
13371TIP3   OH261527   1.196   5.485  11.327 -0.2537  0.5545  0.3901
13371TIP3    H161528   1.186   5.400  11.370  1.0136  0.4094  0.3882
13371TIP3    H261529   1.164   5.470  11.238 -0.7121  0.2793  0.5948
13372TIP3   OH261530   0.149   0.878  14.599  0.6386  0.1620  0.4525
13372TIP3    H161531   0.086   0.938  14.560  1.9922  2.2504  1.3498
13372TIP3    H261532   0.231   0.896  14.554  1.6825  0.9397  2.5637
13373TIP3   OH261533   2.531   4.453  16.322 -0.1453  0.3811 -0.2332
13373TIP3    H161534   2.564   4.499  16.399  0.8337  0.7336 -0.8433
13373TIP3    H261535   2.449   4.498  16.301 -1.0721 -0.5408  1.3408
13374TIP3   OH261536   4.732   5.087  16.753  0.2976  0.6258 -0.1973
13374TIP3    H161537   4.772   5.082  16.666  0.9405 -0.6417  0.1579
13374TIP3    H261538   4.723   5.181  16.770  1.2979  0.9020 -1.1172
13375TIP3   OH261539   4.945   0.669  14.892  0.3175 -0.7810 -0.6006
13375TIP3    H161540   5.027   0.640  14.851  1.5358  1.1901  0.4126
13375TIP3    H261541   4.900   0.718  14.823  0.8362 -0.3034 -0.6002
13376TIP3   OH261542   0.249   1.342   2.990 -0.5604 -0.6667 -0.5818
13376TIP3    H161543   0.229   1.393   2.912  1.2164  1.3047  0.1793
13376TIP3    H261544   0.291   1.262   2.957  1.1354  0.6293 -1.6273
13377TIP3   OH261545   2.319   5.868  11.884  0.9184  0.0109 -0.8275
13377TIP3    H161546   2.398   5.885  11.935 -0.0114 -1.2901  1.0882
13377TIP3    H261547   2.317   5.940  11.819  2.9510  0.7816 -0.0800
13378TIP3   OH261548   4.773   4.508  14.442 -0.0857 -0.0273  0.8642
13378TIP3    H161549   4.806   4.570  14.508  0.6164  1.4057 -0.7800
13378TIP3    H261550   4.678   4.524  14.440 -0.3179 -1.1021  2.5350
13379TIP3   OH261551   0.248   1.328   5.992 -0.0029 -0.1410 -0.1151
13379TIP3    H161552   0.169   1.344   5.940 -0.0636  0.4147  0.1421
13379TIP3    H261553   0.300   1.268   5.939 -0.4616 -0.2695 -0.4249
13380TIP3   OH261554   4.218   0.042   0.834  0.0619 -0.0533  0.0559
13380TIP3    H161555   4.257   0.106   0.893  0.1316  0.2927 -0.3647
13380TIP3    H261556   4.130   0.076   0.817  0.4101  0.4149 -0.8873
13381TIP3   OH261557   4.566   6.478   5.383  0.0273  0.1961  0.0671
13381TIP3    H161558   4.507   6.470   5.457  0.0114  4.1743  0.5923
13381TIP3    H261559   4.644   6.428   5.409 -0.8757 -0.3772  1.7509
13382TIP3   OH261560   2.595   4.321   4.235 -0.1582  0.4596 -0.1324
13382TIP3    H161561   2.582   4.409   4.201  0.4814  0.0616 -1.4459
13382TIP3    H261562   2.686   4.300   4.214 -0.8368 -1.2493 -1.6225
13383TIP3   OH261563   2.678   2.638   1.868  0.7913  0.1056 -0.2683
13383TIP3    H161564   2.620   2.591   1.807  1.1731 -1.4406  0.5498
13383TIP3    H261565   2.701   2.719   1.821 -0.8448  0.0594 -1.1981
13384TIP3   OH261566   1.006   5.193  12.590 -0.7579  0.3691  0.1178
13384TIP3    H161567   1.056   5.141  12.528  0.8610  0.8208  1.0173
13384TIP3    H261568   0.932   5.225  12.540 -0.2313 -0.4432 -1.1997
13385TIP3   OH261569   6.043   1.481  15.387  0.5379 -0.5459 -0.4903
13385TIP3    H161570   6.068   1.573  15.399 -0.9191 -0.1435 -0.4528
13385TIP3    H261571   5.994   1.459  15.466 -0.6974 -0.7983 -1.3040
13386TIP3   OH261572   3.104   3.543  11.488 -0.4650 -0.3824 -0.2261
13386TIP3    H161573   3.185   3.583  11.518 -0.5749 -1.9861  2.2873
13386TIP3    H261574   3.126   3.452  11.472 -1.9067 -0.9761  1.0875
13387TIP3   OH261575   1.658   5.047   5.868 -0.4154  0.4922 -0.2544
13387TIP3    H161576   1.594   5.034   5.798 -0.8318  1.7022 -0.1097
13387TIP3    H261577   1.704   5.127   5.845  0.4151  0.1379  0.1357
13388TIP3   OH261578   6.169   2.448  16.818 -0.1799 -0.0631  0.6919
13388TIP3    H161579   6.135   2.360  16.837 -0.0509  0.3060  2.7291
13388TIP3    H261580   6.092   2.504  16.812 -0.2225 -0.1854  0.0739
13389TIP3   OH261581   6.006   1.705  14.980 -0.0847  0.2254  0.0237
13389TIP3    H161582   5.936   1.715  14.915 -0.3143 -0.5882  0.1445
13389TIP3    H261583   5.971   1.643  15.044  0.8783 -0.4650 -0.1068
13390TIP3   OH261584   1.913   4.882  16.862 -0.1825 -0.0881  0.2105
13390TIP3    H161585   1.847   4.813  16.861  1.1364 -1.4202  2.4107
13390TIP3    H261586   1.887   4.940  16.933 -1.9844  2.4665 -2.4101
13391TIP3   OH261587   2.214   2.162   5.503  0.8634  0.2456  0.3410
13391TIP3    H161588   2.145   2.228   5.493  1.9173  1.2955 -0.1221
13391TIP3    H261589   2.235   2.136   5.414 -0.0369 -1.2456  0.5567
13392TIP3   OH261590   5.562   0.569   1.882  0.0033  0.4502 -0.5708
13392TIP3    H161591   5.509   0.527   1.814  0.1246  0.1828 -0.5027
13392TIP3    H261592   5.623   0.625   1.833  1.0826 -0.8706 -0.7768
13393TIP3   OH261593   2.983   6.018   0.604  0.3403 -0.2090 -0.1539
13393TIP3    H161594   3.078   6.014   0.589  0.3646 -1.0712  0.1724
13393TIP3    H261595   2.951   5.935   0.570 -0.1502 -0.3935  0.7441
13394TIP3   OH261596   1.472   3.773   1.939  0.7706 -0.4613 -0.0117
13394TIP3    H161597   1.459   3.791   1.846  1.0833  0.5022  0.1199
13394TIP3    H261598   1.562   3.800   1.957  0.6149 -0.3470  0.6279
13395TIP3   OH261599   6.249   0.714  12.854  0.1211 -0.9057  0.1480
13395TIP3    H161600   6.317   0.780  12.865 -0.3576 -0.0015 -2.1304
13395TIP3    H261601   6.280   0.659  12.782 -1.6796 -0.3022 -1.1079
13396TIP3   OH261602   4.345   5.249  12.759 -0.0299 -0.2582 -0.4237
13396TIP3    H161603   4.353   5.235  12.853  2.8395 -2.9807 -0.9824
13396TIP3    H261604   4.291   5.176  12.729  1.1761 -0.8532 -1.1940
13397TIP3   OH261605   1.475   3.190  16.617 -0.4265  0.0210  0.0813
13397TIP3    H161606   1.420   3.114  16.601 -1.1530  0.4540  0.5084
13397TIP3    H261607   1.414   3.260  16.641  0.3201  0.4381  0.8003
13398TIP3   OH261608   2.394   4.456  10.338 -0.1123 -0.2833 -0.0386
13398TIP3    H161609   2.389   4.552  10.334  0.5078 -0.0406  3.4234
13398TIP3    H261610   2.307   4.427  10.312 -0.6046  1.2778 -0.2029
13399TIP3   OH261611   2.455   4.347   6.182  0.0462  0.1568  0.4113
13399TIP3    H161612   2.413   4.264   6.157 -4.1364  2.4376 -0.4875
13399TIP3    H261613   2.439   4.355   6.276 -0.8901  0.6593  0.2123
13400TIP3   OH261614   5.197   1.559   4.252  0.8464  0.8653  0.1501
13400TIP3    H161615   5.260   1.540   4.321  0.1613  1.2341  0.8830
13400TIP3    H261616   5.212   1.491   4.186  2.1583  1.0937  0.2132
13401TIP3   OH261617   4.236   1.195   1.769  0.0100 -0.2434 -0.0606
13401TIP3    H161618   4.325   1.229   1.780  0.4742 -1.1073 -1.1271
13401TIP3    H261619   4.215   1.211   1.677 -1.4875  1.2520  0.5217
13402TIP3   OH261620   5.926   1.802   2.634  0.1450 -0.0209 -0.7068
13402TIP3    H161621   5.857   1.776   2.696 -1.1208  2.8719 -0.8626
13402TIP3    H261622   5.898   1.766   2.550 -0.5183  0.0418 -0.5140
13403TIP3   OH261623   4.847   4.352  13.510  0.1253  0.0069 -0.6228
13403TIP3    H161624   4.923   4.307  13.473 -0.8679 -1.4882 -0.9003
13403TIP3    H261625   4.867   4.445  13.499  0.8960 -0.3718 -2.8126
13404TIP3   OH261626   2.353   6.050   5.151  0.2373  0.9424  0.2456
13404TIP3    H161627   2.362   5.954   5.148 -2.2056  0.6989 -1.5183
13404TIP3    H261628   2.399   6.080   5.073 -1.0835  0.9449 -0.5638
13405TIP3   OH261629   5.538   5.893   0.236 -0.4424 -0.3667  0.1125
13405TIP3    H161630   5.480   5.838   0.290 -2.0734  0.4779 -0.7339
13405TIP3    H261631   5.522   5.982   0.267  0.0061 -0.0673 -0.4982
13406TIP3   OH261632   3.746   5.473  12.336  0.1452 -0.0132 -0.7012
13406TIP3    H161633   3.690   5.426  12.273  1.1672 -0.1822 -1.5032
13406TIP3    H261634   3.834   5.436  12.322  0.6992  1.1606 -0.3750
13407TIP3   OH261635   4.839   3.957  13.447 -0.0821 -0.3314  0.4951
13407TIP3    H161636   4.824   4.034  13.393  0.0130 -0.9410 -0.4041
13407TIP3    H261637   4.760   3.950  13.500 -0.6984 -0.4309 -0.4261
13408TIP3   OH261638   3.736   0.218   4.486  0.4680  0.0222 -0.1442
13408TIP3    H161639   3.779   0.223   4.400  1.2934 -0.1814  0.2553
13408TIP3    H261640   3.744   0.307   4.521  0.7612 -0.0735  0.0286
13409TIP3   OH261641   0.845   3.477   1.999  0.1155  0.2259 -0.2841
13409TIP3    H161642   0.862   3.403   1.941  1.0551  2.4212 -2.9281
13409TIP3    H261643   0.898   3.460   2.077  1.1800 -1.2981 -1.3360
13410TIP3   OH261644   1.483   0.827  14.555  0.0049  0.3172  0.0525
13410TIP3    H161645   1.517   0.903  14.508  0.5203 -0.2782 -0.5630
13410TIP3    H261646   1.388   0.838  14.553  0.0212  0.4030 -0.9799
13411TIP3   OH261647   5.172   6.208   1.503  0.3220  0.6958  0.2339
13411TIP3    H161648   5.258   6.227   1.466  0.2349  1.1011  0.2318
13411TIP3    H261649   5.190   6.174   1.590  0.4906  0.6225  0.1707
13412TIP3   OH261650   2.109   0.207   1.401 -0.1357  0.5941  0.1237
13412TIP3    H161651   2.042   0.275   1.390 -1.0295 -0.2142  0.4833
13412TIP3    H261652   2.109   0.188   1.495  0.8919  0.8615  0.1891
13413TIP3   OH261653   2.916   4.201   2.425  0.6752 -0.1938  0.2540
13413TIP3    H161654   2.952   4.172   2.509 -1.9388 -1.3251  1.0197
13413TIP3    H261655   2.905   4.120   2.375 -2.3953 -0.1074  0.6965
13414TIP3   OH261656   2.760   1.454   5.599 -0.7307  0.3100 -0.0687
13414TIP3    H161657   2.681   1.462   5.652 -0.3074  0.6006  0.5251
13414TIP3    H261658   2.827   1.499   5.650 -0.2547  0.3286 -0.7162
13415TIP3   OH261659   5.636   1.835  12.276  0.0069 -0.3525 -0.5290
13415TIP3    H161660   5.558   1.854  12.328 -0.5812  0.4163 -1.6817
13415TIP3    H261661   5.617   1.751  12.235  1.0489 -1.6672  1.5593
13416TIP3   OH261662   4.926   4.454   3.204  0.2066 -0.2004  0.0262
13416TIP3    H161663   4.897   4.388   3.267  0.0661 -0.1135  0.0512
13416TIP3    H261664   4.938   4.405   3.123  0.0764 -0.2522  0.0378
13417TIP3   OH261665   6.330   4.834  10.874  0.2561 -0.2000  0.1945
13417TIP3    H161666   6.257   4.773  10.863  0.5579 -0.3391 -1.1440
13417TIP3    H261667   6.296   4.918  10.845  0.2814 -0.0290  0.6561
13418TIP3   OH261668   6.512   4.606  13.186 -0.1954 -0.1705 -0.1725
13418TIP3    H161669   6.436   4.623  13.242  0.6633  3.0799  0.0925
13418TIP3    H261670   6.487   4.640  13.101  0.8245  0.5786 -0.1744
13419TIP3   OH261671   0.535   4.291   5.572 -0.4315  0.7389 -0.2029
13419TIP3    H161672   0.597   4.308   5.643 -1.2215  1.8189  0.2542
13419TIP3    H261673   0.546   4.199   5.551  0.6409  0.6951  0.5294
13420TIP3   OH261674   2.479   3.862   0.688  0.1773 -0.1004 -0.2217
13420TIP3    H161675   2.557   3.810   0.710  0.1546 -0.6720 -1.4447
13420TIP3    H261676   2.474   3.928   0.757  1.8183  0.0233 -0.1963
13421TIP3   OH261677   0.640   6.283  16.639 -0.7387  0.7125 -0.0414
13421TIP3    H161678   0.637   6.194  16.605 -1.4907  0.2621  1.1464
13421TIP3    H261679   0.558   6.322  16.610 -1.6624  0.1359  1.6897
13422TIP3   OH261680   3.097   6.728  13.320  0.6320 -0.2995  0.5990
13422TIP3    H161681   3.103   6.822  13.336  1.6977 -0.6933  2.7305
13422TIP3    H261682   3.080   6.690  13.406 -0.8351 -1.9917 -0.4077
13423TIP3   OH261683   6.257   6.360  15.201 -0.1470 -0.1825  0.4062
13423TIP3    H161684   6.335   6.412  15.220  1.1307 -0.8739 -2.5266
13423TIP3    H261685   6.239   6.377  15.108 -0.9457 -3.2770 -0.0614
13424TIP3   OH261686   0.731   3.233  16.015  0.0033 -0.4794 -0.1661
13424TIP3    H161687   0.724   3.274  16.101 -2.8143  0.5183 -0.8195
13424TIP3    H261688   0.812   3.269  15.977  0.2611  0.5136  1.3010
13425TIP3   OH261689   6.252   0.578   5.869  0.8210  0.6713  0.2622
13425TIP3    H161690   6.308   0.606   5.797 -0.6498  0.8924 -0.8376
13425TIP3    H261691   6.285   0.491   5.893  2.3144  1.2625  0.3848
13426TIP3   OH261692   3.977   3.390   2.153  0.5889  0.1787  0.4790
13426TIP3    H161693   3.917   3.438   2.095  2.9267  0.8902 -1.4109
13426TIP3    H261694   3.958   3.298   2.135  0.6785  0.3947 -0.8003
13427TIP3   OH261695   1.491   0.498   4.399  0.2826 -0.4926 -0.2422
13427TIP3    H161696   1.487   0.556   4.324 -0.5139 -0.0556  0.1359
13427TIP3    H261697   1.418   0.437   4.387 -0.4016  0.1369  0.6195
13428TIP3   OH261698   2.884   4.403   6.554  0.4073 -0.3558 -0.0353
13428TIP3    H161699   2.813   4.463   6.530  0.6143  0.1598  0.6382
13428TIP3    H261700   2.944   4.407   6.479  1.2316  1.5327  0.6786
13429TIP3   OH261701   5.431   0.522  13.949 -0.2843 -0.2023  0.0162
13429TIP3    H161702   5.440   0.601  13.895  0.7241 -0.3747 -0.0812
13429TIP3    H261703   5.515   0.514  13.993 -0.1382 -1.5955 -0.4816
13430TIP3   OH261704   0.806   3.422   4.099  0.5212 -0.1827 -0.5613
13430TIP3    H161705   0.827   3.343   4.148  1.1256  0.0444 -0.4566
13430TIP3    H261706   0.711   3.418   4.088  0.0522  0.8792  2.5501
13431TIP3   OH261707   3.652   5.816   0.587 -0.3967  0.3997 -0.4065
13431TIP3    H161708   3.560   5.791   0.577 -0.5471 -0.1658  2.0830
13431TIP3    H261709   3.672   5.798   0.678  1.8449  1.7218 -0.5967
13432TIP3   OH261710   0.800   4.401   4.287  0.1372  0.1346  0.0748
13432TIP3    H161711   0.713   4.376   4.257  0.2883  0.6569 -0.8070
13432TIP3    H261712   0.860   4.358   4.226  0.4116  2.4657 -1.3467
13433TIP3   OH261713   0.249   0.131  16.178 -0.2949 -0.5922 -0.3641
13433TIP3    H161714   0.281   0.150  16.266 -1.7128 -0.5217  0.1473
13433TIP3    H261715   0.316   0.073  16.141  1.7197  1.5834 -0.2635
13434TIP3   OH261716   4.775   2.755  14.709  0.0944  0.3069 -0.1084
13434TIP3    H161717   4.799   2.788  14.622  0.9683 -1.1605 -0.4464
13434TIP3    H261718   4.683   2.778  14.718 -0.5781 -1.3099 -2.3076
13435TIP3   OH261719   0.637   4.738   4.632 -0.4854  0.3730 -0.1294
13435TIP3    H161720   0.683   4.792   4.568 -0.9277  2.5126  1.2594
13435TIP3    H261721   0.566   4.795   4.664 -1.6303 -1.4283  0.6276
13436TIP3   OH261722   2.463   4.828  16.109 -0.3700 -0.1016 -0.1025
13436TIP3    H161723   2.488   4.738  16.088  0.7994  0.3199 -0.5680
13436TIP3    H261724   2.402   4.854  16.039  1.5294  0.4316 -1.6133
13437TIP3   OH261725   6.590   4.499  15.023 -0.3898  0.7942 -0.0763
13437TIP3    H161726   6.498   4.526  15.034 -0.4133  1.1639 -1.1436
13437TIP3    H261727   6.640   4.569  15.064 -0.5060  1.8273 -1.6362
13438TIP3   OH261728   4.501   0.783   0.257 -0.0999 -0.1954 -0.1919
13438TIP3    H161729   4.465   0.761   0.171  0.1420 -1.1561 -0.0591
13438TIP3    H261730   4.590   0.748   0.254  0.2777  0.7551  0.0491
13439TIP3   OH261731   5.186   3.902   4.973  0.8967 -0.2847 -0.3923
13439TIP3    H161732   5.221   3.858   4.896 -0.0112 -0.4014 -0.7451
13439TIP3    H261733   5.117   3.960   4.938 -2.2477 -3.2043  0.6940
13440TIP3   OH261734   1.647   3.314  11.973  0.6372 -0.7198 -0.5022
13440TIP3    H161735   1.709   3.385  11.990  0.0083 -0.4017  0.5279
13440TIP3    H261736   1.583   3.353  11.914 -1.1772  0.4192  2.1337
13441TIP3   OH261737   0.664   6.498  14.400  0.2126 -0.8412  0.2646
13441TIP3    H161738   0.657   6.517  14.494  1.1178  0.3447  0.0997
13441TIP3    H261739   0.755   6.519  14.378 -0.3061  0.0118 -1.1271
13442TIP3   OH261740   1.566   6.563   4.218 -0.6640 -0.2742 -0.2027
13442TIP3    H161741   1.606   6.481   4.244  1.0537  0.7992  0.5954
13442TIP3    H261742   1.506   6.584   4.290 -1.5089 -1.0897 -0.6627
13443TIP3   OH261743   5.844   0.379   2.182  0.7760  0.1492  0.3329
13443TIP3    H161744   5.760   0.396   2.138 -0.6062 -0.6055  2.5694
13443TIP3    H261745   5.852   0.451   2.245  0.8902 -0.8018  1.4053
13444TIP3   OH261746   0.509   4.399  13.605 -0.4267  0.1575  0.0075
13444TIP3    H161747   0.456   4.368  13.679  0.6795 -0.4614  0.5511
13444TIP3    H261748   0.535   4.320  13.559 -2.0732  0.5886 -1.7671
13445TIP3   OH261749   0.597   0.315   0.411 -0.5575 -0.4258  0.5717
13445TIP3    H161750   0.549   0.252   0.465 -1.9043  0.2595  0.1870
13445TIP3    H261751   0.626   0.263   0.335 -1.1128 -0.7418  0.5700
13446TIP3   OH261752   1.035   0.614  11.348 -0.0993 -0.1186 -0.5010
13446TIP3    H161753   1.121   0.651  11.330  0.3791 -0.5656  0.7904
13446TIP3    H261754   0.993   0.607  11.262  1.5710 -0.9360 -1.2795
13447TIP3   OH261755   4.070   0.719  12.333 -0.0283 -0.1107  0.3040
13447TIP3    H161756   4.017   0.708  12.412  0.8407  0.5067  0.9912
13447TIP3    H261757   4.089   0.813  12.330  0.7016 -0.2673 -0.1397
13448TIP3   OH261758   2.799   2.784  13.937 -1.2221  0.4773 -0.0339
13448TIP3    H161759   2.890   2.763  13.913 -0.4819  1.0683  2.1582
13448TIP3    H261760   2.760   2.700  13.959 -0.6426  0.4443  0.8705
13449TIP3   OH261761   5.927   5.278  15.488  0.2130 -0.2237  0.6421
13449TIP3    H161762   6.011   5.323  15.479  0.4603 -0.8324 -0.0946
13449TIP3    H261763   5.873   5.315  15.418  0.0780 -0.3097  0.7005
13450TIP3   OH261764   3.314   0.715   4.495 -0.1698  0.4174 -0.4074
13450TIP3    H161765   3.375   0.645   4.472 -0.1825  0.2772 -0.0147
13450TIP3    H261766   3.267   0.682   4.572 -0.8690  0.4468 -0.8202
13451TIP3   OH261767   6.212   5.229  15.831  0.4362 -0.8201  0.2847
13451TIP3    H161768   6.294   5.186  15.854 -0.4153 -2.1012  0.9798
13451TIP3    H261769   6.149   5.158  15.823 -0.5949  0.1427 -0.3171
13452TIP3   OH261770   3.735   5.713   6.559  0.6345  0.2071 -0.1911
13452TIP3    H161771   3.747   5.744   6.469  1.6159  0.1081 -0.1065
13452TIP3    H261772   3.811   5.747   6.606  0.3141 -0.0465  0.5190
13453TIP3   OH261773   6.602   5.076  12.626 -0.2815 -0.2882  0.4538
13453TIP3    H161774   6.623   5.061  12.719 -2.0166  1.1811  1.1076
13453TIP3    H261775   6.688   5.086  12.584  0.5356 -1.0891  1.8739
13454TIP3   OH261776   2.211   5.851  10.880  0.4787 -0.1954  0.1008
13454TIP3    H161777   2.256   5.771  10.907  0.9890  0.1362  0.2462
13454TIP3    H261778   2.252   5.920  10.933 -0.9985 -0.0573  1.0791
13455TIP3   OH261779   4.204   4.465  13.277  0.4796  0.3146  0.0750
13455TIP3    H161780   4.182   4.489  13.367  0.6935 -0.4982  0.3506
13455TIP3    H261781   4.132   4.408  13.249  1.7193 -1.6196  0.6752
13456TIP3   OH261782   3.564   1.751  12.079 -0.4985 -0.0122 -0.3595
13456TIP3    H161783   3.539   1.701  12.001  0.9613 -0.4243 -0.5816
13456TIP3    H261784   3.581   1.839  12.047 -1.2862  0.1724 -0.2722
13457TIP3   OH261785   3.963   2.206  12.479  0.2593 -0.4816 -0.0566
13457TIP3    H161786   3.917   2.277  12.523  1.7519  1.5171 -1.6320
13457TIP3    H261787   3.914   2.127  12.503 -1.2978  1.0240  1.8945
13458TIP3   OH261788   4.470   6.435  16.526  0.3665 -0.6132 -0.2997
13458TIP3    H161789   4.530   6.371  16.490 -0.2988 -1.8045  0.6905
13458TIP3    H261790   4.420   6.467  16.450  2.6122  0.8392 -1.2233
13459TIP3   OH261791   2.534   0.462   3.754  0.8346 -0.0973  0.1263
13459TIP3    H161792   2.579   0.532   3.706  0.5295  0.2408  0.3339
13459TIP3    H261793   2.558   0.477   3.845  2.7965 -1.7477 -0.0873
13460TIP3   OH261794   4.311   3.115   0.087 -0.0949 -0.1867 -0.6275
13460TIP3    H161795   4.373   3.185   0.070 -1.1886  0.6345 -1.2937
13460TIP3    H261796   4.315   3.059   0.009 -2.3991  1.5528 -2.0790
13461TIP3   OH261797   0.949   4.413   0.202 -0.9388  0.6462 -0.3990
13461TIP3    H161798   0.935   4.350   0.273  2.1139  0.5486  0.1975
13461TIP3    H261799   0.955   4.497   0.246  0.0940  0.6958 -0.6339
13462TIP3   OH261800   1.347   4.327  15.943 -0.3223  0.2512  0.5156
13462TIP3    H161801   1.308   4.366  16.021 -2.1585  0.4980 -0.4794
13462TIP3    H261802   1.283   4.261  15.915  2.1486 -2.6457  1.4454
13463TIP3   OH261803   2.846   4.987   4.564  0.2233  0.0486 -0.5330
13463TIP3    H161804   2.883   5.027   4.643 -0.4806 -3.1181  1.4861
13463TIP3    H261805   2.923   4.958   4.515  0.6149 -0.0406  0.1135
13464TIP3   OH261806   1.764   1.984   1.743 -0.6265  0.9030 -0.7905
13464TIP3    H161807   1.670   1.983   1.759 -0.4738 -1.1522  0.1659
13464TIP3    H261808   1.795   2.067   1.779 -1.4582 -0.2238  2.7088
13465TIP3   OH261809   5.942   6.433   6.251 -0.1008 -0.3938 -0.5655
13465TIP3    H161810   5.891   6.509   6.278 -1.3976 -1.4413  0.0122
13465TIP3    H261811   5.880   6.379   6.202  0.8120 -1.0518 -1.0155
13466TIP3   OH261812   1.747   5.829  11.578 -0.0823 -0.0485 -0.3204
13466TIP3    H161813   1.835   5.867  11.586  0.6284 -1.3929 -1.4127
13466TIP3    H261814   1.706   5.845  11.663  0.9975  1.1220  0.0015
13467TIP3   OH261815   6.456   3.474  16.381 -0.1016 -0.5260  0.3004
13467TIP3    H161816   6.376   3.440  16.421 -0.6109  0.9543  0.5746
13467TIP3    H261817   6.485   3.403  16.323 -1.8789 -0.8987 -0.1835
13468TIP3   OH261818   0.861   0.785  14.853  0.2113 -0.2867  0.5095
13468TIP3    H161819   0.768   0.775  14.874 -0.2422  1.0576 -0.7459
13468TIP3    H261820   0.899   0.823  14.932 -0.2443 -1.0957  1.1257
13469TIP3   OH261821   0.088   4.004  14.254  0.4214 -0.1603 -0.1924
13469TIP3    H161822   0.165   4.058  14.272  1.7318 -1.3473 -2.1494
13469TIP3    H261823   0.081   3.947  14.330  0.7524  0.7540  0.5426
13470TIP3   OH261824   5.819   5.209   3.633  0.4949 -0.0257  0.3503
13470TIP3    H161825   5.739   5.194   3.582  1.4615 -0.6654 -1.0305
13470TIP3    H261826   5.794   5.192   3.723 -0.9251 -0.2394 -0.0724
13471TIP3   OH261827   6.576   1.541   5.578  0.4275  0.2223 -0.2117
13471TIP3    H161828   6.557   1.508   5.665  2.4912  1.1151  0.5978
13471TIP3    H261829   6.567   1.465   5.521  0.0146 -0.5694  0.8899
13472TIP3   OH261830   2.441   0.094  11.615  0.1302  0.7098  0.5181
13472TIP3    H161831   2.475   0.014  11.576  0.8751  0.9169  0.7246
13472TIP3    H261832   2.359   0.067  11.657 -1.1727  0.6861 -1.9508
13473TIP3   OH261833   0.858   0.778   0.345  0.0587  0.1915 -0.0020
13473TIP3    H161834   0.917   0.709   0.375 -0.8660 -0.4735  0.3246
13473TIP3    H261835   0.910   0.857   0.347  1.3582 -0.6169 -1.0743
13474TIP3   OH261836   2.698   4.990   5.790  0.4755 -0.0532 -0.5365
13474TIP3    H161837   2.694   5.085   5.783  1.5546  0.0466  0.0992
13474TIP3    H261838   2.776   4.965   5.741  2.0372 -0.2938  1.9879
13475TIP3   OH261839   0.799   4.869   1.947 -0.5957 -0.0254  0.1341
13475TIP3    H161840   0.875   4.814   1.926 -0.0718  0.4419  0.8139
13475TIP3    H261841   0.786   4.923   1.869 -0.4319 -0.3367 -0.1100
13476TIP3   OH261842   3.328   4.105  13.290  0.1062 -0.0718  0.3689
13476TIP3    H161843   3.251   4.054  13.315 -0.4754  0.5121 -0.2174
13476TIP3    H261844   3.374   4.122  13.373 -0.5331 -0.2019  0.7499
13477TIP3   OH261845   2.073   1.838  11.611  0.2548 -0.9918 -0.0771
13477TIP3    H161846   2.167   1.853  11.607 -0.1021  1.2408 -1.7888
13477TIP3    H261847   2.046   1.835  11.519 -1.6119  0.4827  0.3881
13478TIP3   OH261848   6.279   1.279   6.040  0.6290 -0.1697  0.0824
13478TIP3    H161849   6.279   1.191   6.004  0.3721 -0.1343 -0.0061
13478TIP3    H261850   6.244   1.334   5.970 -0.0519 -0.1291  0.4527
13479TIP3   OH261851   6.363   1.135   4.965 -0.0034 -0.3764 -0.0152
13479TIP3    H161852   6.445   1.130   5.015 -0.0300 -1.6159 -0.0879
13479TIP3    H261853   6.328   1.046   4.967 -1.6281  0.2671  0.4546
13480TIP3   OH261854   5.378   2.744  16.579  0.5666  0.0841  0.4402
13480TIP3    H161855   5.440   2.717  16.512 -0.8787 -2.3315 -0.0016
13480TIP3    H261856   5.371   2.668  16.637 -2.8010 -0.1742 -0.1862
13481TIP3   OH261857   3.935   2.535  13.575  0.0421 -0.0478 -0.4026
13481TIP3    H161858   4.000   2.585  13.525 -1.0914  0.0697 -1.7845
13481TIP3    H261859   3.870   2.600  13.601 -0.0757 -0.3508  0.0693
13482TIP3   OH261860   4.366   3.558  12.170  0.0997  0.2852  0.3847
13482TIP3    H161861   4.412   3.567  12.086  1.1837  0.9746  1.0484
13482TIP3    H261862   4.422   3.499  12.221 -0.5729 -0.1510  0.6188
13483TIP3   OH261863   0.814   5.827  15.550 -0.3543  0.1642  0.1899
13483TIP3    H161864   0.850   5.775  15.478 -1.0615  0.4093 -0.3414
13483TIP3    H261865   0.763   5.766  15.601 -0.7243  0.2119 -0.1192
13484TIP3   OH261866   2.203   1.611  11.857  0.2997  0.3120 -0.8671
13484TIP3    H161867   2.223   1.655  11.775  1.6678  3.2303  0.9499
13484TIP3    H261868   2.288   1.583  11.892 -0.2342 -0.6306 -0.2735
13485TIP3   OH261869   4.910   4.949  15.519 -0.4945 -0.3222  0.2887
13485TIP3    H161870   4.926   4.855  15.506  1.1095  0.0186 -0.3403
13485TIP3    H261871   4.997   4.989  15.512 -1.2563  1.2981 -0.1211
13486TIP3   OH261872   3.236   5.449   4.438 -0.8332 -0.3136 -0.0227
13486TIP3    H161873   3.220   5.534   4.477  0.8457  0.5921 -1.2289
13486TIP3    H261874   3.227   5.464   4.344  0.6237 -1.1797 -0.3218
13487TIP3   OH261875   0.570   4.505   4.465  0.9035 -0.7875  0.3499
13487TIP3    H161876   0.576   4.451   4.544  1.2728 -0.8492  0.2767
13487TIP3    H261877   0.590   4.594   4.496  1.9482 -0.9515  0.1569
13488TIP3   OH261878   5.641   1.870   2.518  0.1855 -0.0732  0.8149
13488TIP3    H161879   5.586   1.943   2.546 -2.2092 -1.6909  0.5552
13488TIP3    H261880   5.660   1.822   2.598 -0.1015 -0.3780  0.7015
13489TIP3   OH261881   5.168   1.843  13.676  0.2187  0.1958 -0.5550
13489TIP3    H161882   5.155   1.906  13.606  0.7218  0.4431 -0.4298
13489TIP3    H261883   5.093   1.854  13.734  0.1308  0.4380 -0.7176
13490TIP3   OH261884   6.032   1.286  16.749 -0.2332 -0.2687  0.2787
13490TIP3    H161885   6.091   1.267  16.822  0.8715 -1.0378 -0.7887
13490TIP3    H261886   6.032   1.382  16.742  2.4689 -0.3098 -0.9414
13491TIP3   OH261887   1.232   4.235   3.265  0.1607  0.4537  0.1787
13491TIP3    H161888   1.327   4.227   3.261  0.3565  2.3874  0.3720
13491TIP3    H261889   1.216   4.287   3.344 -0.9887  1.0074 -0.4067
13492TIP3   OH261890   3.851   5.041   3.756 -0.1856 -0.6555  0.2859
13492TIP3    H161891   3.832   5.077   3.843  0.2244  0.1268  0.0476
13492TIP3    H261892   3.855   5.117   3.698  0.5932 -1.0817 -0.2322
13493TIP3   OH261893   4.082   1.623  16.637  0.2025 -0.3586  0.0388
13493TIP3    H161894   4.112   1.555  16.576  0.3967  1.3702 -1.8409
13493TIP3    H261895   4.161   1.674  16.655 -0.1631 -0.0080  0.6344
13494TIP3   OH261896   0.765   0.034  16.414  0.0593  0.0668  0.0547
13494TIP3    H161897   0.753  -0.036  16.479  1.4657  1.0789  1.4419
13494TIP3    H261898   0.790  -0.012  16.334  1.3763 -1.0082  1.0656
13495TIP3   OH261899   1.638   2.714  16.232  0.3092 -0.5305 -0.0118
13495TIP3    H161900   1.637   2.712  16.327  1.7467  1.1245  0.0603
13495TIP3    H261901   1.707   2.652  16.208  1.5303  0.7503  0.1213
13496TIP3   OH261902   6.639   4.489   1.706  0.0973 -0.0977  0.1208
13496TIP3    H161903   6.670   4.437   1.780  0.7061  0.6302  0.3897
13496TIP3    H261904   6.658   4.580   1.731  1.5933  0.0623 -1.5116
13497TIP3   OH261905   0.320   6.606   5.837  0.0796  0.4982 -0.1003
13497TIP3    H161906   0.336   6.650   5.920 -2.6333  0.0165  0.7046
13497TIP3    H261907   0.403   6.561   5.818  1.6439  2.8137  0.9252
13498TIP3   OH261908   2.409   3.854   3.462  0.7310  0.3287 -0.2730
13498TIP3    H161909   2.340   3.920   3.454  2.2580  2.0123  0.1891
13498TIP3    H261910   2.368   3.782   3.510 -2.2731 -0.9965 -4.5168
13499TIP3   OH261911   6.004   0.992  17.208 -0.3638  0.8256  0.5288
13499TIP3    H161912   6.087   1.038  17.208 -1.0534  2.1063 -0.9559
13499TIP3    H261913   6.016   0.919  17.147  0.2879 -0.1778  1.8314
13500TIP3   OH261914   2.774   5.863  15.949 -0.8381  0.1551  0.2175
13500TIP3    H161915   2.764   5.914  15.868 -0.3484 -3.3238 -2.1291
13500TIP3    H261916   2.702   5.892  16.005 -0.4779  3.4983 -0.9291
13501TIP3   OH261917   4.500   2.764   6.155  0.3899  0.0177 -0.1442
13501TIP3    H161918   4.593   2.761   6.129  0.9736 -0.3445  1.9259
13501TIP3    H261919   4.501   2.806   6.241 -1.0242 -3.0552  1.4309
13502TIP3   OH261920   2.877   2.374   1.397 -0.2062  0.2196  0.3545
13502TIP3    H161921   2.923   2.370   1.481 -2.3702  0.1198  1.5718
13502TIP3    H261922   2.814   2.302   1.401 -1.1618  0.9709 -0.8535
13503TIP3   OH261923   1.587   2.293  14.498  0.5378  0.1198 -0.2814
13503TIP3    H161924   1.674   2.313  14.532  0.2379  1.4533 -0.2781
13503TIP3    H261925   1.527   2.319  14.568  0.1357 -0.7915 -0.2845
13504TIP3   OH261926   4.207   5.738  12.561 -0.6547  0.5044  0.0608
13504TIP3    H161927   4.261   5.767  12.487  0.6575  1.8714  1.5389
13504TIP3    H261928   4.249   5.658  12.592 -0.9855  0.1407 -0.4171
13505TIP3   OH261929   2.594   3.526   1.383  0.2930 -0.0946  0.1945
13505TIP3    H161930   2.559   3.602   1.429 -0.9892 -0.2769 -0.4558
13505TIP3    H261931   2.551   3.526   1.298  0.2616 -1.5455  0.1866
13506TIP3   OH261932   0.379   3.665  12.452 -0.0710 -0.2622  0.1334
13506TIP3    H161933   0.376   3.570  12.460  1.9135 -0.4077 -0.6551
13506TIP3    H261934   0.329   3.684  12.374  1.0696 -0.8323 -0.7556
13507TIP3   OH261935   6.376   4.515   3.420  0.0154 -0.8665  0.1918
13507TIP3    H161936   6.441   4.578   3.389 -0.7886  0.6656  1.5508
13507TIP3    H261937   6.394   4.506   3.514 -0.0923 -2.4260  0.0822
13508TIP3   OH261938   6.743   4.700   4.114  0.1259  0.3978  0.0773
13508TIP3    H161939   6.687   4.718   4.190  0.4236 -0.4418  0.5108
13508TIP3    H261940   6.758   4.605   4.118 -2.0445 -0.1214 -2.5441
13509TIP3   OH261941   6.673   4.024  16.836 -0.4195  0.2408 -0.3453
13509TIP3    H161942   6.686   4.034  16.931  0.2075 -0.3850 -0.3650
13509TIP3    H261943   6.761   4.033  16.799 -0.3671 -1.5787 -0.6985
13510TIP3   OH261944   3.514   3.110  15.483 -0.3842  0.3972  0.7483
13510TIP3    H161945   3.603   3.113  15.450 -0.9008 -1.1276 -0.8628
13510TIP3    H261946   3.522   3.127  15.577  1.6925 -0.6054  0.7699
13511TIP3   OH261947   6.145   4.698  13.094 -0.0300  0.5546  0.7039
13511TIP3    H161948   6.120   4.665  13.008  1.6616 -0.7038  0.6644
13511TIP3    H261949   6.108   4.635  13.156 -1.0040  1.3032  0.8978
13512TIP3   OH261950   1.425   3.325  13.280  0.7201  0.3338  0.1447
13512TIP3    H161951   1.475   3.368  13.350  0.3191  1.5013 -0.2758
13512TIP3    H261952   1.425   3.232  13.305  1.2893  0.6160  1.2565
13513TIP3   OH261953   0.456   5.578  14.642 -0.0954 -0.4375 -0.2638
13513TIP3    H161954   0.419   5.537  14.720 -1.5983  0.8032 -0.3168
13513TIP3    H261955   0.512   5.648  14.675 -1.1536  0.4378 -0.2924
13514TIP3   OH261956   5.406   6.717  13.637 -0.1217  0.5219 -0.3203
13514TIP3    H161957   5.475   6.772  13.673  1.7831 -3.9940  3.3214
13514TIP3    H261958   5.327   6.742  13.686  0.5562  0.5712  0.7521
13515TIP3   OH261959   3.108   4.624   5.298 -0.0262  0.3744  0.2749
13515TIP3    H161960   3.017   4.610   5.271 -0.2042  1.8147  0.0760
13515TIP3    H261961   3.102   4.662   5.385  0.3390  1.6669 -0.2547
13516TIP3   OH261962   6.061   4.354  15.532 -0.6292  0.3751  0.8885
13516TIP3    H161963   6.127   4.357  15.601  0.6047  0.2825 -0.2606
13516TIP3    H261964   5.989   4.408  15.565 -0.2770 -0.1007  2.4578
13517TIP3   OH261965   5.940   5.452  12.414 -0.3946  0.5809  0.0317
13517TIP3    H161966   6.004   5.386  12.439 -0.9054  0.3157  0.6537
13517TIP3    H261967   5.940   5.451  12.318  1.5019  1.5297  0.0070
13518TIP3   OH261968   6.360   3.455  13.282  0.0209 -0.5518 -0.1583
13518TIP3    H161969   6.453   3.443  13.295  0.1550 -1.0952 -1.5233
13518TIP3    H261970   6.354   3.516  13.208 -0.7043  0.0937  0.4182
13519TIP3   OH261971   2.211   5.594  16.134 -0.1782  0.0057 -0.1369
13519TIP3    H161972   2.216   5.627  16.223 -1.2728  1.5168 -0.6197
13519TIP3    H261973   2.299   5.562  16.115  0.3613  0.7592  1.0644
13520TIP3   OH261974   0.147   1.238  13.437 -0.3609  0.2067 -0.1744
13520TIP3    H161975   0.115   1.328  13.433 -1.4254 -0.1655 -0.1056
13520TIP3    H261976   0.075   1.185  13.404 -1.8680 -1.1160  4.7633
13521TIP3   OH261977   2.469   4.508   3.763 -0.5165 -0.1049  0.1994
13521TIP3    H161978   2.451   4.424   3.806  0.0405 -1.6117 -2.4298
13521TIP3    H261979   2.555   4.533   3.797 -0.2870 -1.0313  0.3276
13522TIP3   OH261980   0.702   0.790   5.400 -0.1106 -0.1172  0.0368
13522TIP3    H161981   0.633   0.725   5.412  0.1499 -0.5830 -0.9668
13522TIP3    H261982   0.655   0.874   5.399 -0.5867 -0.3788  0.1102
13523TIP3   OH261983   2.015   3.658   2.747  0.4046  0.4257 -0.5458
13523TIP3    H161984   2.091   3.716   2.746  0.4559  0.3459 -1.4402
13523TIP3    H261985   1.947   3.707   2.700 -0.6380  1.2087  1.6831
13524TIP3   OH261986   6.715   2.155   4.185  0.4278 -0.7117 -0.0070
13524TIP3    H161987   6.767   2.131   4.108  1.5058  0.3172  0.3928
13524TIP3    H261988   6.651   2.218   4.151  1.8711  0.9044  0.1973
13525TIP3   OH261989   5.386   3.873   5.232 -0.2092 -0.3476 -0.3925
13525TIP3    H161990   5.389   3.782   5.261 -3.8412 -0.8939 -1.5276
13525TIP3    H261991   5.315   3.876   5.168  1.2935  2.8406 -2.0495
13526TIP3   OH261992   0.536   2.061  11.729 -0.6378 -0.1879  0.2525
13526TIP3    H161993   0.583   2.046  11.647  1.2317 -2.0588  1.6609
13526TIP3    H261994   0.448   2.027  11.712 -0.2519 -0.6232 -0.9455
13527TIP3   OH261995   2.588   4.564   3.467 -0.0711  0.4053 -0.3648
13527TIP3    H161996   2.572   4.654   3.493 -2.2733  0.1035 -0.6235
13527TIP3    H261997   2.534   4.512   3.526  1.9300 -0.8259  0.4433
13528TIP3   OH261998   3.771   2.670  13.938 -0.2793 -0.8365  0.0710
13528TIP3    H161999   3.796   2.578  13.948 -0.9792 -0.9390  0.8638
13528TIP3    H262000   3.848   2.711  13.899  0.1195 -1.7121 -0.0728
13529TIP3   OH262001   6.071   0.951  11.339  0.4687 -0.5013 -0.4348
13529TIP3    H162002   6.155   0.907  11.326  0.9567 -0.5525  2.5625
13529TIP3    H262003   6.018   0.925  11.264  2.5476 -1.8374 -1.4802
13530TIP3   OH262004   2.160   2.778   2.857 -0.2195 -0.0749 -0.0032
13530TIP3    H162005   2.109   2.843   2.905  1.2516  0.0252  1.4788
13530TIP3    H262006   2.235   2.760   2.914 -0.0687 -2.2973 -0.8478
13531TIP3   OH262007   1.594   2.641  12.939 -0.1307  0.7635  0.1207
13531TIP3    H162008   1.622   2.606  12.854 -0.7954 -0.6064  0.4600
13531TIP3    H262009   1.506   2.674  12.923  0.4333  2.1780 -0.1587
13532TIP3   OH262010   5.175   2.981  13.030 -0.0481  0.0430  0.0945
13532TIP3    H162011   5.100   3.040  13.029 -0.2883 -0.2700 -1.2311
13532TIP3    H262012   5.216   2.995  13.115  0.2755  2.6078 -0.4609
13533TIP3   OH262013   2.872   0.057   3.288  0.5620 -0.3333 -0.5736
13533TIP3    H162014   2.944   0.069   3.349  0.0207 -2.0815  0.4364
13533TIP3    H262015   2.855   0.145   3.254  2.3260  0.2941  0.1179
13534TIP3   OH262016   5.697   0.151  14.285  0.0209 -0.2727  0.1949
13534TIP3    H162017   5.618   0.133  14.235  0.3534 -1.0065 -0.0697
13534TIP3    H262018   5.761   0.088  14.252  0.4378 -0.3107  1.0673
13535TIP3   OH262019   0.832   3.050   2.438 -0.1016  0.6951 -0.2917
13535TIP3    H162020   0.898   2.992   2.400  0.6303  2.2843 -1.4810
13535TIP3    H262021   0.751   2.999   2.435  0.4652 -0.1529 -1.6011
13536TIP3   OH262022   1.518   4.736  12.371  0.0277  0.5716  0.0804
13536TIP3    H162023   1.543   4.771  12.286 -0.8964 -0.0827 -0.4715
13536TIP3    H262024   1.471   4.808  12.413 -0.6537  0.4698 -0.4919
13537TIP3   OH262025   0.568   5.503  12.104 -0.4834  0.0746  0.7395
13537TIP3    H162026   0.534   5.476  12.019 -0.0958 -0.7564  0.8399
13537TIP3    H262027   0.561   5.598  12.104  0.8487  0.1892 -0.7938
13538TIP3   OH262028   2.127   6.468  11.910  0.1317 -0.2740  0.3492
13538TIP3    H162029   2.040   6.469  11.951 -0.8011  0.0053 -1.6005
13538TIP3    H262030   2.136   6.554  11.870 -0.1565 -1.4926 -2.4198
13539TIP3   OH262031   2.731   3.764   2.793  0.3603  0.0424  0.1413
13539TIP3    H162032   2.811   3.813   2.770 -1.1376  2.8864  0.7101
13539TIP3    H262033   2.672   3.780   2.719  0.9009 -3.6151 -1.1731
13540TIP3   OH262034   6.772   0.005   4.722 -0.0026 -0.0916 -0.7755
13540TIP3    H162035   6.690  -0.011   4.677 -1.6952  2.3066  1.2804
13540TIP3    H262036   6.802   0.089   4.689 -0.4664  0.9405  1.3001
13541TIP3   OH262037   0.386   3.890  11.721 -0.0183 -0.6130  0.0651
13541TIP3    H162038   0.425   3.964  11.675  0.0181 -1.3751 -1.1757
13541TIP3    H262039   0.460   3.835  11.747 -0.0100  0.0239  1.4376
13542TIP3   OH262040   2.762   2.742  11.173  0.3715  0.4613 -0.5058
13542TIP3    H162041   2.727   2.659  11.139 -0.6237  0.9719 -0.7238
13542TIP3    H262042   2.685   2.794  11.195  0.9841  0.4892  1.7170
13543TIP3   OH262043   4.356   6.265  10.979 -0.5286 -0.6989 -0.3275
13543TIP3    H162044   4.378   6.357  10.962 -3.0578  0.1188  0.6140
13543TIP3    H262045   4.292   6.242  10.912 -2.6412 -0.6388  1.6112
13544TIP3   OH262046   0.774   5.479   6.053  0.1995  0.5948 -0.2452
13544TIP3    H162047   0.787   5.437   5.968 -1.8538  1.0726 -0.8366
13544TIP3    H262048   0.679   5.476   6.066 -0.0293  4.8480 -0.2199
13545TIP3   OH262049   6.707   0.306   2.277  0.9364  0.2018  0.0264
13545TIP3    H162050   6.732   0.324   2.186  2.9123  1.0875  0.7121
13545TIP3    H262051   6.695   0.392   2.317 -2.2040 -0.2093  0.0373
13546TIP3   OH262052   1.021   3.300  12.659 -0.0142  0.3151  0.4126
13546TIP3    H162053   1.006   3.395  12.661  0.3231  0.3585  2.7877
13546TIP3    H262054   1.099   3.288  12.712  0.2020 -1.2695 -0.2513
13547TIP3   OH262055   3.955   3.357  12.144 -0.1688 -0.2381  0.0368
13547TIP3    H162056   3.897   3.420  12.102 -0.4384 -0.6141 -0.1581
13547TIP3    H262057   4.040   3.402  12.149  0.2389 -0.7218 -2.1898
13548TIP3   OH262058   0.162   1.666  12.851  0.1941  0.3556 -0.3687
13548TIP3    H162059   0.214   1.668  12.770  0.1935  3.0640 -0.3686
13548TIP3    H262060   0.225   1.678  12.921 -0.2737  2.9475 -0.3238
13549TIP3   OH262061   2.654   2.525  15.006  0.1540  0.4106 -0.5753
13549TIP3    H162062   2.589   2.473  14.959 -0.1867  1.8817 -1.7443
13549TIP3    H262063   2.603   2.577  15.068  0.4593 -0.2794  0.2749
13550TIP3   OH262064   2.761   2.938  16.065  0.3479 -0.6873  0.7015
13550TIP3    H162065   2.740   2.899  16.150  0.0039  2.8891  2.3614
13550TIP3    H262066   2.828   3.003  16.085  0.9456 -0.4407 -1.9542
13551TIP3   OH262067   3.786   2.679  14.628 -0.3512  0.6218 -0.1923
13551TIP3    H162068   3.781   2.725  14.545  1.0507 -0.1036 -0.6938
13551TIP3    H262069   3.823   2.743  14.689  0.6622  0.4659 -0.6459
13552TIP3   OH262070   2.628   5.637   1.922 -0.4371  0.1739 -0.0429
13552TIP3    H162071   2.720   5.613   1.926 -0.2081  1.2236  1.2064
13552TIP3    H262072   2.611   5.652   1.829  0.5210 -0.4939 -0.3302
13553TIP3   OH262073   5.897   0.084   4.674 -0.0453  0.0474 -0.2964
13553TIP3    H162074   5.826   0.060   4.734 -0.1944  0.1339 -0.4367
13553TIP3    H262075   5.950   0.147   4.724 -0.5784  0.6754 -0.5055
13554TIP3   OH262076   3.044   4.176   2.683 -0.2716  0.3326  0.1124
13554TIP3    H162077   3.139   4.178   2.672 -0.4858 -0.8719 -2.5165
13554TIP3    H262078   3.018   4.268   2.685  0.9712  0.6767  1.1953
13555TIP3   OH262079   3.824   6.573   1.214  0.2042  0.0877  0.4855
13555TIP3    H162080   3.894   6.533   1.265  0.3781 -0.5662 -0.2650
13555TIP3    H262081   3.853   6.662   1.199 -0.0355  0.4204  1.8886
13556TIP3   OH262082   1.120   5.567   3.813 -0.4289  0.4566 -0.2566
13556TIP3    H162083   1.154   5.480   3.791  1.5685  0.8990  0.9357
13556TIP3    H262084   1.105   5.609   3.728 -0.5273 -0.7037 -0.8260
13557TIP3   OH262085   6.074   6.156  15.262  0.0392  0.0267  0.3121
13557TIP3    H162086   6.136   6.228  15.274  0.8859 -0.8670  1.4533
13557TIP3    H262087   6.126   6.086  15.222 -0.6275 -0.1799 -0.2038
13558TIP3   OH262088   4.350   5.833   1.793  0.5275 -0.4658 -0.4770
13558TIP3    H162089   4.381   5.742   1.786 -0.3407 -0.9445  1.6870
13558TIP3    H262090   4.397   5.869   1.868 -0.4860  0.3225 -0.2097
13559TIP3   OH262091   6.126   3.675  14.511 -0.5490 -0.3095 -0.5588
13559TIP3    H162092   6.149   3.587  14.482 -1.2794 -0.9727  0.8127
13559TIP3    H262093   6.066   3.661  14.584  1.5575  1.2672  1.5666
13560TIP3   OH262094   3.756   0.745  15.818  0.3911 -0.3712 -0.4011
13560TIP3    H162095   3.794   0.752  15.731 -0.4166 -2.0335 -0.9105
13560TIP3    H262096   3.686   0.811  15.819  0.2393 -0.5192 -1.0915
13561TIP3   OH262097   1.673   0.697   0.211 -0.7076 -0.1564 -0.6482
13561TIP3    H162098   1.711   0.778   0.244 -0.9597 -0.5384  0.6483
13561TIP3    H262099   1.747   0.648   0.175 -0.1301 -0.3911  0.7915
13562TIP3   OH262100   1.715   4.966   1.418 -0.2304  0.7459 -0.1055
13562TIP3    H162101   1.783   4.907   1.386  0.1318  0.7013  0.7216
13562TIP3    H262102   1.636   4.940   1.371  0.3394  0.8657 -1.1506
13563TIP3   OH262103   0.374   6.753   3.276  0.5833 -0.1154  0.0913
13563TIP3    H162104   0.417   6.812   3.214 -0.2771 -0.4774 -0.8569
13563TIP3    H262105   0.365   6.671   3.228  1.2008 -0.8340  1.1946
13564TIP3   OH262106   1.369   3.881   5.353  0.7709  0.0717  0.6523
13564TIP3    H162107   1.320   3.961   5.332 -0.5798 -0.4577  1.6849
13564TIP3    H262108   1.370   3.831   5.271  1.7532  1.1994 -0.0398
13565TIP3   OH262109   2.707   4.767  14.063  0.3538  0.4605  0.6798
13565TIP3    H162110   2.663   4.721  13.991  0.1278  0.7220  0.6525
13565TIP3    H262111   2.774   4.705  14.093  0.9408  0.6416 -0.2451
13566TIP3   OH262112   5.588   3.052  13.056  0.8528 -0.2964 -0.1854
13566TIP3    H162113   5.616   2.966  13.024  0.9574  0.3695 -1.9749
13566TIP3    H262114   5.517   3.033  13.117  0.1577 -1.6259 -1.3771
13567TIP3   OH262115   3.782   1.197  12.550 -0.2079  0.0851  0.0268
13567TIP3    H162116   3.704   1.176  12.499 -0.2418  1.7999 -0.6679
13567TIP3    H262117   3.756   1.272  12.604  0.9870  0.7330 -0.2889
13568TIP3   OH262118   3.628   1.336  17.157 -0.1750  0.3675 -0.1965
13568TIP3    H162119   3.582   1.398  17.214  1.6083  0.3914  1.2604
13568TIP3    H262120   3.573   1.258  17.156 -0.3748  0.4927  1.2820
13569TIP3   OH262121   3.245   2.484   1.793 -0.4943  0.1170  0.3890
13569TIP3    H162122   3.319   2.529   1.753 -1.8767  0.9921 -1.2722
13569TIP3    H262123   3.279   2.449   1.875  2.7631 -2.8795 -2.1188
13570TIP3   OH262124   5.421   0.223   5.105  0.2057 -0.6104 -0.1324
13570TIP3    H162125   5.452   0.134   5.123  1.7962  0.0116  0.2877
13570TIP3    H262126   5.327   0.220   5.122  0.4758 -1.8644  1.1875
13571TIP3   OH262127   5.823   2.042   6.054 -0.0661  0.3180 -0.6767
13571TIP3    H162128   5.812   1.947   6.056  2.6593 -0.0432 -0.5136
13571TIP3    H262129   5.868   2.063   6.136 -0.5501  1.7489 -0.7556
13572TIP3   OH262130   0.689   4.558   3.983 -0.0245 -0.0949  0.3353
13572TIP3    H162131   0.654   4.586   4.068 -1.1853  2.1184 -0.8264
13572TIP3    H262132   0.637   4.482   3.959  0.3580 -0.7860  1.6090
13573TIP3   OH262133   1.837   4.184  14.536  0.4831 -0.0427  0.1661
13573TIP3    H162134   1.863   4.229  14.616  0.7434  1.2285 -0.6172
13573TIP3    H262135   1.912   4.195  14.477 -0.8129  1.5317 -1.2477
13574TIP3   OH262136   5.610   5.189   4.659  0.1002  0.2369 -0.2502
13574TIP3    H162137   5.539   5.252   4.651 -1.3656 -1.5201 -1.3860
13574TIP3    H262138   5.646   5.205   4.746 -1.6841  1.1396  0.3434
13575TIP3   OH262139   5.887   4.507   1.006  0.3638  0.1774 -0.6489
13575TIP3    H162140   5.827   4.437   0.981  2.0436 -1.2401 -0.7782
13575TIP3    H262141   5.829   4.577   1.037 -1.4464 -0.4608 -2.4135
13576TIP3   OH262142   0.738   4.894  14.360  0.6426 -0.8187 -0.1387
13576TIP3    H162143   0.748   4.892  14.455 -0.0911  0.9898  0.0036
13576TIP3    H262144   0.721   4.986  14.340  1.3222 -1.1005 -2.0824
13577TIP3   OH262145   0.585   0.061   2.571  0.0864 -0.4607  0.1534
13577TIP3    H162146   0.655   0.030   2.514  0.0825 -2.4661  1.2026
13577TIP3    H262147   0.584   0.156   2.557  0.6566 -0.8036 -2.4886
13578TIP3   OH262148   4.982   2.170  15.358  0.1406  0.2456 -0.3865
13578TIP3    H162149   4.928   2.205  15.287 -0.7421  0.6199  0.4511
13578TIP3    H262150   5.072   2.182  15.328 -0.2197  0.3166 -1.4754
13579TIP3   OH262151   1.783   6.188  16.026  0.4695  0.0314  0.5466
13579TIP3    H162152   1.863   6.186  15.974 -0.1603 -0.0147 -0.4496
13579TIP3    H262153   1.812   6.180  16.116  1.5457 -0.5733  0.1568
13580TIP3   OH262154   2.774   1.428  15.636 -0.1822  0.5075 -0.8503
13580TIP3    H162155   2.772   1.332  15.642  0.2314  0.2719 -4.0455
13580TIP3    H262156   2.683   1.452  15.617  0.3023  0.4767 -3.3121
13581TIP3   OH262157   5.236   1.614  12.950  0.2933 -0.6273  0.5297
13581TIP3    H162158   5.298   1.675  12.911  0.9543 -1.9478 -0.5411
13581TIP3    H262159   5.223   1.547  12.883 -1.3657 -1.0088  1.2118
13582TIP3   OH262160   5.873   2.864   2.516  0.1523  0.2359  0.2045
13582TIP3    H162161   5.891   2.926   2.587 -2.2828 -0.7878  1.8034
13582TIP3    H262162   5.826   2.915   2.450  0.9805  0.8122  0.0558
13583TIP3   OH262163   2.985   3.903   1.599  0.1469 -0.8247 -0.0054
13583TIP3    H162164   3.078   3.879   1.595  0.4285  0.3048 -0.2808
13583TIP3    H262165   2.973   3.932   1.690  0.3254  0.1025 -0.2813
13584TIP3   OH262166   4.589   1.259   3.748 -0.3419 -0.1145  0.0714
13584TIP3    H162167   4.558   1.325   3.810 -2.6217 -1.2147  0.1553
13584TIP3    H262168   4.644   1.201   3.801 -0.7620  0.0133  0.6581
13585TIP3   OH262169   5.702   6.128   1.653  0.7178  0.4020  0.3173
13585TIP3    H162170   5.685   6.200   1.592  1.3819  0.4003  0.1233
13585TIP3    H262171   5.669   6.159   1.737 -0.6490  0.2091 -0.1439
13586TIP3   OH262172   1.137   0.163   2.353  0.1733  0.2686 -0.4661
13586TIP3    H162173   1.184   0.123   2.426 -1.4484 -0.4854  0.1956
13586TIP3    H262174   1.115   0.089   2.296 -1.2498  0.4337 -0.1507
13587TIP3   OH262175   4.948   2.836   5.661 -0.3237  0.1067  0.0070
13587TIP3    H162176   4.929   2.787   5.581 -2.4160  0.6372  0.1326
13587TIP3    H262177   4.965   2.769   5.727 -1.4306 -0.4169 -0.2280
13588TIP3   OH262178   6.115   4.486   3.363  0.1300  0.1966 -0.0992
13588TIP3    H162179   6.203   4.515   3.388  0.2524 -0.7334  0.5981
13588TIP3    H262180   6.124   4.391   3.353 -0.6210  0.1941 -0.7905
13589TIP3   OH262181   3.085   3.016  13.936 -0.0591 -0.3034  0.7586
13589TIP3    H162182   3.149   2.946  13.927 -0.3109 -0.6514  1.6819
13589TIP3    H262183   3.057   3.012  14.027  1.1443  2.0655  1.2594
13590TIP3   OH262184   2.466   2.922  12.206 -0.2139 -0.7114  0.1363
13590TIP3    H162185   2.472   2.906  12.112  0.2264 -2.5066  0.4598
13590TIP3    H262186   2.558   2.927  12.235 -0.3336  1.3511  0.2393
13591TIP3   OH262187   4.590   3.116  16.805  1.0600  0.3512  0.2981
13591TIP3    H162188   4.685   3.107  16.804  1.0647  0.3263  1.1002
13591TIP3    H262189   4.570   3.169  16.728  1.7450  0.5745  0.2802
13592TIP3   OH262190   6.595   1.409  14.867 -0.0419 -0.2934 -0.4228
13592TIP3    H162191   6.558   1.355  14.938  2.0295 -0.0452  0.8918
13592TIP3    H262192   6.647   1.475  14.912  4.4584 -2.4284 -2.2070
13593TIP3   OH262193   5.943   0.148  10.387 -0.2548  0.3945  0.3153
13593TIP3    H162194   5.863   0.173  10.339 -0.0775  0.0910 -0.1495
13593TIP3    H262195   5.983   0.231  10.411 -0.6705  0.5508  0.4811
13594TIP3   OH262196   1.763   1.146  10.808 -0.2451 -0.3449 -0.5255
13594TIP3    H162197   1.676   1.154  10.767 -0.5123 -0.6743 -0.0180
13594TIP3    H262198   1.824   1.144  10.734 -0.7710 -1.5063 -0.9331
13595TIP3   OH262199   5.882   3.649   1.117  0.7492  0.0688  0.2637
13595TIP3    H162200   5.954   3.586   1.115  0.1175 -0.6798  0.7417
13595TIP3    H262201   5.896   3.698   1.198  2.2488  1.7622 -0.9790
13596TIP3   OH262202   3.023   0.822  16.310  0.2927 -0.7053 -0.0029
13596TIP3    H162203   2.960   0.891  16.330 -0.1739 -0.9092 -0.7521
13596TIP3    H262204   2.969   0.746  16.288  0.7930 -0.7419 -1.1287
13597TIP3   OH262205   2.256   0.148  15.604 -0.6991  0.0457  0.2002
13597TIP3    H162206   2.253   0.209  15.530  0.6145 -2.5016 -2.0741
13597TIP3    H262207   2.349   0.133  15.620 -0.9786 -1.7097  0.3461
13598TIP3   OH262208   3.093   0.714  15.763  0.8354  0.2533  0.1790
13598TIP3    H162209   3.165   0.672  15.810  0.8204  0.4622  0.3898
13598TIP3    H262210   3.109   0.808  15.773  1.8755  0.3168 -1.8337
13599TIP3   OH262211   4.478   3.663   2.359  0.0109 -0.0240  0.5011
13599TIP3    H162212   4.509   3.602   2.292  0.5934  0.2260  0.5408
13599TIP3    H262213   4.539   3.737   2.355 -0.1903  0.1763  1.0325
13600TIP3   OH262214   1.769   5.815   1.612 -0.3555 -0.0783  0.1720
13600TIP3    H162215   1.793   5.852   1.527 -0.7629 -1.5882 -0.6236
13600TIP3    H262216   1.696   5.870   1.643 -1.5942 -0.7758 -1.4329
13601TIP3   OH262217   5.358   5.684  16.759  0.2308 -0.4032  0.5188
13601TIP3    H162218   5.310   5.641  16.830 -1.3226  0.4028 -0.0166
13601TIP3    H262219   5.373   5.616  16.694 -1.6378 -0.3204 -0.0283
13602TIP3   OH262220   2.852   6.572  15.965 -0.2325 -0.2439  0.2631
13602TIP3    H162221   2.808   6.505  15.912 -0.8007  0.5523 -0.2764
13602TIP3    H262222   2.878   6.639  15.902 -1.2480  0.8876  1.0370
13603TIP3   OH262223   3.147   3.878  11.065  0.1562  0.2193  0.0137
13603TIP3    H162224   3.230   3.831  11.077 -1.4127 -2.9798 -1.2267
13603TIP3    H262225   3.146   3.901  10.972 -0.8954 -0.7973 -0.2252
13604TIP3   OH262226   5.316   0.628  15.590 -0.0554 -0.1236 -0.0039
13604TIP3    H162227   5.404   0.593  15.576  1.0048  2.0905  0.8723
13604TIP3    H262228   5.269   0.558  15.636  1.3428 -1.2128 -0.2257
13605TIP3   OH262229   4.926   5.902   3.597  0.2310 -0.0339  0.3752
13605TIP3    H162230   5.013   5.936   3.618 -0.0829 -0.2783  2.1824
13605TIP3    H262231   4.890   5.875   3.682 -1.8569  0.6634 -0.2632
13606TIP3   OH262232   2.455   1.849  12.113 -0.2515  0.0155 -0.0432
13606TIP3    H162233   2.465   1.931  12.065  0.5154  0.1300  0.3115
13606TIP3    H262234   2.361   1.830  12.109 -0.0444 -0.5626 -2.5533
13607TIP3   OH262235   1.482   5.340   0.347 -0.4348 -0.2374 -0.0133
13607TIP3    H162236   1.428   5.298   0.414  0.7422  1.0537  1.8044
13607TIP3    H262237   1.568   5.298   0.355 -0.3031 -0.1216 -0.7544
13608TIP3   OH262238   2.727   0.790   5.322  0.4041 -0.2987  0.5841
13608TIP3    H162239   2.788   0.727   5.283 -0.3317 -1.5739  1.4634
13608TIP3    H262240   2.775   0.828   5.395  0.9528  0.3748 -0.1227
13609TIP3   OH262241   5.347   4.271  11.875 -0.0348 -0.4155  0.3626
13609TIP3    H162242   5.295   4.254  11.954  0.7337  2.8821  1.6680
13609TIP3    H262243   5.283   4.299  11.810 -0.1274  1.8753  1.4123
13610TIP3   OH262244   6.343   2.322  15.390  0.7294  0.1305 -0.5185
13610TIP3    H162245   6.356   2.371  15.309  0.6982 -0.8381 -1.1114
13610TIP3    H262246   6.425   2.334  15.439  0.0990  2.1813  0.1147
13611TIP3   OH262247   6.548   1.450   4.025  1.1698 -0.1458 -0.0341
13611TIP3    H162248   6.521   1.538   3.997  0.5539 -0.4339 -0.3508
13611TIP3    H262249   6.510   1.391   3.960  2.6694 -0.5556 -0.5496
13612TIP3   OH262250   6.739   5.801  14.557 -0.3600  0.4658  0.0410
13612TIP3    H162251   6.704   5.850  14.482 -3.6126 -1.6805  0.0378
13612TIP3    H262252   6.714   5.710  14.539  3.3598 -0.8573  1.2552
13613TIP3   OH262253   2.786   1.891  11.225 -0.4790 -0.2186  0.0859
13613TIP3    H162254   2.772   1.982  11.198  1.4469  0.0738 -0.0179
13613TIP3    H262255   2.867   1.894  11.277 -0.6335 -1.8078  0.4474
13614TIP3   OH262256   6.143   2.810   3.965  0.1251 -0.1089 -0.2649
13614TIP3    H162257   6.175   2.867   3.895  0.6297  0.6901  0.6017
13614TIP3    H262258   6.048   2.822   3.963  0.4696  4.7975  3.1824
13615TIP3   OH262259   4.536   2.806   1.077 -0.2683  0.2728 -0.3128
13615TIP3    H162260   4.531   2.886   1.025 -1.0281  1.1802  1.1219
13615TIP3    H262261   4.446   2.775   1.082 -0.2952  0.5196  0.9307
13616TIP3   OH262262   2.200   0.472   4.038 -0.0920 -0.2281  0.5082
13616TIP3    H162263   2.237   0.558   4.053 -1.1115  0.2081  0.5703
13616TIP3    H262264   2.114   0.475   4.080  0.3200 -1.6527  1.4945
13617TIP3   OH262265   4.434   3.871  11.887  0.1822  0.0575  0.0163
13617TIP3    H162266   4.344   3.874  11.920  0.2658 -1.2580  0.3908
13617TIP3    H262267   4.444   3.953  11.839 -0.8255  0.7639  0.9750
13618TIP3   OH262268   2.729   5.016  13.933  0.0381 -0.5974 -0.0516
13618TIP3    H162269   2.664   5.003  13.863 -0.7393  0.1742  0.5151
13618TIP3    H262270   2.758   4.927  13.956 -0.5957 -0.9288 -0.5192
13619TIP3   OH262271   4.302   1.144   4.603 -0.1773 -0.1389  0.1761
13619TIP3    H162272   4.378   1.146   4.545  1.2565 -0.1391  2.0004
13619TIP3    H262273   4.295   1.053   4.632 -1.6245 -0.3976 -0.8990
13620TIP3   OH262274   4.744   2.769   1.769 -0.9279 -0.5711 -0.4032
13620TIP3    H162275   4.837   2.752   1.785 -0.6358 -0.5813 -2.0390
13620TIP3    H262276   4.714   2.813   1.849 -0.4632 -3.9471  1.7172
13621TIP3   OH262277   5.918   6.190  13.673  0.1913 -0.0258 -0.3025
13621TIP3    H162278   5.986   6.130  13.705  0.4779  0.1095 -0.6530
13621TIP3    H262279   5.842   6.134  13.659  0.7636 -0.5014 -1.6087
13622TIP3   OH262280   5.004   1.152   4.601  0.4167  0.1662 -0.2668
13622TIP3    H162281   5.063   1.191   4.536  0.4263  0.0615 -0.3217
13622TIP3    H262282   5.057   1.085   4.643 -0.1523 -1.0546 -1.4441
13623TIP3   OH262283   6.336   0.018   1.599 -0.3733  0.1848 -0.0324
13623TIP3    H162284   6.291  -0.001   1.682  1.2917 -1.1652  0.5869
13623TIP3    H262285   6.294  -0.041   1.536  0.3491 -0.8833  0.4840
13624TIP3   OH262286   4.384   0.413  14.570  0.0626  0.7412 -0.5424
13624TIP3    H162287   4.377   0.401  14.665  2.1685  0.7110 -0.3835
13624TIP3    H262288   4.309   0.469  14.548 -1.2343 -0.3866  0.9183
13625TIP3   OH262289   4.772   1.828   3.616 -0.3843  0.5480  0.1120
13625TIP3    H162290   4.789   1.781   3.534 -0.1447 -0.9532  1.0027
13625TIP3    H262291   4.857   1.828   3.661 -0.2930  2.1762 -0.0387
13626TIP3   OH262292   6.491   3.119   5.679  0.5395  0.0495  0.3462
13626TIP3    H162293   6.545   3.173   5.622  0.8003 -0.6271 -0.0483
13626TIP3    H262294   6.412   3.172   5.695  0.2499  0.0361 -1.0329
13627TIP3   OH262295   1.201   1.216  13.433 -0.2077  0.0180  0.2992
13627TIP3    H162296   1.265   1.263  13.487 -0.7636  2.7523 -1.3173
13627TIP3    H262297   1.246   1.135  13.408  2.2777  1.4212  0.0083
13628TIP3   OH262298   0.330   4.983  11.790 -0.2827 -0.1846  0.5356
13628TIP3    H162299   0.295   4.961  11.704 -0.2000 -0.3460  0.5416
13628TIP3    H262300   0.425   4.985  11.777 -0.2987  0.3608  0.4945
13629TIP3   OH262301   4.325   2.762  14.720  0.1219 -0.4216  0.4617
13629TIP3    H162302   4.281   2.819  14.783  1.0324 -0.3038  0.9974
13629TIP3    H262303   4.268   2.763  14.643 -0.4955  0.2214  0.9197
13630TIP3   OH262304   2.789   4.747  13.124  0.4939 -0.0325  0.7305
13630TIP3    H162305   2.697   4.762  13.102  0.3359  0.0265  1.4200
13630TIP3    H262306   2.823   4.833  13.146  0.3335 -0.2673  1.8968
13631TIP3   OH262307   5.161   1.133  11.731 -0.2727  0.4925  0.2889
13631TIP3    H162308   5.131   1.046  11.757  1.6562 -0.7619 -1.5259
13631TIP3    H262309   5.150   1.136  11.636  1.2600  1.5780  0.1210
13632TIP3   OH262310   2.185   1.382   1.019 -0.1546 -0.0264  0.4277
13632TIP3    H162311   2.109   1.354   1.070 -0.8328 -1.4832 -1.3018
13632TIP3    H262312   2.165   1.354   0.929  1.8804  0.6769 -0.2845
13633TIP3   OH262313   2.916   1.844  12.680 -0.2452 -0.3456  0.9636
13633TIP3    H162314   2.867   1.876  12.756 -1.3128  0.7104 -0.1625
13633TIP3    H262315   2.849   1.819  12.617  0.6572  0.2233 -0.2287
13634TIP3   OH262316   2.180   4.080  14.130 -0.1851  0.6222  0.2862
13634TIP3    H162317   2.213   4.102  14.043 -0.1642 -0.5158 -0.0033
13634TIP3    H262318   2.137   3.995  14.118 -1.5862  1.2005  1.0444
13635TIP3   OH262319   6.635   2.697  15.258  0.6436 -0.9551  0.1597
13635TIP3    H162320   6.708   2.698  15.319  0.9667  1.1976 -0.1890
13635TIP3    H262321   6.557   2.703  15.313  0.7918 -1.9598  0.4774
13636TIP3   OH262322   0.730   3.534   5.102  0.0002 -0.4003 -0.0994
13636TIP3    H162323   0.650   3.487   5.126  0.2533 -0.4573  0.6388
13636TIP3    H262324   0.800   3.470   5.114  0.1528 -0.3876 -0.8600
13637TIP3   OH262325   6.729   4.341  14.780  0.5958 -0.6078  0.2064
13637TIP3    H162326   6.738   4.257  14.736 -2.1711 -2.0608  2.1914
13637TIP3    H262327   6.745   4.321  14.873  0.1782  1.1007  0.6672
13638TIP3   OH262328   3.042   0.998   3.333 -0.2530 -0.0477 -0.2486
13638TIP3    H162329   3.007   0.944   3.405 -0.1681 -0.1647 -0.2947
13638TIP3    H262330   3.136   0.978   3.333  0.0660  1.3725  0.8250
13639TIP3   OH262331   6.782   5.907   3.084 -0.2748 -0.0633 -0.3013
13639TIP3    H162332   6.792   5.859   3.166 -0.5286  0.2022 -0.1137
13639TIP3    H262333   6.690   5.931   3.081 -0.7227 -1.8154 -1.6367
13640TIP3   OH262334   5.322   6.025  10.836 -1.0121 -0.2946 -0.0871
13640TIP3    H162335   5.405   5.996  10.800 -1.0746 -2.3489  1.3297
13640TIP3    H262336   5.260   6.015  10.764 -0.6870 -2.1343 -0.1487
13641TIP3   OH262337   3.427   5.180   5.841  0.9346  0.5254 -0.2185
13641TIP3    H162338   3.434   5.108   5.904  0.0706  0.7587  0.1528
13641TIP3    H262339   3.397   5.254   5.893  0.6797  0.8476 -0.8183
13642TIP3   OH262340   0.660   2.222  14.318 -0.2924  0.2259  0.1191
13642TIP3    H162341   0.690   2.132  14.331  2.2515  0.9782 -0.3187
13642TIP3    H262342   0.646   2.229  14.223 -1.3074  0.0515  0.2511
13643TIP3   OH262343   1.608   0.252   4.931  0.3886  0.1498  0.3975
13643TIP3    H162344   1.634   0.337   4.966  0.9556  0.3652 -0.5306
13643TIP3    H262345   1.515   0.261   4.913  0.2831  0.3207  1.0008
13644TIP3   OH262346   3.120   3.872   5.588  0.5248 -0.6381 -0.2574
13644TIP3    H162347   3.151   3.859   5.677  2.2288  1.5498 -0.4718
13644TIP3    H262348   3.056   3.943   5.595  2.8224  1.6060 -1.1016
13645TIP3   OH262349   3.316   2.574  15.676  0.2550 -0.0494  0.3540
13645TIP3    H162350   3.305   2.660  15.716 -2.7934 -0.4113  0.4215
13645TIP3    H262351   3.318   2.590  15.582  0.5419  0.1672  0.3969
13646TIP3   OH262352   2.390   0.888  12.005  0.0265 -0.0962  0.2053
13646TIP3    H162353   2.348   0.892  11.919 -1.3278 -1.7728  0.7530
13646TIP3    H262354   2.325   0.925  12.065  0.9693  1.0702  0.5124
13647TIP3   OH262355   1.926   0.459   4.848  0.5282  0.3405  0.3792
13647TIP3    H162356   1.976   0.496   4.775  0.5755  1.2072  0.8476
13647TIP3    H262357   1.858   0.407   4.806  2.4487 -1.7180 -0.2653
13648TIP3   OH262358   3.212   0.336  15.761 -0.4039  0.2005 -0.4846
13648TIP3    H162359   3.256   0.396  15.821  0.8109  0.6062 -1.7559
13648TIP3    H262360   3.280   0.311  15.698 -1.7922  0.2521 -2.0327
13649TIP3   OH262361   3.870   0.516  15.005 -0.0337 -0.8284  0.0401
13649TIP3    H162362   3.880   0.610  14.989 -0.3275 -0.7064  0.5467
13649TIP3    H262363   3.947   0.476  14.965 -0.9489 -0.5857 -2.0313
13650TIP3   OH262364   1.976   5.714   4.193 -0.1794  0.0653  0.4141
13650TIP3    H162365   1.957   5.786   4.132  0.2007  0.9914  1.3701
13650TIP3    H262366   2.069   5.696   4.180 -0.1592  0.0822  0.5376
13651TIP3   OH262367   5.148   0.191  17.097 -0.5144  0.1321  0.6075
13651TIP3    H162368   5.139   0.244  17.176  1.6620  2.1988 -0.4728
13651TIP3    H262369   5.110   0.245  17.028  2.0571  0.5555 -0.5656
13652TIP3   OH262370   1.335   1.754  15.057 -0.4214  0.5245  0.1873
13652TIP3    H162371   1.428   1.762  15.079 -0.5710  1.1737  0.6218
13652TIP3    H262372   1.321   1.661  15.042 -0.1565  0.1380  2.1735
13653TIP3   OH262373   4.858   5.883   3.018 -0.0534 -0.4935  0.3497
13653TIP3    H162374   4.799   5.822   3.063  0.7339  0.3145  2.5572
13653TIP3    H262375   4.888   5.835   2.941 -0.3425 -2.4653  1.4216
13654TIP3   OH262376   3.869   3.147  12.281  0.3219 -0.3450 -0.2761
13654TIP3    H162377   3.876   3.216  12.216 -3.0563  0.3969  0.0537
13654TIP3    H262378   3.847   3.068  12.231 -0.1196 -0.2347 -0.2600
13655TIP3   OH262379   6.358   6.746  15.358  0.1316 -0.1839  0.1952
13655TIP3    H162380   6.366   6.841  15.358 -0.9215 -0.0895  0.6297
13655TIP3    H262381   6.274   6.729  15.314  0.8183 -0.9567 -0.8386
13656TIP3   OH262382   2.905   5.987   5.842 -0.1463  0.0968 -0.4081
13656TIP3    H162383   2.964   6.021   5.910 -0.1405  0.0168 -0.3735
13656TIP3    H262384   2.915   6.049   5.770  0.0395  0.0416 -0.4316
13657TIP3   OH262385   5.337   3.108   4.572  0.9644  0.0887 -0.1185
13657TIP3    H162386   5.282   3.136   4.645 -0.6711  2.3220 -2.1169
13657TIP3    H262387   5.413   3.166   4.575  1.3414 -0.4321  0.3624
13658TIP3   OH262388   6.690   1.139  14.843  0.1115 -0.4582  0.0177
13658TIP3    H162389   6.782   1.119  14.825 -0.0967 -0.5814 -0.9676
13658TIP3    H262390   6.675   1.224  14.801  0.3228  0.5756  1.9905
13659TIP3   OH262391   2.015   3.877   0.045 -0.4132 -0.4547 -0.4613
13659TIP3    H162392   1.932   3.851   0.087  0.8657 -1.3917  1.5745
13659TIP3    H262393   2.049   3.945   0.102  0.2326 -0.0770 -1.2977
13660TIP3   OH262394   5.945   2.793   6.159 -0.0668  0.0355 -0.1582
13660TIP3    H162395   5.963   2.753   6.074  1.0263 -0.2396  0.1968
13660TIP3    H262396   5.903   2.877   6.138  0.3497  0.0426 -0.9640
13661TIP3   OH262397   2.086   3.178  14.352 -0.2347  0.2045 -0.7468
13661TIP3    H162398   2.102   3.109  14.416  2.4827  3.2322  2.0251
13661TIP3    H262399   2.005   3.220  14.381 -1.4481 -1.2399 -1.9670
13662TIP3   OH262400   3.087   2.127  13.079 -0.2984 -0.2406  0.4686
13662TIP3    H162401   3.129   2.135  13.165 -2.0569 -0.1689  1.3326
13662TIP3    H262402   3.139   2.183  13.022 -0.7202  1.8444  2.0870
13663TIP3   OH262403   2.798   0.821   4.792 -0.2728  0.0296 -0.2163
13663TIP3    H162404   2.777   0.868   4.872 -0.4650 -0.2703 -0.0907
13663TIP3    H262405   2.725   0.759   4.780 -0.4727  0.3846 -0.8598
13664TIP3   OH262406   1.611   5.064   6.567 -0.3193  0.2377  0.3536
13664TIP3    H162407   1.653   5.066   6.653  0.1596  0.0588  0.1199
13664TIP3    H262408   1.681   5.081   6.505 -0.5388 -0.3666 -0.0572
13665TIP3   OH262409   0.393   3.515   3.349  0.6342 -0.3375  1.0128
13665TIP3    H162410   0.385   3.459   3.272  1.7431  0.2115  0.4887
13665TIP3    H262411   0.381   3.455   3.423 -1.3583 -0.7075  0.4170
13666TIP3   OH262412   0.409   4.658  11.434 -0.1054 -0.1592  0.4063
13666TIP3    H162413   0.389   4.597  11.505  1.6619  0.0420  1.0881
13666TIP3    H262414   0.367   4.620  11.357  0.4143 -1.8673  0.9577
13667TIP3   OH262415   6.311   1.618  12.306  0.5684 -0.8899  0.0918
13667TIP3    H162416   6.389   1.610  12.361  0.4992  1.0220  0.5130
13667TIP3    H262417   6.276   1.705  12.327 -0.7295 -1.0521 -1.3227
13668TIP3   OH262418   4.445   5.758   5.853  0.0868 -0.0116 -0.0806
13668TIP3    H162419   4.359   5.754   5.895  0.5584 -2.2688  0.6943
13668TIP3    H262420   4.426   5.757   5.759 -0.8181  1.9651  0.0551
13669TIP3   OH262421   0.350   5.431  10.430 -0.9508  0.4898 -0.3170
13669TIP3    H162422   0.287   5.362  10.449 -2.2976  1.8144  0.1152
13669TIP3    H262423   0.354   5.434  10.334 -0.3463 -0.6448 -0.3398
13670TIP3   OH262424   1.278   0.774  13.737  0.0887 -0.4615 -0.2601
13670TIP3    H162425   1.317   0.861  13.728 -1.2157  0.4376  2.2649
13670TIP3    H262426   1.314   0.740  13.819 -2.1246 -0.7922  0.6314
13671TIP3   OH262427   1.206   1.516  15.828  0.0751 -0.5165  0.0680
13671TIP3    H162428   1.225   1.519  15.922  0.3896 -2.2588  0.0687
13671TIP3    H262429   1.112   1.501  15.822  0.0198 -0.1922  0.0934
13672TIP3   OH262430   5.426   2.579   4.444  0.0345  0.1935  1.0219
13672TIP3    H162431   5.498   2.516   4.434  1.0545  1.1733  1.9541
13672TIP3    H262432   5.449   2.651   4.385 -1.7434 -0.8051 -0.9568
13673TIP3   OH262433   4.726   5.447   2.510  0.2467 -0.2809  0.7120
13673TIP3    H162434   4.668   5.377   2.482  2.4966 -2.1336  0.5416
13673TIP3    H262435   4.810   5.404   2.527  2.0321  2.5176 -0.5621
13674TIP3   OH262436   1.875   5.590   1.380 -0.0458 -0.4483 -0.3541
13674TIP3    H162437   1.955   5.548   1.348  1.2238  1.1457  0.7017
13674TIP3    H262438   1.890   5.683   1.368 -0.9677 -0.0247  1.6055
13675TIP3   OH262439   6.687   6.229  14.769  0.3096 -0.0621 -0.9123
13675TIP3    H162440   6.647   6.164  14.711 -0.0943 -0.3566 -0.3142
13675TIP3    H262441   6.661   6.314  14.733 -2.6046 -0.2412  0.6318
13676TIP3   OH262442   5.603   2.228  11.991 -0.3378  0.0994  0.3690
13676TIP3    H162443   5.545   2.224  11.914 -1.0632  0.7273  0.8697
13676TIP3    H262444   5.667   2.295  11.969  0.4499 -0.8609 -0.3429
13677TIP3   OH262445   4.174   4.439  14.986  0.0678  0.2596 -0.2425
13677TIP3    H162446   4.163   4.491  14.906  1.2452 -0.0916 -0.6391
13677TIP3    H262447   4.216   4.359  14.956 -0.2271 -0.2198  0.6226
13678TIP3   OH262448   5.461   2.193  10.999  0.6489 -0.0989  0.0751
13678TIP3    H162449   5.436   2.283  10.978  1.7356  0.2151  0.0981
13678TIP3    H262450   5.557   2.192  10.992  0.6204 -1.3566 -0.3562
13679TIP3   OH262451   0.850   2.673   5.209  0.0571 -0.0158 -0.1007
13679TIP3    H162452   0.900   2.640   5.135 -0.8014 -1.5619 -0.0219
13679TIP3    H262453   0.848   2.600   5.271  1.2548  1.4480  1.7119
13680TIP3   OH262454   1.010   0.986   2.968  0.0394  0.4275 -0.1714
13680TIP3    H162455   0.940   1.046   2.995  0.6239  1.2241 -0.4302
13680TIP3    H262456   0.986   0.959   2.879 -0.0202  0.5732 -0.1988
13681TIP3   OH262457   5.839   2.790  10.496  0.3673 -0.1352  0.1175
13681TIP3    H162458   5.925   2.786  10.455  0.9446  0.6947  1.2328
13681TIP3    H262459   5.823   2.701  10.528 -0.2164 -0.8722 -2.1114
13682TIP3   OH262460   5.907   4.367   3.026  0.5126  0.1883  0.6084
13682TIP3    H162461   5.896   4.458   3.053 -0.2621  0.1702  0.3544
13682TIP3    H262462   5.978   4.370   2.961  0.2456  0.6574  0.3373
13683TIP3   OH262463   5.080   1.224  13.699 -0.3663  0.0741 -0.3404
13683TIP3    H162464   5.002   1.170  13.713 -0.5454  0.0830 -1.2856
13683TIP3    H262465   5.051   1.295  13.642  0.3934 -0.0610 -0.9052
13684TIP3   OH262466   3.304   4.925  15.166  0.0802  0.7997 -0.0977
13684TIP3    H162467   3.314   4.835  15.194  0.8158  0.9243  0.0482
13684TIP3    H262468   3.250   4.966  15.233  0.0230  0.5472  0.0071
13685TIP3   OH262469   4.916   4.106   3.418 -0.2963  0.1976 -0.0289
13685TIP3    H162470   4.980   4.081   3.485  0.0439  0.1452 -0.3706
13685TIP3    H262471   4.926   4.040   3.349  1.0893  1.6483 -1.2530
13686TIP3   OH262472   1.137   6.173  11.801  0.1839 -0.5725 -0.3437
13686TIP3    H162473   1.224   6.205  11.826  1.4809 -1.2955 -3.6311
13686TIP3    H262474   1.123   6.095  11.856  1.0225  0.2791  1.1071
13687TIP3   OH262475   5.521   0.957   3.853  0.3019 -0.1355  0.5912
13687TIP3    H162476   5.501   0.864   3.847 -0.8965  0.1371  0.3254
13687TIP3    H262477   5.437   1.001   3.842  0.8924  0.9888  0.4787
13688TIP3   OH262478   4.897   1.769   2.768 -0.0412 -0.3655  0.3148
13688TIP3    H162479   4.905   1.714   2.847  3.1578 -0.3174  0.0647
13688TIP3    H262480   4.925   1.712   2.697 -1.2393  0.1633 -0.6032
13689TIP3   OH262481   6.384   1.072  11.988  0.1363  0.0873 -0.2864
13689TIP3    H162482   6.476   1.088  11.968 -0.0061  0.0369 -1.0256
13689TIP3    H262483   6.340   1.153  11.960 -0.4297 -1.0509 -2.8713
13690TIP3   OH262484   5.564   5.097  12.180  0.3210 -0.2092 -0.3172
13690TIP3    H162485   5.495   5.104  12.114  0.8971 -1.2605 -1.0387
13690TIP3    H262486   5.562   5.182  12.225 -0.7763  0.1317 -0.9787
13691TIP3   OH262487   4.364   0.673  12.845 -0.6231 -0.0074  0.3206
13691TIP3    H162488   4.402   0.596  12.887 -0.5646 -0.4408 -0.5092
13691TIP3    H262489   4.277   0.645  12.818 -1.3691  0.8409  1.8034
13692TIP3   OH262490   0.308   2.899  11.455  0.5612  0.0659 -0.5784
13692TIP3    H162491   0.368   2.830  11.426  1.1266  0.0686  0.5521
13692TIP3    H262492   0.319   2.969  11.391  2.2134  0.3050 -0.0516
13693TIP3   OH262493   0.699   5.581  12.907  0.2355  0.0681  0.2046
13693TIP3    H162494   0.613   5.542  12.919 -0.9318  1.9748 -1.5403
13693TIP3    H262495   0.737   5.535  12.833  0.1656  0.1098  0.1435
13694TIP3   OH262496   3.560   4.150  11.280  0.1165  0.3751 -0.0026
13694TIP3    H162497   3.641   4.149  11.331  0.9064 -0.1624 -1.2323
13694TIP3    H262498   3.574   4.084  11.212 -1.1596  0.6369 -0.5362
13695TIP3   OH262499   3.268   3.347  14.147  0.1637  0.5378 -0.7375
13695TIP3    H162500   3.249   3.354  14.240  0.3016 -0.4041 -0.6364
13695TIP3    H262501   3.200   3.400  14.105  0.1335  1.0055 -0.1052
13696TIP3   OH262502   5.625   3.889   4.612  0.3602 -0.4285  0.6320
13696TIP3    H162503   5.625   3.840   4.530  0.7363  0.8467 -0.1387
13696TIP3    H262504   5.703   3.945   4.606 -1.1550  1.7165  0.6314
13697TIP3   OH262505   2.568   5.670  17.113 -0.5075 -0.0386 -0.6739
13697TIP3    H162506   2.497   5.681  17.177 -0.9269 -0.6146 -1.0373
13697TIP3    H262507   2.559   5.745  17.054 -1.2256 -0.4677 -1.1120
13698TIP3   OH262508   3.300   6.153   0.852 -0.1734 -1.1230 -0.0903
13698TIP3    H162509   3.278   6.099   0.776  0.6238 -1.6820  0.0705
13698TIP3    H262510   3.289   6.243   0.821 -0.4613 -1.3532 -0.6790
13699TIP3   OH262511   4.681   3.817  16.196  0.2227  0.3148 -0.3706
13699TIP3    H162512   4.613   3.841  16.258 -0.8866 -0.5370 -1.2357
13699TIP3    H262513   4.678   3.886  16.129  1.5106  1.3077  0.5558
13700TIP3   OH262514   2.779   3.066   2.375 -0.0115 -0.2361  0.5705
13700TIP3    H162515   2.870   3.048   2.350  0.2522 -1.1522  2.1470
13700TIP3    H262516   2.757   2.997   2.437 -1.5839  0.3687  0.7103
13701TIP3   OH262517   3.831   6.176   1.096  0.2764  0.3974 -0.7540
13701TIP3    H162518   3.781   6.153   1.018  1.0459  1.6722 -1.6585
13701TIP3    H262519   3.857   6.267   1.081 -1.2649  1.3240  1.8983
13702TIP3   OH262520   3.347   5.895   3.550  0.6716  0.5390 -0.0522
13702TIP3    H162521   3.262   5.887   3.505  0.2580 -0.3819  0.8769
13702TIP3    H262522   3.407   5.842   3.497  1.0177  2.3600 -1.5347
13703TIP3   OH262523   0.418   5.398  15.211 -0.0054  0.0967 -0.3188
13703TIP3    H162524   0.494   5.436  15.168  0.3595 -0.8664 -0.5503
13703TIP3    H262525   0.434   5.303  15.208 -0.7969 -0.0667  0.3988
13704TIP3   OH262526   0.148   3.349   0.327  0.1514  0.4386 -0.2869
13704TIP3    H162527   0.197   3.324   0.248 -0.0730 -0.8491 -0.0321
13704TIP3    H262528   0.058   3.361   0.296  0.2441  0.8617 -0.3952
13705TIP3   OH262529   3.995   2.694   3.459 -0.5344  0.0045 -0.1766
13705TIP3    H162530   4.018   2.783   3.486 -0.0059  0.0864 -0.8892
13705TIP3    H262531   3.991   2.699   3.363 -2.6045 -0.2186 -0.1233
13706TIP3   OH262532   2.290   0.759  12.920 -0.1736 -0.7745 -0.1585
13706TIP3    H162533   2.270   0.757  12.827 -0.3037 -1.3519 -0.1241
13706TIP3    H262534   2.384   0.776  12.925 -0.3501  0.2832 -0.3623
13707TIP3   OH262535   0.878   6.238   2.643  0.0837 -0.1117 -0.4319
13707TIP3    H162536   0.818   6.284   2.702 -1.0135 -1.2080 -0.6719
13707TIP3    H262537   0.947   6.302   2.625 -1.3909  1.4386 -0.7289
13708TIP3   OH262538   2.237   5.581   0.750 -0.1047 -0.0110 -0.7851
13708TIP3    H162539   2.278   5.627   0.676 -0.0035  0.0991 -0.6615
13708TIP3    H262540   2.304   5.519   0.779  1.4136  2.6793  1.7550
13709TIP3   OH262541   0.364   5.671  15.977 -0.2945 -0.5738  0.3834
13709TIP3    H162542   0.380   5.595  15.922 -0.9097 -2.0342  2.1763
13709TIP3    H262543   0.410   5.743  15.933 -1.4969 -1.4976 -2.4656
13710TIP3   OH262544   6.510   2.902  15.474 -0.3077  0.9566 -0.2714
13710TIP3    H162545   6.599   2.921  15.501  0.2586  0.2518 -1.5991
13710TIP3    H262546   6.460   2.979  15.499  0.6704  1.3418  0.4985
13711TIP3   OH262547   2.699   3.286   4.039 -0.2013 -0.0725 -0.0488
13711TIP3    H162548   2.776   3.230   4.047 -0.2566 -0.0814  0.4387
13711TIP3    H262549   2.697   3.312   3.947  0.9867  0.7760  0.1515
13712TIP3   OH262550   3.229   6.281   3.446  0.9903 -0.1387  0.3417
13712TIP3    H162551   3.259   6.332   3.371  1.6100 -1.2889 -0.1967
13712TIP3    H262552   3.143   6.319   3.467  0.3815 -0.4241 -1.5307
13713TIP3   OH262553   2.766   0.158  11.106  0.0715 -0.4073 -0.5779
13713TIP3    H162554   2.844   0.127  11.152  0.1132  1.2888  0.5248
13713TIP3    H262555   2.693   0.121  11.155  0.1462  0.2105  0.0123
13714TIP3   OH262556   2.385   5.380   1.275  0.0937 -0.6682  0.5609
13714TIP3    H162557   2.359   5.288   1.266 -1.0262 -0.2046 -1.0179
13714TIP3    H262558   2.426   5.402   1.191  0.6442  0.1992  1.0462
13715TIP3   OH262559   6.707   5.751   2.498 -0.2774  0.0359  0.2243
13715TIP3    H162560   6.787   5.705   2.524 -1.4919 -0.4454  3.3396
13715TIP3    H262561   6.706   5.830   2.552 -1.3686  0.5607 -0.5477
13716TIP3   OH262562   1.425   6.770  14.372  0.3536 -0.3146 -0.1638
13716TIP3    H162563   1.489   6.839  14.353  0.5818 -0.9873 -1.9348
13716TIP3    H262564   1.357   6.814  14.423  1.6761  0.6711  0.7870
13717TIP3   OH262565   5.893   4.581   4.928  0.4901 -0.2653 -0.1894
13717TIP3    H162566   5.934   4.666   4.942 -0.8427  0.8589 -2.7269
13717TIP3    H262567   5.816   4.581   4.985 -0.1698  0.7423 -1.0656
13718TIP3   OH262568   2.895   0.642  13.967 -0.5556  0.1204 -0.6502
13718TIP3    H162569   2.864   0.624  14.056  0.7060 -0.6760 -0.3512
13718TIP3    H262570   2.853   0.576  13.913 -2.5284  1.5517 -0.9069
13719TIP3   OH262571   1.746   0.956  10.977  0.1901 -0.2314 -0.2724
13719TIP3    H162572   1.731   1.034  10.923 -0.8294 -1.6288 -2.0343
13719TIP3    H262573   1.839   0.937  10.966  0.4902  0.8423  0.3311
13720TIP3   OH262574   0.303   6.028   1.660 -0.6211 -0.5723 -0.2674
13720TIP3    H162575   0.248   5.950   1.665  0.4947 -1.2898  1.0568
13720TIP3    H262576   0.391   5.996   1.680  0.5090  0.3547 -3.3829
13721TIP3   OH262577   1.062   4.553  11.325 -0.1388 -0.5908 -0.0600
13721TIP3    H162578   1.059   4.594  11.411 -2.5873 -1.7020  0.4213
13721TIP3    H262579   1.077   4.625  11.265  0.5280  0.3371  1.2031
13722TIP3   OH262580   1.987   3.327   1.978  0.3216 -0.6560 -0.1250
13722TIP3    H162581   2.051   3.290   1.917  0.3313  0.7509 -1.0079
13722TIP3    H262582   1.982   3.420   1.954 -0.3789 -0.2701  1.4085
13723TIP3   OH262583   0.535   4.128  15.683 -0.2543 -0.2917  0.0304
13723TIP3    H162584   0.599   4.072  15.727 -0.1885  0.8411  1.4193
13723TIP3    H262585   0.453   4.080  15.689 -0.3019 -0.0336  1.6433
13724TIP3   OH262586   2.977   6.519  16.460  0.1621  0.4993  0.4589
13724TIP3    H162587   2.948   6.452  16.398  0.4895  2.5754 -2.0158
13724TIP3    H262588   3.054   6.481  16.503  2.5806  0.6279 -3.5429
13725TIP3   OH262589   4.704   1.118   2.859 -0.6097 -0.2371 -0.0465
13725TIP3    H162590   4.623   1.165   2.840 -0.1860 -0.5823 -2.8956
13725TIP3    H262591   4.753   1.121   2.777  1.7053 -1.1434  1.2605
13726TIP3   OH262592   5.385   6.522   4.465  0.4016 -0.2935  0.9872
13726TIP3    H162593   5.317   6.570   4.512  0.3395  0.5855  0.0130
13726TIP3    H262594   5.391   6.438   4.511 -1.1506 -0.2810  1.2408
13727TIP3   OH262595   6.001   4.862   1.103 -0.0787 -0.0085  0.3941
13727TIP3    H162596   5.991   4.953   1.076  0.5441  0.3417  1.2962
13727TIP3    H262597   6.040   4.868   1.191  1.2794 -1.1646 -0.1104
13728TIP3   OH262598   6.134   1.555   2.771 -0.5527  0.6864 -0.1424
13728TIP3    H162599   6.148   1.650   2.769 -2.0605  0.9281  0.2675
13728TIP3    H262600   6.220   1.519   2.794  0.4540  1.8332 -2.0105
13729TIP3   OH262601   5.496   2.378  13.499 -0.2621 -0.6777 -0.5498
13729TIP3    H162602   5.480   2.300  13.551  3.3231 -0.9686  0.2254
13729TIP3    H262603   5.503   2.449  13.563  3.2909 -0.8947 -0.5973
13730TIP3   OH262604   5.774   0.756   1.865 -0.2441 -0.6234  0.1900
13730TIP3    H162605   5.812   0.770   1.952 -1.7852  0.5699  0.6981
13730TIP3    H262606   5.828   0.809   1.806 -1.3671  1.4382  0.9748
13731TIP3   OH262607   2.780   6.224   3.298  0.5500  0.5933 -0.0562
13731TIP3    H162608   2.788   6.265   3.212  2.6087  0.9857  0.2929
13731TIP3    H262609   2.707   6.162   3.289 -1.1333  2.6628 -1.2521
13732TIP3   OH262610   4.597   5.953  15.385  0.0706  0.1303  0.5304
13732TIP3    H162611   4.652   5.983  15.457 -0.7649  1.1935  0.7313
13732TIP3    H262612   4.551   6.031  15.354  0.9365 -0.1696 -1.6204
13733TIP3   OH262613   0.898   0.878  11.807  0.2801  0.1024  0.4195
13733TIP3    H162614   0.944   0.799  11.779  0.2174  0.9612 -2.1951
13733TIP3    H262615   0.867   0.918  11.726  0.5441  2.9585  1.6808
13734TIP3   OH262616   3.871   1.427   0.225  0.3949 -0.2505  0.5639
13734TIP3    H162617   3.790   1.400   0.181 -0.3855  0.6619  1.4249
13734TIP3    H262618   3.918   1.345   0.241 -1.0378 -0.9236  1.4027
13735TIP3   OH262619   2.223   1.926  10.975 -0.2396  0.1543 -0.3722
13735TIP3    H162620   2.256   1.873  10.903 -2.1514 -0.6660 -0.6955
13735TIP3    H262621   2.280   2.003  10.977  2.1179 -1.5390 -0.3720
13736TIP3   OH262622   2.499   1.077   5.935 -0.7961  0.1775 -0.2105
13736TIP3    H162623   2.410   1.042   5.943 -1.0752  0.8671 -0.2915
13736TIP3    H262624   2.496   1.135   5.859 -0.3841  0.5285  0.0379
13737TIP3   OH262625   0.884   6.747  13.329 -0.2899  0.3769 -0.3862
13737TIP3    H162626   0.953   6.781  13.272  0.2556  1.0114  0.6377
13737TIP3    H262627   0.911   6.657  13.349 -1.0465 -0.2372 -1.9954
13738TIP3   OH262628   2.036   2.149   0.054  0.5063 -0.1961 -0.1087
13738TIP3    H162629   1.999   2.178  -0.030 -3.8083  0.4419  1.9002
13738TIP3    H262630   2.011   2.057   0.060 -0.5319  0.1591  1.1352
13739TIP3   OH262631   5.087   0.997   0.062  0.3135  0.0842  0.0369
13739TIP3    H162632   5.056   0.907   0.060  1.3851 -0.2594 -2.0750
13739TIP3    H262633   5.182   0.990   0.059  0.4960  1.2520  2.0370
13740TIP3   OH262634   5.736   4.377   0.561  0.3697  0.4953 -0.2369
13740TIP3    H162635   5.771   4.425   0.636  2.1539  0.5978 -1.0958
13740TIP3    H262636   5.793   4.401   0.489  0.3016 -1.6293 -1.0412
13741TIP3   OH262637   5.293   6.429   2.933  0.5038  0.3572  0.2512
13741TIP3    H162638   5.278   6.366   2.863 -3.4483 -0.5850  1.8066
13741TIP3    H262639   5.338   6.380   3.001  2.2871  0.6841 -0.6605
13742TIP3   OH262640   0.041   3.581   2.720 -0.2684  0.2614 -0.3927
13742TIP3    H162641  -0.014   3.583   2.799  1.0276  0.9347  0.5192
13742TIP3    H262642  -0.008   3.529   2.658 -0.1732 -2.4796  1.7439
13743TIP3   OH262643   6.348   1.146   0.294  0.0685 -0.3156 -0.2765
13743TIP3    H162644   6.442   1.154   0.303  0.2808 -1.3551 -1.4029
13743TIP3    H262645   6.317   1.121   0.382  0.7472  0.6658  0.2471
13744TIP3   OH262646   0.396   2.180  14.613  0.1420 -0.2879  0.0983
13744TIP3    H162647   0.399   2.122  14.538  0.1695 -0.3901  0.1779
13744TIP3    H262648   0.431   2.263  14.581 -0.1250 -0.2428 -0.0811
13745TIP3   OH262649   6.365   1.432   2.835 -0.3253  0.2903 -0.2398
13745TIP3    H162650   6.445   1.460   2.880 -0.3936  0.2497 -0.0927
13745TIP3    H262651   6.391   1.352   2.789 -0.7876 -0.8336  1.4217
13746TIP3   OH262652   5.389   4.810   4.038  0.3642 -0.2626 -0.0457
13746TIP3    H162653   5.299   4.804   4.070  0.3949  4.8505  1.5176
13746TIP3    H262654   5.441   4.829   4.117  2.3347 -0.1086 -1.3476
13747TIP3   OH262655   0.542   2.824  15.475  0.3938 -0.4171  0.0228
13747TIP3    H162656   0.567   2.889  15.409  1.6402 -0.7865  0.1206
13747TIP3    H262657   0.571   2.861  15.558  3.0175 -2.0164 -0.1447
13748TIP3   OH262658   2.860   5.612   1.561  0.9257 -0.7809 -0.1046
13748TIP3    H162659   2.891   5.702   1.547  1.2087 -0.7971  0.4110
13748TIP3    H262660   2.925   5.573   1.620 -0.2161 -0.7382  1.2014
13749TIP3   OH262661   4.800   4.706  15.443 -0.7038 -0.0475  0.4068
13749TIP3    H162662   4.759   4.654  15.374  1.1042  1.2226 -1.6835
13749TIP3    H262663   4.740   4.700  15.517 -2.6955 -1.4127 -1.2846
13750TIP3   OH262664   5.762   2.229   0.069  0.6520  0.5812 -0.0084
13750TIP3    H162665   5.690   2.195   0.016  3.0060  0.1822 -3.0875
13750TIP3    H262666   5.764   2.173   0.146 -1.4133 -0.2778 -0.5576
13751TIP3   OH262667   0.929   1.261   1.175 -0.0768  0.0306 -0.4334
13751TIP3    H162668   0.878   1.185   1.147  0.3351 -0.2580 -0.4058
13751TIP3    H262669   0.952   1.242   1.266 -0.1634  0.2917 -0.3573
13752TIP3   OH262670   6.234   4.624   1.186  0.6483  0.3800  0.4830
13752TIP3    H162671   6.267   4.584   1.106 -1.6708  1.2842 -0.9814
13752TIP3    H262672   6.300   4.690   1.210  0.9599  0.6804 -1.1629
13753TIP3   OH262673   5.696   1.000   1.738 -0.0792 -0.0615 -0.4397
13753TIP3    H162674   5.635   1.066   1.703  0.0432  0.0845 -0.3786
13753TIP3    H262675   5.657   0.975   1.822  0.4303  0.7183  0.0390
13754TIP3   OH262676   3.036   3.287  12.225 -0.6571 -0.1151  0.3851
13754TIP3    H162677   3.006   3.372  12.192 -0.5027  0.0824  0.7400
13754TIP3    H262678   3.131   3.296  12.229 -0.5498 -0.7320 -0.7214
13755TIP3   OH262679   4.898   2.184   5.452 -0.5403  0.8773  0.2129
13755TIP3    H162680   4.963   2.231   5.505 -0.9633  0.6041  0.9784
13755TIP3    H262681   4.832   2.156   5.515  0.5233 -2.1703  0.0478
13756TIP3   OH262682   4.518   2.706   4.901  0.0171  0.7760  0.3016
13756TIP3    H162683   4.560   2.692   4.816 -0.6627 -0.0227  0.0917
13756TIP3    H262684   4.587   2.688   4.965  0.3540  0.7319 -0.0726
13757TIP3   OH262685   3.616   2.969   1.565  0.0693 -0.1578  0.0435
13757TIP3    H162686   3.531   2.969   1.522  0.6850 -0.6794 -1.1691
13757TIP3    H262687   3.678   2.939   1.499  1.1737 -0.0141  0.9815
13758TIP3   OH262688   3.021   1.150   5.383  0.4211 -0.0666  0.2568
13758TIP3    H162689   3.058   1.119   5.300  2.3373 -1.4878  1.5708
13758TIP3    H262690   2.970   1.075   5.415 -1.7838  1.0932 -0.4415
13759TIP3   OH262691   1.587   4.852  12.122  0.4222 -0.3198 -0.1398
13759TIP3    H162692   1.639   4.833  12.044  0.1593 -1.4075 -0.0520
13759TIP3    H262693   1.499   4.872  12.089  0.6472  0.5639 -0.2157
13760TIP3   OH262694   3.754   3.208   1.533 -0.0232 -0.4292 -0.1802
13760TIP3    H162695   3.814   3.178   1.601 -0.4030 -1.2860 -0.2163
13760TIP3    H262696   3.705   3.130   1.508 -0.2577 -0.0072 -1.0621
13761TIP3   OH262697   0.087   6.642   1.745  0.5937  0.0585 -0.3293
13761TIP3    H162698   0.174   6.628   1.783  0.7013 -1.8920 -1.2412
13761TIP3    H262699   0.102   6.638   1.650 -0.4109  0.2663 -0.4946
13762TIP3   OH262700   0.112   2.520  11.715 -0.3292  0.6074 -0.5232
13762TIP3    H162701   0.141   2.611  11.711  0.5355  0.3466 -0.3252
13762TIP3    H262702   0.079   2.509  11.804 -0.6155  0.7803 -0.6069
13763TIP3   OH262703   5.118   5.954  16.650 -0.5925  0.0827 -0.1297
13763TIP3    H162704   5.163   5.904  16.582  0.3815 -1.0973  1.3367
13763TIP3    H262705   5.026   5.933  16.639 -0.4285 -0.2119 -0.9907
13764TIP3   OH262706   2.803   4.702   5.304 -0.0363  0.2472  0.2509
13764TIP3    H162707   2.757   4.670   5.382  2.8628 -2.2869  1.0175
13764TIP3    H262708   2.784   4.637   5.237  1.9733 -0.5631  0.4408
13765TIP3   OH262709   1.102   4.315  16.750 -0.8349 -0.2581  0.1074
13765TIP3    H162710   1.039   4.377  16.786 -1.5499 -1.6094  1.2176
13765TIP3    H262711   1.153   4.285  16.825  1.4811  1.1777 -0.8431
13766TIP3   OH262712   2.027   1.971  14.045 -0.5236 -0.2808 -0.4524
13766TIP3    H162713   2.070   2.056  14.049  0.3002 -0.7130 -0.0421
13766TIP3    H262714   1.970   1.977  13.968 -0.7036  0.7404 -0.2502
13767TIP3   OH262715   0.990   3.953   0.109  0.1320  0.0676 -0.1030
13767TIP3    H162716   0.944   3.913   0.036 -0.0969 -0.5052  0.3503
13767TIP3    H262717   1.006   4.044   0.081 -0.8251  0.1330 -0.4571
13768TIP3   OH262718   3.961   0.153   2.684  0.5031  0.6417  0.1988
13768TIP3    H162719   3.996   0.105   2.609 -1.0989 -0.8788  0.4183
13768TIP3    H262720   3.916   0.228   2.646  1.3072  0.8950 -0.2532
13769TIP3   OH262721   4.777   3.185  11.560 -0.0285  0.4677 -0.2033
13769TIP3    H162722   4.724   3.138  11.624 -0.3796 -1.1280 -1.6184
13769TIP3    H262723   4.847   3.225  11.611  0.3183 -1.6639  1.0506
13770TIP3   OH262724   4.850   0.282  12.633  0.2853 -0.0387 -0.6765
13770TIP3    H162725   4.902   0.308  12.709  2.5088 -0.6991 -1.9270
13770TIP3    H262726   4.783   0.223  12.668  0.8758  0.1909  0.8568
13771TIP3   OH262727   0.517   0.437   5.956 -0.7226  0.5676 -0.0385
13771TIP3    H162728   0.507   0.527   5.926 -1.1945  0.4462 -0.2487
13771TIP3    H262729   0.435   0.418   6.002 -0.3180  0.4979  0.6594
13772TIP3   OH262730   1.385   5.920  12.590 -0.4716 -0.0510 -0.1193
13772TIP3    H162731   1.325   5.948  12.659 -0.1597  0.4581 -0.0506
13772TIP3    H262732   1.410   5.831  12.614 -0.1512  0.2214  0.5803
13773TIP3   OH262733   1.771   6.079   2.181  0.0402  0.6536 -0.4794
13773TIP3    H162734   1.766   5.998   2.129 -0.8290  1.5319 -1.8170
13773TIP3    H262735   1.696   6.130   2.151 -1.1762  0.6953  2.5519
13774TIP3   OH262736   5.601   6.330   5.223 -0.7335 -0.0747  0.9880
13774TIP3    H162737   5.552   6.344   5.303 -0.2141  0.7088  1.1782
13774TIP3    H262738   5.677   6.388   5.231 -1.1450  0.7014 -0.4668
13775TIP3   OH262739   6.622   4.622   6.369 -0.1649 -0.3200  0.5125
13775TIP3    H162740   6.712   4.593   6.358 -0.2174 -0.5129  0.5947
13775TIP3    H262741   6.581   4.555   6.423 -0.6188 -0.7492 -0.3468
13776TIP3   OH262742   2.311   3.479  14.847 -0.0782  0.0754  0.3600
13776TIP3    H162743   2.245   3.549  14.846  0.4860  0.6045 -0.0471
13776TIP3    H262744   2.388   3.519  14.887  0.6466  0.0675 -0.9991
13777TIP3   OH262745   2.629   2.846   5.641 -0.1023  0.2625 -0.1096
13777TIP3    H162746   2.658   2.830   5.552 -0.3820  0.8017 -0.3029
13777TIP3    H262747   2.709   2.860   5.691  0.1391 -1.5818  0.0454
13778TIP3   OH262748   2.134   6.464  14.223  0.2534 -0.5590  0.3141
13778TIP3    H162749   2.163   6.390  14.169 -0.0909 -0.3719 -0.1404
13778TIP3    H262750   2.208   6.524  14.224 -0.4637  0.4146 -1.7414
13779TIP3   OH262751   5.588   3.152  16.527 -0.0345 -0.0100 -0.0963
13779TIP3    H162752   5.510   3.174  16.578  0.0458 -1.4074  0.6384
13779TIP3    H262753   5.557   3.148  16.437 -0.4617  1.0752 -0.0144
13780TIP3   OH262754   6.731   2.853   5.147 -0.5554  0.2850 -0.4173
13780TIP3    H162755   6.798   2.786   5.135 -0.2676  0.2336  1.3145
13780TIP3    H262756   6.655   2.805   5.180 -0.3407  0.7927  0.8493
13781TIP3   OH262757   5.822   4.938  13.352 -0.3057 -0.0002 -0.3271
13781TIP3    H162758   5.783   4.851  13.363 -0.2362  0.0625  0.4829
13781TIP3    H262759   5.914   4.921  13.333 -0.8135 -0.1675 -2.8558
13782TIP3   OH262760   3.399   4.219  12.652 -0.2848 -0.3297  0.2949
13782TIP3    H162761   3.385   4.241  12.744  0.3101 -1.0119  0.5498
13782TIP3    H262762   3.462   4.284  12.622  0.4473 -0.8486  0.6931
13783TIP3   OH262763   5.289   2.980   2.636 -0.8367 -0.3589  0.2026
13783TIP3    H162764   5.208   2.940   2.604 -0.4808 -1.5505  0.7584
13783TIP3    H262765   5.316   2.924   2.709 -0.8068  1.4178  1.5896
13784TIP3   OH262766   5.205   1.467  11.732  0.5811  0.4016 -0.0785
13784TIP3    H162767   5.181   1.555  11.701  0.4723  0.7910  1.0646
13784TIP3    H262768   5.121   1.424  11.750  0.6442  0.2594 -0.1249
13785TIP3   OH262769   4.448   0.297  17.166  0.5047 -0.1455 -0.3305
13785TIP3    H162770   4.411   0.371  17.119 -1.7433 -2.2131 -1.9674
13785TIP3    H262771   4.506   0.255  17.101  0.5026 -0.7308  0.0447
13786TIP3   OH262772   4.015   3.788  11.727 -0.1250  0.4336 -0.1295
13786TIP3    H162773   4.042   3.696  11.723  1.3276  0.9012 -1.9361
13786TIP3    H262774   4.005   3.806  11.820  1.9402 -0.8978  0.3930
13787TIP3   OH262775   3.480   1.536   5.155 -0.5618 -0.0256  0.0866
13787TIP3    H162776   3.481   1.445   5.185  0.6037 -0.7850 -2.1444
13787TIP3    H262777   3.564   1.571   5.184  0.2607 -0.5505 -1.6299
13788TIP3   OH262778   3.694   4.216   5.411 -0.0497  0.2667  0.0254
13788TIP3    H162779   3.646   4.299   5.417  1.1176  1.0277 -0.8283
13788TIP3    H262780   3.753   4.217   5.486 -0.8458 -0.3463  0.6760
13789TIP3   OH262781   3.358   4.469   1.977  0.1175  0.3098  0.2300
13789TIP3    H162782   3.270   4.450   1.944  0.2497  0.2031 -0.0677
13789TIP3    H262783   3.416   4.428   1.913  0.3846  0.5023  0.3505
13790TIP3   OH262784   1.674   5.764   3.861  0.6111  0.0076  0.3114
13790TIP3    H162785   1.711   5.688   3.906 -0.8049 -0.8223  0.1121
13790TIP3    H262786   1.609   5.798   3.923 -0.7238 -0.6132 -0.7249
13791TIP3   OH262787   3.043   4.127   0.726 -0.2615  0.4589 -0.4766
13791TIP3    H162788   3.120   4.166   0.769  0.4927 -1.4104 -0.0944
13791TIP3    H262789   3.065   4.129   0.633  0.4829 -0.5063 -0.3363
13792TIP3   OH262790   3.402   0.721   2.207  0.4664 -0.6056 -0.0830
13792TIP3    H162791   3.447   0.641   2.180  2.5900  0.2466  0.7924
13792TIP3    H262792   3.365   0.757   2.126  2.2039 -0.8344 -0.9896
13793TIP3   OH262793   3.973   3.328   3.997  0.1043 -0.0799  0.0425
13793TIP3    H162794   4.039   3.260   3.984  1.3882  1.2283 -0.4469
13793TIP3    H262795   4.006   3.403   3.948 -3.0608 -0.2188 -2.4125
13794TIP3   OH262796   2.603   4.424   6.694 -0.0890  0.4187  0.3921
13794TIP3    H162797   2.631   4.441   6.604  0.3054 -2.6894 -0.1391
13794TIP3    H262798   2.552   4.501   6.719 -1.2467  0.7792 -2.9340
13795TIP3   OH262799   5.648   6.702  14.001 -0.1037  0.1872  0.4235
13795TIP3    H162800   5.610   6.728  14.086  1.6253 -0.3599  1.3887
13795TIP3    H262801   5.743   6.711  14.014  0.1104  1.5886 -1.9627
13796TIP3   OH262802   3.139   2.168  12.121  0.3899  0.5758  0.4186
13796TIP3    H162803   3.091   2.179  12.204 -0.4825 -1.4204  0.2284
13796TIP3    H262804   3.224   2.207  12.137  0.4753 -0.4119  2.5167
13797TIP3   OH262805   1.983   0.753   2.412 -0.1433  0.3960 -0.2740
13797TIP3    H162806   1.951   0.843   2.398 -1.9078 -0.4345 -1.8717
13797TIP3    H262807   2.066   0.749   2.364  0.0004  1.2243 -0.0979
13798TIP3   OH262808   1.729   4.367  15.097 -0.0324  0.2692 -0.0644
13798TIP3    H162809   1.734   4.337  15.006 -1.0624  0.5159 -0.2131
13798TIP3    H262810   1.820   4.375  15.125  0.2775 -0.6140 -0.8088
13799TIP3   OH262811   3.830   2.613   1.116  0.2242  0.4016 -0.2889
13799TIP3    H162812   3.817   2.546   1.183 -0.3155  0.2148 -0.5819
13799TIP3    H262813   3.746   2.658   1.110 -0.4789 -1.1542 -2.5639
13800TIP3   OH262814   4.036   0.190  13.665  0.3675 -0.2580 -0.2939
13800TIP3    H162815   3.969   0.124  13.649 -0.0010  0.4428 -1.7107
13800TIP3    H262816   4.009   0.265  13.613  1.4707  0.5569  0.2888
13801TIP3   OH262817   2.619   4.555  13.864  0.1802  0.4252 -0.6288
13801TIP3    H162818   2.698   4.520  13.822 -0.6381 -1.6675 -0.5248
13801TIP3    H262819   2.570   4.477  13.891 -0.4098  1.7037  2.1686
13802TIP3   OH262820   6.329   4.767  14.156 -0.1375 -0.2904  0.8955
13802TIP3    H162821   6.275   4.814  14.093  2.1916  0.0898 -0.8706
13802TIP3    H262822   6.388   4.834  14.192  0.6841 -1.1230  1.1270
13803TIP3   OH262823   5.819   5.693   4.771  0.0849  0.1634  0.4833
13803TIP3    H162824   5.784   5.777   4.800  0.0133  0.0010  0.8632
13803TIP3    H262825   5.751   5.656   4.715  0.8730  1.2057 -1.2215
13804TIP3   OH262826   4.013   1.647   5.649 -0.0564  0.5144  0.1241
13804TIP3    H162827   4.106   1.626   5.636 -0.2279 -1.5411  1.8880
13804TIP3    H262828   3.967   1.582   5.596 -0.5195 -0.9749  2.2689
13805TIP3   OH262829   0.101   1.152  12.128 -0.3034  0.1857  0.5526
13805TIP3    H162830   0.136   1.069  12.160  3.9781  1.4284 -0.5706
13805TIP3    H262831   0.040   1.127  12.059  2.6796 -2.0648 -1.4049
13806TIP3   OH262832   1.076   6.313  15.061  0.1372  0.3473 -0.4071
13806TIP3    H162833   1.085   6.400  15.100  0.3078  0.2953 -0.3287
13806TIP3    H262834   0.994   6.316  15.012 -1.4999 -0.4536  2.1752
13807TIP3   OH262835   2.371   4.454  13.122 -0.4219 -0.8545  0.3124
13807TIP3    H162836   2.402   4.483  13.036 -0.8009  1.0670  0.7953
13807TIP3    H262837   2.448   4.418  13.165  0.2745  0.2581  0.0085
13808TIP3   OH262838   1.146   4.923  10.453 -0.3733  0.6990  0.0892
13808TIP3    H162839   1.182   4.835  10.452  0.5926  1.0629  1.9970
13808TIP3    H262840   1.053   4.911  10.470 -0.2582  0.0524  0.2630
13809TIP3   OH262841   6.289   1.408  11.463  0.0061  0.2942 -0.0189
13809TIP3    H162842   6.269   1.330  11.412  0.6210 -0.7631  1.3130
13809TIP3    H262843   6.258   1.481  11.410 -0.4070 -0.8511 -1.3619
13810TIP3   OH262844   3.895   3.176   6.143  0.7664  0.2610  0.3422
13810TIP3    H162845   3.848   3.102   6.183  2.2575 -0.5457  0.6473
13810TIP3    H262846   3.971   3.189   6.199  0.9343  1.5342 -0.1673
13811TIP3   OH262847   5.150   5.153   0.715 -0.2001 -0.3464 -0.1589
13811TIP3    H162848   5.194   5.235   0.739 -0.9949 -0.5396  2.0124
13811TIP3    H262849   5.211   5.111   0.654  1.3377  0.7242  0.6011
13812TIP3   OH262850   3.951   2.606  14.976  0.3532  0.2375  0.2091
13812TIP3    H162851   3.887   2.656  14.926 -2.0571 -1.9214  0.9993
13812TIP3    H262852   3.916   2.605  15.065  0.8606 -1.9319  0.4107
13813TIP3   OH262853   4.720   3.163   2.464 -0.6251 -0.6554  0.6930
13813TIP3    H162854   4.775   3.097   2.505 -1.7342 -2.3681 -0.5092
13813TIP3    H262855   4.730   3.147   2.370 -0.9697  0.8493  0.3882
13814TIP3   OH262856   6.554   4.073  11.531 -0.5281  0.2916 -0.0447
13814TIP3    H162857   6.618   4.011  11.568 -0.0085  1.6975  1.4951
13814TIP3    H262858   6.576   4.076  11.438  0.2396 -0.8959  0.0701
13815TIP3   OH262859   3.785   1.553   4.131 -0.0823  0.2153  0.4282
13815TIP3    H162860   3.725   1.497   4.082 -0.5991  1.6444 -0.6047
13815TIP3    H262861   3.869   1.541   4.087 -0.5173  1.3978 -0.7665
13816TIP3   OH262862   4.396   0.884   1.237 -0.3422 -0.1654  0.1639
13816TIP3    H162863   4.304   0.902   1.258  0.3039  1.4757  1.7527
13816TIP3    H262864   4.424   0.822   1.304 -0.7800 -2.1753 -1.4591
13817TIP3   OH262865   1.790   2.199   2.887 -0.3067  0.0812  0.6370
13817TIP3    H162866   1.755   2.141   2.819 -0.5800  2.3974 -1.2837
13817TIP3    H262867   1.817   2.140   2.957  0.4672 -2.4440 -1.6846
13818TIP3   OH262868   3.814   3.216   3.755 -0.1563  0.4569 -0.0495
13818TIP3    H162869   3.850   3.203   3.843 -0.1076  2.2716  0.2290
13818TIP3    H262870   3.744   3.281   3.767  2.0092  3.2384 -1.7937
13819TIP3   OH262871   0.461   0.499  13.194 -0.4422 -0.3546 -0.0568
13819TIP3    H162872   0.515   0.431  13.234 -3.3510 -1.9328  1.3932
13819TIP3    H262873   0.422   0.458  13.117 -3.6498 -1.0857  1.8216
13820TIP3   OH262874   6.361   3.633   2.997 -0.1679  0.0450  0.1002
13820TIP3    H162875   6.370   3.726   3.017 -1.8883  0.3440 -0.4138
13820TIP3    H262876   6.366   3.627   2.902  0.2542 -0.4238  0.1494
13821TIP3   OH262877   3.122   3.579  16.134 -0.1272  0.1835  0.0634
13821TIP3    H162878   3.058   3.518  16.096 -0.7560  1.0097 -0.2179
13821TIP3    H262879   3.195   3.578  16.074  0.1394 -0.7876  0.3976
13822TIP3   OH262880   6.523   1.706  12.435 -0.0872  0.3249  0.6553
13822TIP3    H162881   6.515   1.776  12.500  2.3733  0.3083  1.0331
13822TIP3    H262882   6.617   1.693  12.426 -0.4254 -0.7122 -1.8258
13823TIP3   OH262883   2.331   5.630  14.910 -0.3512 -0.1288 -0.0473
13823TIP3    H162884   2.384   5.652  14.833  0.0966  0.4720  0.4264
13823TIP3    H262885   2.395   5.618  14.980 -0.7663 -0.5890  0.2486
13824TIP3   OH262886   4.250   0.195  11.734 -0.0124 -0.3066 -0.1534
13824TIP3    H162887   4.187   0.267  11.742 -0.3839 -0.6697  0.3125
13824TIP3    H262888   4.195   0.118  11.718  0.2711 -0.7146  0.8029
13825TIP3   OH262889   0.617   1.938  14.476  0.1729  0.0838 -0.1478
13825TIP3    H162890   0.665   1.867  14.432  0.2443  1.0100 -1.6008
13825TIP3    H262891   0.685   2.000  14.502  0.4133 -1.5603  3.4960
13826TIP3   OH262892   5.643   3.361  12.456  0.6409 -0.3111 -0.0360
13826TIP3    H162893   5.591   3.314  12.522  0.4175 -1.2813 -0.8977
13826TIP3    H262894   5.635   3.453  12.481 -0.1390 -0.5967  0.8055
13827TIP3   OH262895   6.753   2.304  16.944  0.3909  0.0695 -0.2782
13827TIP3    H162896   6.693   2.267  16.879  0.5967  0.0852 -0.4784
13827TIP3    H262897   6.761   2.396  16.919  0.9094 -0.0506 -0.5669
13828TIP3   OH262898   3.661   3.570   4.614 -1.0253 -0.0356 -0.0108
13828TIP3    H162899   3.707   3.553   4.532  0.6913 -2.4835  1.3977
13828TIP3    H262900   3.623   3.486   4.638  0.6308  0.0172  2.9755
13829TIP3   OH262901   2.751   4.633   3.825 -0.7448 -0.0644  0.0922
13829TIP3    H162902   2.726   4.725   3.823 -1.0972 -0.1596  0.0180
13829TIP3    H262903   2.824   4.629   3.887  0.4283  0.5282 -1.2423
13830TIP3   OH262904   4.445   1.988  13.022 -0.0694  0.2048  0.0730
13830TIP3    H162905   4.399   2.038  12.955  0.1761  1.6878  0.9714
13830TIP3    H262906   4.409   2.020  13.105  0.7140 -0.4948  0.6974
13831TIP3   OH262907   3.464   5.719   2.783  0.0705  0.1091 -0.2912
13831TIP3    H162908   3.445   5.795   2.728  1.8240  0.4149 -0.5044
13831TIP3    H262909   3.477   5.647   2.720 -1.7600 -0.4311 -0.0843
13832TIP3   OH262910   2.928   5.292  13.386  0.2899 -0.1699 -0.2218
13832TIP3    H162911   2.941   5.374  13.339  0.0976 -0.3839 -0.6551
13832TIP3    H262912   2.833   5.284  13.395  0.2670 -0.8129 -1.0229
13833TIP3   OH262913   1.034   2.847   3.493  0.3600  0.8245  0.7820
13833TIP3    H162914   1.061   2.757   3.512 -0.4803  0.9046  2.4912
13833TIP3    H262915   0.965   2.865   3.557 -2.7107  1.1564 -2.4165
13834TIP3   OH262916   1.184   0.778   4.901 -0.0979  0.0860  0.4362
13834TIP3    H162917   1.141   0.713   4.958  0.3611  1.3666  2.2985
13834TIP3    H262918   1.120   0.795   4.832 -0.1130 -2.5522 -0.2661
13835TIP3   OH262919   5.320   1.238   1.230  0.6626 -0.2020  0.1132
13835TIP3    H162920   5.407   1.277   1.236  1.0733 -0.8713 -1.1142
13835TIP3    H262921   5.277   1.260   1.312  0.7477  3.0850 -0.6852
13836TIP3   OH262922   6.666   1.742  12.879  0.0797 -0.2210 -0.0041
13836TIP3    H162923   6.602   1.695  12.826  0.1317  0.0742 -0.3298
13836TIP3    H262924   6.751   1.718  12.841  0.0213  1.4962 -1.2849
13837TIP3   OH262925   3.209   0.280   0.047  0.2600 -0.2492  0.2528
13837TIP3    H162926   3.291   0.279  -0.003 -0.1041 -2.3274 -0.3608
13837TIP3    H262927   3.210   0.197   0.095 -0.2126  0.9418  2.3777
13838TIP3   OH262928   3.150   4.885  13.952 -0.6143  0.1740  0.1741
13838TIP3    H162929   3.103   4.884  14.036  0.9730  0.3645  1.0896
13838TIP3    H262930   3.209   4.810  13.957 -1.1559 -0.3502 -1.1697
13839TIP3   OH262931   0.260   6.158   5.273 -0.3213 -0.4393 -0.4608
13839TIP3    H162932   0.289   6.206   5.351 -0.0184  0.6191 -1.2139
13839TIP3    H262933   0.280   6.067   5.292  0.6205 -0.0778  0.3192
13840TIP3   OH262934   3.505   5.534   0.654  0.4830  0.0633 -0.1305
13840TIP3    H162935   3.440   5.479   0.697  0.1762  0.8014  0.3745
13840TIP3    H262936   3.517   5.495   0.567 -2.0801  1.0353 -0.9516
13841TIP3   OH262937   3.817   0.973   1.733 -0.2692  0.8934  0.1328
13841TIP3    H162938   3.766   0.941   1.659 -2.1906 -1.4253  2.3495
13841TIP3    H262939   3.829   0.896   1.789  3.4939  1.9657  0.9511
13842TIP3   OH262940   5.247   6.363   2.173 -0.0484  0.5678 -0.0085
13842TIP3    H162941   5.217   6.418   2.246  0.0263  0.1111  0.3722
13842TIP3    H262942   5.265   6.425   2.102  0.0887  1.0429  0.4358
13843TIP3   OH262943   0.262   3.319   1.740  0.2354 -0.2525  0.4932
13843TIP3    H162944   0.288   3.303   1.650  1.6625  2.8417  0.2669
13843TIP3    H262945   0.337   3.290   1.792  0.2502 -0.1538  0.5279
13844TIP3   OH262946   6.158   0.269  15.027 -0.0953  0.6175 -0.0079
13844TIP3    H162947   6.198   0.230  14.949 -0.7920 -1.4261  0.6057
13844TIP3    H262948   6.064   0.259  15.014 -0.3205  2.7777 -0.1429
13845TIP3   OH262949   3.556   0.223  11.268 -0.5460  0.3271 -0.6035
13845TIP3    H162950   3.462   0.205  11.258 -0.9234  1.2228  1.0808
13845TIP3    H262951   3.588   0.152  11.323 -0.5131  0.7518 -0.0712
13846TIP3   OH262952   2.749   0.414  12.815 -0.0728 -0.2905  0.7249
13846TIP3    H162953   2.821   0.374  12.864  1.1739 -1.4699 -1.9687
13846TIP3    H262954   2.697   0.340  12.784 -0.4903  0.4135 -0.2548
13847TIP3   OH262955   2.982   3.928   2.756 -0.9554 -0.1598  0.1935
13847TIP3    H162956   2.975   4.003   2.696 -1.9248 -0.7941 -0.5145
13847TIP3    H262957   3.075   3.923   2.778 -0.7038  0.5493 -0.6651
13848TIP3   OH262958   4.009   1.710  13.644 -0.3705  1.1865 -0.2685
13848TIP3    H162959   3.987   1.706  13.551 -0.5261  1.3930 -0.2392
13848TIP3    H262960   4.014   1.618  13.671 -0.5032  1.1287 -0.4389
13849TIP3   OH262961   0.123   1.956   3.501 -0.2194  1.0575 -0.3617
13849TIP3    H162962   0.030   1.968   3.481 -0.4527  3.0673  1.6785
13849TIP3    H262963   0.128   1.964   3.597  2.0173  0.7157 -0.4233
13850TIP3   OH262964   0.320   2.673  17.198 -0.6183  0.6688 -0.1850
13850TIP3    H162965   0.404   2.640  17.166 -1.3004  0.2525 -1.5701
13850TIP3    H262966   0.297   2.743  17.136 -0.1677  2.3973  1.5319
13851TIP3   OH262967   0.506   1.648   4.203  0.6784  0.2503 -0.0975
13851TIP3    H162968   0.452   1.575   4.171 -0.1809  0.5634  0.6110
13851TIP3    H262969   0.596   1.621   4.185  0.3285 -0.6696 -0.4987
13852TIP3   OH262970   6.311   6.610  11.764 -0.4786  0.1112  0.1875
13852TIP3    H162971   6.331   6.566  11.847 -1.3845 -1.4436 -0.4100
13852TIP3    H262972   6.327   6.544  11.697 -1.8462  0.6957 -0.7349
13853TIP3   OH262973   3.694   6.483  13.688 -0.1030 -0.5013 -0.9670
13853TIP3    H162974   3.676   6.521  13.601 -2.3801 -1.3101 -0.9008
13853TIP3    H262975   3.624   6.419  13.700 -0.7711  0.7590  2.1674
13854TIP3   OH262976   4.609   1.927   2.532  0.1208 -0.2361 -0.1577
13854TIP3    H162977   4.635   1.913   2.623  1.0590 -1.0802 -0.5513
13854TIP3    H262978   4.628   1.844   2.488  0.9570  0.6137 -1.4167
13855TIP3   OH262979   4.425   3.899   2.562  0.0093  0.0437  0.4734
13855TIP3    H162980   4.500   3.880   2.506  0.0186  0.7211  0.2556
13855TIP3    H262981   4.407   3.816   2.607  0.4973 -0.2853  0.0639
13856TIP3   OH262982   5.673   5.560  16.478 -0.1488 -0.7757  0.2932
13856TIP3    H162983   5.670   5.547  16.383  1.6030  2.1832 -0.2345
13856TIP3    H262984   5.766   5.555  16.500 -0.3157  0.8551  1.4658
13857TIP3   OH262985   1.422   4.718  15.760 -0.0760  0.1914 -0.7448
13857TIP3    H162986   1.494   4.655  15.771 -0.3001 -0.2021 -1.5042
13857TIP3    H262987   1.445   4.790  15.819 -0.4914 -1.1707  1.1645
13858TIP3   OH262988   4.032   4.322  16.780 -0.0757 -0.0745 -0.0837
13858TIP3    H162989   3.936   4.316  16.777 -0.0849 -0.0128  0.0787
13858TIP3    H262990   4.049   4.403  16.827  0.0526  0.2896 -0.7457
13859TIP3   OH262991   6.454   3.952  16.191 -0.1606 -0.5450  0.1501
13859TIP3    H162992   6.500   3.868  16.195 -0.5017 -0.6917  1.2677
13859TIP3    H262993   6.363   3.930  16.209 -0.0118  0.2447  1.9584
13860TIP3   OH262994   4.775   4.528   2.061 -0.4882  0.1967 -0.2313
13860TIP3    H162995   4.732   4.516   2.146  0.5577 -0.3141  0.2415
13860TIP3    H262996   4.789   4.439   2.029 -0.8469  0.3873 -0.9340
13861TIP3   OH262997   0.057   3.200  13.992  0.2039 -0.2759 -0.2146
13861TIP3    H162998   0.057   3.293  13.970  1.5537 -0.3204 -0.4309
13861TIP3    H262999  -0.022   3.188  14.044  0.5383  1.2023  0.6693
13862TIP3   OH263000   2.509   3.721  17.206  0.4690 -0.2520  0.0494
13862TIP3    H163001   2.446   3.727  17.134  0.2188 -0.7733  0.2171
13862TIP3    H263002   2.454   3.721  17.285  0.5012 -2.8849  0.1289
13863TIP3   OH263003   4.980   3.091  15.465  0.1181  0.2019 -0.7338
13863TIP3    H163004   5.009   3.001  15.450  0.3339  0.2225 -0.4595
13863TIP3    H263005   5.017   3.113  15.551 -1.9045 -0.2691  0.2985
13864TIP3   OH263006   3.569   2.907   0.946 -0.4121  0.0756 -0.0214
13864TIP3    H163007   3.624   2.985   0.955  0.0861 -0.4842  1.9102
13864TIP3    H263008   3.490   2.927   0.997  1.2763 -2.0727  3.6011
13865TIP3   OH263009   3.632   3.458  15.556  0.6721 -0.3749 -0.0617
13865TIP3    H163010   3.697   3.417  15.498  1.1068 -0.6151  0.5871
13865TIP3    H263011   3.651   3.552  15.550  0.4146 -0.3614 -0.6687
13866TIP3   OH263012   2.362   5.882  16.293  0.8924 -0.5098 -0.4824
13866TIP3    H163013   2.331   5.887  16.203 -1.3889  0.4449  0.3044
13866TIP3    H263014   2.352   5.790  16.317 -1.5073 -0.2385 -0.2466
13867TIP3   OH263015   4.380   0.257  12.013 -0.3950 -0.2262  0.1622
13867TIP3    H163016   4.415   0.346  12.017  0.5521 -0.5827  0.1229
13867TIP3    H263017   4.308   0.262  11.950  0.2694  0.3177 -0.5644
13868TIP3   OH263018   0.271   2.515  16.792 -0.1637  0.1853  0.1855
13868TIP3    H163019   0.341   2.578  16.779 -0.6684  0.8304  0.5621
13868TIP3    H263020   0.315   2.434  16.816  0.6048 -0.1351 -2.2000
13869TIP3   OH263021   0.941   5.366   3.632 -0.2339 -0.7398 -0.0706
13869TIP3    H163022   0.981   5.422   3.565 -0.8308  0.6500  0.7186
13869TIP3    H263023   0.850   5.394   3.636  0.2972  0.7656  2.9127
13870TIP3   OH263024   6.218   3.806  13.354  0.2111 -0.1582  0.0455
13870TIP3    H163025   6.267   3.835  13.277 -0.1891  1.1690  0.2732
13870TIP3    H263026   6.127   3.831  13.335 -0.3802 -2.5167 -0.3331
13871TIP3   OH263027   2.254   3.481   3.740 -0.5684 -0.1678 -0.3563
13871TIP3    H163028   2.292   3.487   3.828 -1.5471  2.3675 -0.0800
13871TIP3    H263029   2.275   3.392   3.711  1.8776 -0.2257  1.4682
13872TIP3   OH263030   1.293   3.772  11.899 -0.4551 -0.0370 -0.3736
13872TIP3    H163031   1.329   3.758  11.987 -1.2113 -1.0525 -0.2152
13872TIP3    H263032   1.239   3.695  11.883 -0.9481  0.5196 -1.4201
13873TIP3   OH263033   2.376   3.382  11.285 -0.1580 -0.1571 -0.0409
13873TIP3    H163034   2.390   3.352  11.375  0.3174 -0.6460 -0.2750
13873TIP3    H263035   2.320   3.314  11.246  0.1787 -0.2798 -0.3078
13874TIP3   OH263036   4.416   4.977   4.787  0.7493  0.2706 -0.2886
13874TIP3    H163037   4.503   4.968   4.749  0.5586  1.4801 -1.0311
13874TIP3    H263038   4.431   4.982   4.881  1.3097 -1.5818 -0.2659
13875TIP3   OH263039   5.815   5.080   3.312  0.6555 -0.6596 -0.1526
13875TIP3    H163040   5.793   5.044   3.398  0.8317  0.1877  0.2506
13875TIP3    H263041   5.747   5.045   3.254  0.4395 -1.1013  0.3571
13876TIP3   OH263042   2.885   4.625  14.884  0.1845 -0.5366 -0.6033
13876TIP3    H163043   2.831   4.654  14.958  0.9393 -0.9411  0.1058
13876TIP3    H263044   2.822   4.608  14.814 -0.4478  0.8731 -0.3990
13877TIP3   OH263045   5.674   1.758  15.620  0.3348  0.3352 -1.0614
13877TIP3    H163046   5.676   1.728  15.710 -1.3896 -0.1971 -1.1861
13877TIP3    H263047   5.728   1.837  15.620  1.5705 -0.4835  0.1072
13878TIP3   OH263048   2.698   4.026  12.350 -0.3769  0.5466  0.5546
13878TIP3    H163049   2.680   3.961  12.418 -2.4229  1.0577  0.5380
13878TIP3    H263050   2.636   4.005  12.280  1.4079  0.3086 -0.9771
13879TIP3   OH263051   0.879   1.661  11.325 -0.2654 -0.2111  0.5565
13879TIP3    H163052   0.912   1.586  11.375 -0.2971 -0.8156 -0.3190
13879TIP3    H263053   0.783   1.651  11.328 -0.2490 -0.6297 -0.1929
13880TIP3   OH263054   0.081   2.630  15.440  0.7479 -0.5170 -0.2773
13880TIP3    H163055   0.148   2.697  15.447 -0.1201  0.4015 -0.6610
13880TIP3    H263056   0.124   2.550  15.469  1.5831  0.3398  0.8939
13881TIP3   OH263057   2.813   3.663   1.494  0.1272 -0.3261  0.3409
13881TIP3    H163058   2.897   3.708   1.486  0.8181 -1.5936  0.3790
13881TIP3    H263059   2.767   3.712   1.562  0.8137  0.4020  0.3006
13882TIP3   OH263060   6.760   3.721  10.583 -0.0069  0.2907 -0.4101
13882TIP3    H163061   6.742   3.631  10.609  1.0931  0.4336  0.9178
13882TIP3    H263062   6.673   3.759  10.564 -0.6424 -0.4985  0.8604
13883TIP3   OH263063   3.871   2.307   4.844 -0.1967  0.4696 -0.2576
13883TIP3    H163064   3.901   2.349   4.924  0.8413 -0.0630 -0.3677
13883TIP3    H263065   3.890   2.215   4.857  1.5755  0.5933 -1.8234
13884TIP3   OH263066   3.846   1.843   4.270 -0.7799 -0.7962 -0.3800
13884TIP3    H163067   3.856   1.747   4.271 -0.3445 -0.7814 -1.8573
13884TIP3    H263068   3.758   1.858   4.306 -0.3479 -1.6728  1.0610
13885TIP3   OH263069   0.458   2.654  11.474  0.5611  0.2488 -0.6392
13885TIP3    H163070   0.511   2.605  11.412  0.8636  1.0654 -1.0391
13885TIP3    H263071   0.368   2.625  11.457  0.6267  0.5425 -1.5448
13886TIP3   OH263072   0.080   1.649   4.653 -0.0760  0.0458  0.0219
13886TIP3    H163073  -0.008   1.686   4.661 -0.1612  0.1614 -1.3539
13886TIP3    H263074   0.136   1.709   4.701 -0.7503 -0.0124  0.8817
13887TIP3   OH263075   0.649   1.284  11.292 -0.0540  0.3290 -0.8558
13887TIP3    H163076   0.628   1.341  11.366  0.8177  1.6440 -1.5931
13887TIP3    H263077   0.601   1.204  11.309 -0.0538  0.6991  1.0172
13888TIP3   OH263078   2.340   5.847   2.692  0.4257 -0.4346  0.2960
13888TIP3    H163079   2.353   5.839   2.786  1.3855  1.4341  0.3405
13888TIP3    H263080   2.346   5.941   2.674 -0.5029 -0.6895 -1.5217
13889TIP3   OH263081   5.576   3.526   1.160 -0.1300  0.5156 -0.4150
13889TIP3    H163082   5.624   3.607   1.177  1.5716 -0.5466 -0.0515
13889TIP3    H263083   5.588   3.510   1.066  0.2792  0.2279 -0.3159
13890TIP3   OH263084   6.020   0.884  14.286 -0.3331  0.1009 -0.3578
13890TIP3    H163085   5.982   0.915  14.204  2.6677  0.9776 -1.4851
13890TIP3    H263086   6.043   0.963  14.334  0.4756 -0.3713  0.0627
13891TIP3   OH263087   4.045   2.547   5.342 -0.0145 -0.0349 -0.4145
13891TIP3    H163088   3.990   2.469   5.354 -1.9328  1.4252  0.7560
13891TIP3    H263089   4.134   2.515   5.351 -0.7326 -2.2070 -0.5891
13892TIP3   OH263090   3.242   4.604  14.880 -0.5912  0.0289 -0.5701
13892TIP3    H163091   3.246   4.668  14.809 -0.6138  0.3344 -0.2942
13892TIP3    H263092   3.318   4.624  14.935 -1.7887  1.2211  0.7068
13893TIP3   OH263093   3.937   1.165  16.840  0.5435  0.5038  0.0532
13893TIP3    H163094   3.900   1.252  16.828 -0.7297  0.4848  3.2844
13893TIP3    H263095   4.016   1.180  16.892  0.9864 -0.1383 -0.4420
13894TIP3   OH263096   0.288   6.128  13.426 -0.2930 -0.0923  0.0532
13894TIP3    H163097   0.274   6.033  13.433 -2.4383  0.3628  2.5803
13894TIP3    H263098   0.278   6.146  13.332 -0.5351 -2.2539 -0.3722
13895TIP3   OH263099   1.226   2.620  10.414  0.3925 -0.3955  0.7518
13895TIP3    H163100   1.281   2.612  10.492  0.2751 -2.5126  0.6372
13895TIP3    H263101   1.272   2.569  10.347  0.0585  0.7110 -0.3386
13896TIP3   OH263102   1.200   5.283  11.540  0.2326 -0.0073  0.5338
13896TIP3    H163103   1.173   5.318  11.626  0.3960 -0.6949  0.8645
13896TIP3    H263104   1.295   5.272  11.548  0.4948  1.5179 -0.3054
13897TIP3   OH263105   1.006   0.850   2.113  0.6180  0.2188  0.6350
13897TIP3    H163106   0.923   0.887   2.084  0.2409 -0.3078  1.0394
13897TIP3    H263107   0.987   0.812   2.199  0.9725 -0.9695  0.2069
13898TIP3   OH263108   4.262   0.362  16.760  0.5766 -0.3353  0.4097
13898TIP3    H163109   4.236   0.449  16.729 -1.6522 -0.8966  0.6206
13898TIP3    H263110   4.250   0.305  16.684  2.3096 -0.4324  0.1876
13899TIP3   OH263111   4.563   0.862  11.798 -0.0075 -0.3371 -0.0146
13899TIP3    H163112   4.539   0.949  11.830  0.2199 -0.3120  0.0845
13899TIP3    H263113   4.657   0.854  11.815 -0.2976 -1.1554  1.2715
13900TIP3   OH263114   2.750   3.095  13.511  0.1171  0.0696 -0.2238
13900TIP3    H163115   2.770   3.029  13.578  0.9686  0.0115 -0.5292
13900TIP3    H263116   2.687   3.154  13.553  0.3202 -0.2134  0.4788
13901TIP3   OH263117   5.872   0.377   0.804 -0.5769 -0.1298  0.3749
13901TIP3    H163118   5.784   0.351   0.831 -0.6652 -0.3562 -0.1278
13901TIP3    H263119   5.871   0.370   0.708  0.1268 -0.5727  0.3959
13902TIP3   OH263120   4.444   3.171  13.994 -0.6029 -0.8736  0.0985
13902TIP3    H163121   4.472   3.200  13.907  1.2147 -0.2560  0.8749
13902TIP3    H263122   4.433   3.076  13.986 -1.1335 -0.7302 -0.9760
13903TIP3   OH263123   3.045   4.620   1.467 -0.1610 -0.3196 -0.0449
13903TIP3    H163124   3.079   4.633   1.555  2.0236  0.6279 -0.9870
13903TIP3    H263125   2.956   4.655   1.469  0.4055  1.0567  1.3977
13904TIP3   OH263126   5.260   1.289  13.007 -0.0531 -0.9318 -0.3207
13904TIP3    H163127   5.282   1.315  12.918 -0.7257  0.3083 -0.1235
13904TIP3    H263128   5.323   1.219  13.027  1.6888  0.4275 -0.8943
13905TIP3   OH263129   1.781   2.668  15.631  0.1781 -0.0460  0.1598
13905TIP3    H163130   1.734   2.585  15.638  1.5006 -0.8276 -0.1004
13905TIP3    H263131   1.775   2.690  15.538  0.5850 -0.3057  0.0692
13906TIP3   OH263132   3.813   4.598   4.844 -0.0079  0.5506 -0.0045
13906TIP3    H163133   3.802   4.678   4.896  0.8819 -0.0750  1.1852
13906TIP3    H263134   3.738   4.544   4.866  0.8528 -0.1146  1.4200
13907TIP3   OH263135   3.425   5.077   0.860  0.5391 -0.2165  0.4433
13907TIP3    H163136   3.474   5.024   0.923  0.5072 -1.7435 -0.7859
13907TIP3    H263137   3.483   5.151   0.842  1.5730 -0.9944  0.4926
13908TIP3   OH263138   1.697   6.613   3.269 -0.7561 -0.4484  0.4826
13908TIP3    H163139   1.692   6.551   3.342 -1.6045 -1.3497 -0.3258
13908TIP3    H263140   1.614   6.601   3.221 -0.8618  1.1895  0.2183
13909TIP3   OH263141   1.222   2.959  13.961  0.0146  0.1188 -0.2524
13909TIP3    H163142   1.271   2.911  14.028 -1.2498 -2.2091 -0.9525
13909TIP3    H263143   1.180   3.030  14.009  3.2512  1.6210  0.5320
13910TIP3   OH263144   4.965   3.163  13.059 -0.6201 -0.2252 -0.3375
13910TIP3    H163145   4.892   3.192  13.005  0.3151 -0.0741 -1.5210
13910TIP3    H263146   4.982   3.237  13.117  1.7297  1.6536 -3.3163
13911TIP3   OH263147   2.897   4.338  14.819 -0.0925 -0.3635  0.4372
13911TIP3    H163148   2.918   4.426  14.850  1.3189 -0.8499  0.8916
13911TIP3    H263149   2.968   4.316  14.758 -1.4542 -0.4509 -1.1425
13912TIP3   OH263150   5.127   1.701  11.616 -0.2779 -0.0031 -0.2275
13912TIP3    H163151   5.164   1.728  11.532  2.2547 -2.8886 -0.1358
13912TIP3    H263152   5.119   1.782  11.667 -1.5332  1.7233 -3.0873
13913TIP3   OH263153   4.855   6.403  11.708  0.8341 -0.1988 -0.2500
13913TIP3    H163154   4.842   6.452  11.626 -0.3939 -0.0043  0.0464
13913TIP3    H263155   4.927   6.449  11.752 -0.7287  1.7958  0.3298
13914TIP3   OH263156   2.832   6.515  14.624  0.4006  0.1484  0.0559
13914TIP3    H163157   2.772   6.524  14.550  0.6557 -0.8271 -0.2780
13914TIP3    H263158   2.841   6.420  14.636  0.0078  0.2853  1.6206
13915TIP3   OH263159   6.226   0.344  14.461  0.5598 -0.5486  0.0083
13915TIP3    H163160   6.193   0.365  14.374  2.8800  0.2290 -0.7138
13915TIP3    H263161   6.294   0.278  14.446  0.2886 -1.1644  1.3424
13916TIP3   OH263162   1.153   2.288   2.689  0.5254 -0.0412 -0.5184
13916TIP3    H163163   1.188   2.247   2.768  1.1849  0.4137 -0.5771
13916TIP3    H263164   1.095   2.357   2.722  0.8931  0.2265 -0.4378
13917TIP3   OH263165   3.503   1.333  12.361 -0.3824 -0.3264 -0.6927
13917TIP3    H163166   3.445   1.396  12.406  0.1755 -0.3744  0.1083
13917TIP3    H263167   3.495   1.355  12.269 -1.0793  0.1803 -0.5188
13918TIP3   OH263168   2.822   4.669  15.972  0.4989  0.4704 -0.5495
13918TIP3    H163169   2.822   4.577  15.997  1.2632  0.6315  0.0430
13918TIP3    H263170   2.856   4.669  15.882  0.4893  0.1822 -0.5556
13919TIP3   OH263171   5.737   3.688   0.894  0.0789 -0.3546  0.2361
13919TIP3    H163172   5.784   3.649   0.968  2.9832  1.7758 -0.4037
13919TIP3    H263173   5.713   3.776   0.925 -0.3342 -0.1395 -0.6844
13920TIP3   OH263174   2.429   5.027  12.723 -0.1382  0.0886 -0.1575
13920TIP3    H163175   2.411   4.934  12.712  1.2958 -0.0793 -1.2078
13920TIP3    H263176   2.424   5.042  12.817  0.1783 -1.1703  0.0665
13921TIP3   OH263177   4.180   6.134   2.831 -0.1982  0.0002 -0.0872
13921TIP3    H163178   4.238   6.091   2.768 -0.2021  1.4530 -1.0972
13921TIP3    H263179   4.207   6.098   2.916  1.8840  0.3134 -0.5818
13922TIP3   OH263180   5.715   4.937  11.484  0.0588 -0.1434 -0.1825
13922TIP3    H163181   5.681   5.022  11.512  1.1783  0.2428  0.0498
13922TIP3    H263182   5.712   4.883  11.563 -1.5342 -0.6253 -0.5527
13923TIP3   OH263183   5.270   4.581   5.871  0.2640  0.2594  0.0972
13923TIP3    H163184   5.318   4.637   5.933 -0.3421 -0.0183  0.8334
13923TIP3    H263185   5.182   4.619   5.868  0.6003  0.9667 -1.4984
13924TIP3   OH263186   6.293   4.435  15.647  0.0834 -0.2902 -0.2979
13924TIP3    H163187   6.294   4.530  15.640 -0.7079 -0.4897 -3.5882
13924TIP3    H263188   6.385   4.409  15.641  0.3126  0.2552  0.7545
13925TIP3   OH263189   4.252   5.364   0.521 -0.5458  0.3188 -0.2515
13925TIP3    H163190   4.199   5.438   0.551 -1.6170 -0.2872 -0.6686
13925TIP3    H263191   4.336   5.404   0.499 -0.6424  1.1964  0.8893
13926TIP3   OH263192   6.362   0.618   4.863  0.0471  0.0493 -0.1352
13926TIP3    H163193   6.438   0.604   4.918 -0.2618 -1.1040  0.0173
13926TIP3    H263194   6.316   0.533   4.863 -1.8947  1.0587  0.7864
13927TIP3   OH263195   0.144   3.013   4.095  0.1126  0.3759  0.2045
13927TIP3    H163196   0.182   2.956   4.029  0.3526 -1.0404  1.5311
13927TIP3    H263197   0.073   2.961   4.134 -0.5388  1.4793  0.5357
13928TIP3   OH263198   4.634   5.820  12.127  0.5459 -0.0386  0.3795
13928TIP3    H163199   4.680   5.900  12.102  1.5354 -1.1034 -1.3357
13928TIP3    H263200   4.699   5.768  12.174  0.4817 -0.6396 -0.1797
13929TIP3   OH263201   2.373   5.541   1.833 -0.2673 -0.3699  0.0038
13929TIP3    H163202   2.329   5.625   1.819  0.5785 -0.2914 -2.4542
13929TIP3    H263203   2.460   5.565   1.866  0.1448 -0.2436 -1.1564
13930TIP3   OH263204   6.035   2.256   3.290 -0.6315 -0.4088 -0.0678
13930TIP3    H163205   5.967   2.282   3.352 -0.1123 -1.4480  0.9596
13930TIP3    H263206   6.083   2.186   3.335  1.5660  0.7913 -0.4860
13931TIP3   OH263207   2.607   3.964  16.978  0.5337 -0.0962 -0.0329
13931TIP3    H163208   2.533   3.945  16.921  0.4749  0.3795 -0.1199
13931TIP3    H263209   2.671   4.006  16.921  1.5739 -2.0226 -0.3291
13932TIP3   OH263210   6.026   5.774  13.661  0.3826 -0.1989 -0.5107
13932TIP3    H163211   5.979   5.808  13.585  1.2229  2.1802 -0.0301
13932TIP3    H263212   6.049   5.853  13.711  4.1406 -1.3355 -0.3294
13933TIP3   OH263213   1.509   2.185   0.667 -0.1762 -0.1273 -0.2489
13933TIP3    H163214   1.439   2.224   0.614 -1.2512 -2.2737 -0.4815
13933TIP3    H263215   1.482   2.200   0.757 -0.3302  0.1450 -0.3398
13934TIP3   OH263216   1.193   1.050   5.867 -0.3007 -0.8486  0.0119
13934TIP3    H163217   1.207   1.083   5.956  1.3638 -1.6740  0.0964
13934TIP3    H263218   1.219   0.957   5.873  1.9786 -0.3677 -1.8194
13935TIP3   OH263219   1.708   5.713  12.440  0.0017 -0.3504  0.2044
13935TIP3    H163220   1.691   5.680  12.528  0.7491 -1.1385  0.0584
13935TIP3    H263221   1.677   5.803  12.443  0.3100 -0.2637  1.3774
13936TIP3   OH263222   0.661   0.162   6.014 -0.4517  0.6516  0.4481
13936TIP3    H163223   0.595   0.132   6.077  0.5524  0.8496  1.6052
13936TIP3    H263224   0.611   0.214   5.951 -1.7520 -1.0621  0.0348
13937TIP3   OH263225   6.308   1.505  16.518 -0.1719 -0.4282  0.5468
13937TIP3    H163226   6.383   1.514  16.577 -0.0292  2.0562  0.0345
13937TIP3    H263227   6.332   1.556  16.440 -0.9323 -2.5232 -1.1290
13938TIP3   OH263228   6.258   4.582  10.584 -0.3441  0.1765 -0.2665
13938TIP3    H163229   6.267   4.667  10.542  2.3357  0.4831  0.7691
13938TIP3    H263230   6.251   4.603  10.678 -0.5702 -0.6873 -0.0889
13939TIP3   OH263231   0.668   0.419   4.299 -0.0855  0.3369 -0.3504
13939TIP3    H163232   0.715   0.385   4.222 -0.4050 -0.3672 -0.2325
13939TIP3    H263233   0.577   0.395   4.284 -0.2169  0.6007  0.0289
13940TIP3   OH263234   0.727   0.948   3.360 -0.4082 -0.2182 -0.0683
13940TIP3    H163235   0.822   0.958   3.372 -0.4248 -2.0190  1.8161
13940TIP3    H263236   0.700   1.028   3.314  1.7261  1.1783  1.0229
13941TIP3   OH263237   4.372   0.177   3.248  0.1885  0.2365  0.1873
13941TIP3    H163238   4.419   0.261   3.249 -0.7432  0.7685  0.0445
13941TIP3    H263239   4.282   0.200   3.271 -0.0216 -0.7646  0.3837
13942TIP3   OH263240   2.000   0.004   3.891 -0.3866  0.1197 -0.6062
13942TIP3    H163241   2.000   0.033   3.799 -0.8132  2.1700  0.0079
13942TIP3    H263242   2.077   0.046   3.929  0.9752 -2.4095 -0.5077
13943TIP3   OH263243   2.777   0.817  10.824 -0.0557 -0.1188 -0.2565
13943TIP3    H163244   2.819   0.774  10.749  0.7057  0.5357 -0.2078
13943TIP3    H263245   2.742   0.899  10.788  0.0303  0.0442  0.0344
13944TIP3   OH263246   2.163   6.173  14.332  0.2722  0.1508 -0.1251
13944TIP3    H163247   2.187   6.164  14.239 -0.7911  1.4529 -0.5522
13944TIP3    H263248   2.114   6.093  14.352 -0.5426  0.4129 -1.0376
13945TIP3   OH263249   4.566   5.037   1.521 -0.4386 -0.4226  0.0891
13945TIP3    H163250   4.629   5.060   1.452 -0.3457  0.1438  0.3631
13945TIP3    H263251   4.590   4.948   1.547 -0.9080 -0.9179 -1.0963
13946TIP3   OH263252   2.067   1.253  15.738 -0.0173  0.6884  0.5042
13946TIP3    H163253   2.099   1.279  15.825  0.9906  0.3897  0.2337
13946TIP3    H263254   2.145   1.218  15.694 -0.5037  0.9378 -0.5541
13947TIP3   OH263255   4.063   6.178  12.163 -0.8173 -0.2149  0.6164
13947TIP3    H163256   4.010   6.102  12.142  1.0814 -1.4835  0.3413
13947TIP3    H263257   4.126   6.147  12.227  0.4903  0.9137 -0.0877
13948TIP3   OH263258   6.681   3.473  14.004  0.3038  0.1299  0.2949
13948TIP3    H163259   6.616   3.451  13.937  1.1348 -0.1820 -0.4278
13948TIP3    H263260   6.634   3.466  14.087 -0.3411 -1.0485 -0.1547
13949TIP3   OH263261   4.684   6.032  14.397 -0.6843 -0.3095 -0.4092
13949TIP3    H163262   4.740   6.089  14.449 -0.6723  1.0392 -1.8837
13949TIP3    H263263   4.740   5.998  14.327 -1.0716 -0.9419 -0.4260
13950TIP3   OH263264   2.587   3.078   5.131  0.2950 -0.0797 -0.2682
13950TIP3    H163265   2.634   3.115   5.205  0.1285  2.3403 -1.2997
13950TIP3    H263266   2.655   3.057   5.067  0.2870 -0.3662 -0.1829
13951TIP3   OH263267   2.615   6.370  10.655 -0.2058  0.0801 -0.4611
13951TIP3    H163268   2.539   6.360  10.598 -0.0526 -1.5577 -0.3789
13951TIP3    H263269   2.648   6.281  10.669  1.4578  0.7215 -0.1308
13952TIP3   OH263270   1.548   2.148   3.022  0.0944 -0.2321 -0.1212
13952TIP3    H163271   1.616   2.172   2.960  1.5228 -0.9313  1.1580
13952TIP3    H263272   1.481   2.216   3.011  1.7238  1.4048 -0.2362
13953TIP3   OH263273   5.113   6.445   6.527  0.2798  0.6487 -0.2133
13953TIP3    H163274   5.202   6.467   6.553  0.1761  1.6032 -0.6197
13953TIP3    H263275   5.062   6.524   6.548 -0.2729  0.4820 -0.9087
13954TIP3   OH263276   5.882   3.040   0.760 -0.7445 -0.2803  0.3036
13954TIP3    H163277   5.828   3.067   0.835 -3.6208 -2.9520 -0.6862
13954TIP3    H263278   5.896   2.947   0.774  1.4130 -0.1494 -0.8783
13955TIP3   OH263279   3.265   6.357   2.940  0.0946  0.1660 -0.6442
13955TIP3    H163280   3.357   6.336   2.928  0.0617 -0.6561  0.4045
13955TIP3    H263281   3.219   6.296   2.882  0.2197  0.8200 -1.4387
13956TIP3   OH263282   4.767   3.116  12.542 -0.2666  0.3252 -0.2366
13956TIP3    H163283   4.766   3.021  12.544 -0.6180  0.3360  0.0179
13956TIP3    H263284   4.742   3.143  12.630  0.9858  0.6501  0.0426
13957TIP3   OH263285   2.275   3.800  12.260 -0.1854 -0.3893 -0.1072
13957TIP3    H163286   2.256   3.840  12.175  0.4566 -2.3624 -1.2038
13957TIP3    H263287   2.263   3.706  12.245  0.7834 -0.8193  1.7592
13958TIP3   OH263288   4.939   2.526  14.472  0.2827 -0.3116  0.2959
13958TIP3    H163289   4.986   2.605  14.447  0.3304 -0.9142 -1.5977
13958TIP3    H263290   5.006   2.457  14.468 -0.6235 -1.1019 -1.9807
13959TIP3   OH263291   2.978   5.932   0.851 -0.5239  0.5159  0.3290
13959TIP3    H163292   2.988   5.964   0.762  0.5720  1.0826  0.6418
13959TIP3    H263293   2.910   5.986   0.889 -0.6770  0.5713 -0.0256
13960TIP3   OH263294   0.134   2.347  14.234 -0.2792  0.0405 -0.0130
13960TIP3    H163295   0.201   2.383  14.292 -1.6783  2.3795  0.2245
13960TIP3    H263296   0.176   2.345  14.148  0.2428  1.0830  0.2095
13961TIP3   OH263297   0.113   3.092  11.949 -0.1265  0.5505  0.2568
13961TIP3    H163298   0.127   3.007  11.990 -1.1578  0.7969  1.1423
13961TIP3    H263299   0.195   3.110  11.901 -1.4972 -2.9142 -3.6279
13962TIP3   OH263300   0.184   2.383  15.551  0.1255 -0.0173 -0.2117
13962TIP3    H163301   0.248   2.448  15.577  1.6843 -1.3502 -0.6391
13962TIP3    H263302   0.227   2.333  15.482 -0.0919 -3.0397  1.7564
13963TIP3   OH263303   1.171   3.019  11.743 -0.6533  0.3935  0.3655
13963TIP3    H163304   1.176   3.052  11.833 -1.5418 -0.6357  0.7905
13963TIP3    H263305   1.191   2.926  11.750  0.7215  0.5802 -0.7043
13964TIP3   OH263306   4.365   0.313   5.462  0.1137 -0.0819  0.0518
13964TIP3    H163307   4.360   0.400   5.501 -0.0992 -0.7086  1.4691
13964TIP3    H263308   4.378   0.329   5.368  1.2529  1.4521  0.4552
13965TIP3   OH263309   2.887   3.041   5.230 -0.5224  0.3996  0.0092
13965TIP3    H163310   2.904   2.950   5.253  0.6342  1.0963  2.0613
13965TIP3    H263311   2.871   3.039   5.135 -1.6716 -2.0637  0.2223
13966TIP3   OH263312   0.552   6.210  11.967  0.1444 -0.0139 -0.2915
13966TIP3    H163313   0.556   6.299  12.001 -3.2750  0.5040 -1.0294
13966TIP3    H263314   0.526   6.156  12.042  0.6292 -0.1463 -0.2171
13967TIP3   OH263315   6.316   0.001  14.084 -0.0805 -0.2383  0.2195
13967TIP3    H163316   6.255   0.059  14.039  2.1003  1.5323 -0.5682
13967TIP3    H263317   6.403   0.034  14.060  1.2058 -2.6106  1.3768
13968TIP3   OH263318   2.205   0.093  13.689 -0.5398 -0.4345  0.0303
13968TIP3    H163319   2.186   0.187  13.684  0.5861 -0.1798  0.2827
13968TIP3    H263320   2.253   0.083  13.771 -0.2085 -1.1495 -0.2443
13969TIP3   OH263321   5.535   6.032  12.820  0.2180  0.3267 -0.4988
13969TIP3    H163322   5.453   6.033  12.770  0.3096  0.5233 -0.6473
13969TIP3    H263323   5.511   6.063  12.907 -0.3560 -2.0150  0.2137
13970TIP3   OH263324   3.607   2.594  14.343  0.0307 -0.2961  0.3340
13970TIP3    H163325   3.605   2.686  14.316  0.8926 -0.0519  1.0503
13970TIP3    H263326   3.515   2.568  14.348 -0.3487  1.2378  2.4414
13971TIP3   OH263327   1.508   1.530  11.262 -0.0910  0.0632  0.1190
13971TIP3    H163328   1.453   1.465  11.217  0.6491  0.2155 -1.0501
13971TIP3    H263329   1.518   1.496  11.351 -0.9197 -0.6827 -0.0650
13972TIP3   OH263330   4.738   3.377   1.689 -0.1006  0.0800 -0.4215
13972TIP3    H163331   4.650   3.414   1.685  0.5254  1.5462 -1.0083
13972TIP3    H263332   4.781   3.408   1.609  0.5583 -1.6411 -0.7574
13973TIP3   OH263333   1.503   1.277  15.557 -0.1383  0.1118 -0.3945
13973TIP3    H163334   1.446   1.348  15.587 -0.7646 -0.6411  0.2441
13973TIP3    H263335   1.495   1.210  15.625 -0.2592 -0.9348 -1.4133
13974TIP3   OH263336   2.370   0.956   0.587 -0.1064 -0.7154 -0.4003
13974TIP3    H163337   2.449   0.903   0.599 -0.3095 -0.7883  0.6252
13974TIP3    H263338   2.398   1.028   0.530  0.8400 -0.4196  0.4208
13975TIP3   OH263339   4.190   5.549   0.192 -0.5322 -0.8615  0.1892
13975TIP3    H163340   4.207   5.535   0.285 -0.0345  0.6070  0.3244
13975TIP3    H263341   4.095   5.554   0.186 -0.4796  1.5974  1.0135
13976TIP3   OH263342   2.320   2.432   5.106 -0.2759 -0.8305  0.1297
13976TIP3    H163343   2.339   2.436   5.012 -0.7893  2.5388  0.0946
13976TIP3    H263344   2.227   2.411   5.110 -0.6258  0.5744 -0.2009
13977TIP3   OH263345   4.733   3.373  16.942 -0.2714  0.2973  0.3974
13977TIP3    H163346   4.721   3.350  16.849 -1.7553 -0.0315  0.6565
13977TIP3    H263347   4.745   3.468  16.942 -1.9373  0.5204  0.0057
13978TIP3   OH263348   2.197   3.127   2.345  0.6063  0.7837 -0.0365
13978TIP3    H163349   2.260   3.097   2.411  0.3245  0.3054  0.0194
13978TIP3    H263350   2.214   3.071   2.269 -1.3549 -0.9913  0.7842
13979TIP3   OH263351   2.766   5.377  13.070  0.3793 -0.2037  0.6652
13979TIP3    H163352   2.703   5.307  13.049  0.2608  0.6731 -2.1496
13979TIP3    H263353   2.759   5.438  12.996  4.2049  0.1447  0.5214
13980TIP3   OH263354   4.867   0.254  14.079 -0.2653 -0.4417 -0.2668
13980TIP3    H163355   4.794   0.202  14.047  0.7511 -1.2980 -1.2350
13980TIP3    H263356   4.828   0.313  14.143 -1.5431 -1.9739  0.4091
13981TIP3   OH263357   1.801   3.377  16.569 -0.4874  0.8321 -0.1575
13981TIP3    H163358   1.753   3.415  16.496  0.4187  0.7577 -0.8081
13981TIP3    H263359   1.838   3.452  16.615  0.2808  0.8076 -0.7238
13982TIP3   OH263360   4.611   5.742   3.694  0.5401  0.6416  0.4730
13982TIP3    H163361   4.587   5.662   3.742 -0.8095  0.6186 -0.2210
13982TIP3    H263362   4.528   5.789   3.683  1.2051  1.7651  0.1852
13983TIP3   OH263363   3.350   3.520  10.905 -0.3212 -0.3312  1.2339
13983TIP3    H163364   3.384   3.598  10.949  1.3388 -0.0417 -0.4908
13983TIP3    H263365   3.428   3.469  10.884 -1.0694 -0.4141 -1.4403
13984TIP3   OH263366   6.091   1.427  14.566 -0.3544 -0.7266 -0.4931
13984TIP3    H163367   6.161   1.477  14.525  0.2651 -0.7592  0.5239
13984TIP3    H263368   6.128   1.340  14.580 -1.1918 -1.2857 -1.5887
13985TIP3   OH263369   0.132   6.109   4.861  0.1782  0.2368 -0.2402
13985TIP3    H163370   0.058   6.060   4.826  2.0421 -1.8457 -1.3986
13985TIP3    H263371   0.092   6.182   4.909 -2.5390  1.1203 -3.6600
13986TIP3   OH263372   3.981   5.345   4.130 -0.2847 -0.3446  0.6203
13986TIP3    H163373   4.002   5.259   4.167  1.5998  0.1740  0.8222
13986TIP3    H263374   3.957   5.398   4.206 -1.9787 -0.8189  0.4379
13987TIP3   OH263375   2.233   4.968   3.018 -0.1634  0.1053 -0.3961
13987TIP3    H163376   2.284   4.997   3.093 -2.1431  1.9754  0.2743
13987TIP3    H263377   2.278   4.889   2.988  1.8628  0.4983  1.4507
13988TIP3   OH263378   2.755   1.334   0.999 -1.0115  0.2764 -0.5242
13988TIP3    H163379   2.684   1.342   0.936  0.2539  0.8580 -1.9177
13988TIP3    H263380   2.806   1.414   0.987  0.8169 -0.8897 -0.7531
13989TIP3   OH263381   4.533   1.388   3.971 -0.4840  0.7258  0.3929
13989TIP3    H163382   4.599   1.432   4.025 -0.3433  1.1424 -0.1164
13989TIP3    H263383   4.503   1.315   4.025  3.0088 -1.7057 -0.7243
13990TIP3   OH263384   1.766   0.728  11.798  0.6506  0.6537 -0.3119
13990TIP3    H163385   1.779   0.710  11.705  1.0189  1.7046 -0.4608
13990TIP3    H263386   1.853   0.722  11.836  0.7206  1.7152 -0.2934
13991TIP3   OH263387   1.038   1.878   5.718  0.2868 -0.0264  0.0876
13991TIP3    H163388   1.040   1.809   5.651  0.8363 -0.8171  0.9129
13991TIP3    H263389   0.947   1.881   5.747  0.3203 -0.5928  0.2476
13992TIP3   OH263390   6.000   3.231  16.389 -0.3716 -0.3020  0.6232
13992TIP3    H163391   5.937   3.161  16.408 -0.8756  0.4992  2.0278
13992TIP3    H263392   5.982   3.297  16.456  0.5074  0.9016 -0.3141
13993TIP3   OH263393   0.093   4.542  15.216  0.3274 -0.0230  0.3548
13993TIP3    H163394   0.104   4.637  15.221  0.0426 -0.0158  0.9476
13993TIP3    H263395   0.176   4.507  15.250  0.0366  0.0192  1.1180
13994TIP3   OH263396   5.781   4.037   3.669 -0.8695 -0.5709  0.1161
13994TIP3    H163397   5.738   3.995   3.593 -3.0494  1.9651 -0.1278
13994TIP3    H263398   5.709   4.059   3.727  0.3714  1.5929  0.8602
13995TIP3   OH263399   1.847   2.496  14.554 -0.3877 -0.6482  0.3004
13995TIP3    H163400   1.883   2.572  14.600  1.1541 -1.3305  0.2539
13995TIP3    H263401   1.853   2.424  14.617 -1.1064 -0.9206  0.0690
13996TIP3   OH263402   5.325   0.282   2.040  0.6452  0.3479 -0.3597
13996TIP3    H163403   5.342   0.194   2.073  0.5641  0.3914 -0.2015
13996TIP3    H263404   5.229   0.288   2.036  0.5809  1.3170  2.0107
13997TIP3   OH263405   5.218   4.368   2.218  0.6231  0.2869  0.5660
13997TIP3    H163406   5.211   4.279   2.183  0.6357 -0.1691  1.7191
13997TIP3    H263407   5.168   4.422   2.156  0.0895 -0.6086  0.2078
13998TIP3   OH263408   4.216   3.560   1.639 -0.1830  0.1150  0.7889
13998TIP3    H163409   4.187   3.470   1.627  2.2255 -1.0678  3.2448
13998TIP3    H263410   4.223   3.571   1.734  3.5825  1.5101  0.4357
13999TIP3   OH263411   1.361   4.342   1.016  0.8203  0.0376  1.0237
13999TIP3    H163412   1.340   4.318   0.925  1.1062  0.1108  0.9361
13999TIP3    H263413   1.321   4.428   1.028 -0.2060 -0.4764  1.3375
14000TIP3   OH263414   1.609   3.878   4.828  0.0075  0.4226  0.0524
14000TIP3    H163415   1.613   3.801   4.772  0.8765 -0.4564  1.3012
14000TIP3    H263416   1.608   3.952   4.767  3.3692 -0.4125 -1.1233
14001TIP3   OH263417   2.081   3.684   2.140  0.3922  0.0910  0.1330
14001TIP3    H163418   2.171   3.658   2.162  1.2169  1.5667 -1.3932
14001TIP3    H263419   2.092   3.761   2.085 -1.7880 -0.4582 -1.0978
14002TIP3   OH263420   2.946   2.769   5.251  0.1580  0.0828 -0.0547
14002TIP3    H163421   2.910   2.688   5.213 -0.5639  0.2756  0.2038
14002TIP3    H263422   2.987   2.741   5.333  1.3683 -0.2739 -0.7698
14003TIP3   OH263423   4.130   1.189   4.142  0.3079 -0.4859 -0.6749
14003TIP3    H163424   4.133   1.278   4.107  3.0161 -0.0376  0.5738
14003TIP3    H263425   4.106   1.200   4.234 -1.6361 -1.2507 -1.0700
14004TIP3   OH263426   4.430   1.967  14.573  0.3902  0.4449 -0.2191
14004TIP3    H163427   4.454   1.963  14.666  0.7663  1.3617 -0.2734
14004TIP3    H263428   4.511   1.947  14.527  0.4490  1.0094 -0.3635
14005TIP3   OH263429   2.455   1.374   1.577  0.2488 -0.0206  0.1915
14005TIP3    H163430   2.475   1.317   1.503 -2.4947 -0.9881  0.1579
14005TIP3    H263431   2.422   1.455   1.537  1.6952  0.6461  0.3085
14006TIP3   OH263432   2.931   4.490  13.088 -0.0036  0.3202  0.1111
14006TIP3    H163433   2.928   4.585  13.079  1.2579  0.3121 -0.3628
14006TIP3    H263434   2.915   4.456  13.000 -1.7786  0.0645  0.5112
14007TIP3   OH263435   4.391   2.971  12.947  0.1479  0.4979 -0.3309
14007TIP3    H163436   4.459   3.022  12.991 -1.3137  0.4954  2.0245
14007TIP3    H263437   4.349   3.033  12.888  1.6068  0.7323 -1.1244
14008TIP3   OH263438   4.331   0.072  12.770  0.3692 -0.1360  0.2962
14008TIP3    H163439   4.275   0.026  12.833  1.4422 -0.6084  0.9255
14008TIP3    H263440   4.328   0.018  12.691 -1.2964  0.6620 -0.2225
14009TIP3   OH263441   6.156   3.332  13.181  0.1402  0.2718  0.4121
14009TIP3    H163442   6.116   3.277  13.248  1.2685  0.2345  1.0766
14009TIP3    H263443   6.241   3.357  13.219 -0.1525  2.0722 -0.0831
14010TIP3   OH263444   4.076   4.827  15.951 -0.5179 -0.1425  0.5739
14010TIP3    H163445   4.074   4.770  16.027 -0.8152 -0.0329  0.6493
14010TIP3    H263446   4.141   4.787  15.892 -0.9562 -0.7260  0.4883
14011TIP3   OH263447   3.371   6.373  16.202  0.6518  0.0864 -0.6502
14011TIP3    H163448   3.425   6.398  16.277  0.7472 -1.1215 -0.3140
14011TIP3    H263449   3.375   6.278  16.199 -1.2098 -0.0209 -0.8035
14012TIP3   OH263450   1.093   4.613  10.689  0.6571  0.5331  0.1050
14012TIP3    H163451   1.154   4.547  10.655  0.4853  0.7343 -0.6047
14012TIP3    H263452   1.011   4.567  10.700  0.9253  0.2694  1.0296
14013TIP3   OH263453   5.693   6.162   3.386 -0.2570  0.2705  0.5132
14013TIP3    H163454   5.628   6.232   3.382  0.2996  0.7786  0.1477
14013TIP3    H263455   5.694   6.127   3.296  1.8805  2.0437 -0.1921
14014TIP3   OH263456   2.477   3.202  12.251 -0.1179  0.4889 -0.4070
14014TIP3    H163457   2.459   3.111  12.230  0.1363  0.0650  1.1621
14014TIP3    H263458   2.570   3.203  12.276  0.0251  1.2843 -0.9240
14015TIP3   OH263459   3.336   2.885  15.548  0.0562  0.0278  0.0273
14015TIP3    H163460   3.391   2.961  15.529  1.5601 -0.6971  1.3948
14015TIP3    H263461   3.388   2.810  15.519 -1.3534 -0.5205 -1.1781
14016TIP3   OH263462   0.059   2.935   2.356  0.3517 -0.4143  0.2732
14016TIP3    H163463   0.034   2.923   2.264  1.1751 -3.1760  0.3739
14016TIP3    H263464  -0.021   2.965   2.399 -0.0645  0.8154 -1.2963
14017TIP3   OH263465   5.560   1.587  15.865 -0.4504  0.1328 -0.3213
14017TIP3    H163466   5.572   1.501  15.825 -1.1892  0.2442 -0.7892
14017TIP3    H263467   5.566   1.571  15.959 -2.8067 -0.7909 -0.3011
14018TIP3   OH263468   2.426   5.548  13.171  0.3138  0.2612 -0.1010
14018TIP3    H163469   2.492   5.587  13.113 -0.2604  1.8629  0.2965
14018TIP3    H263470   2.447   5.582  13.258 -0.1445 -0.4006  0.2750
14019TIP3   OH263471   2.055   6.034  11.926  0.7639 -0.4076 -0.3585
14019TIP3    H163472   2.139   6.036  11.880  1.3863 -0.7795  0.7722
14019TIP3    H263473   2.077   6.047  12.018 -0.4121 -0.5484 -0.0516
14020TIP3   OH263474   1.198   0.561   4.541  0.4134 -0.0937 -0.2578
14020TIP3    H163475   1.199   0.560   4.637  1.9411  2.5857 -0.2038
14020TIP3    H263476   1.238   0.478   4.516 -0.5007 -1.0676  1.4089
14021TIP3   OH263477   3.416   6.682   3.742  0.1157  0.1364  0.5885
14021TIP3    H163478   3.406   6.677   3.647  0.3815  3.2527  0.3348
14021TIP3    H263479   3.493   6.629   3.762 -0.3106 -1.0390 -0.8580
14022TIP3   OH263480   3.727   1.751   3.461 -0.0715  0.0664 -0.3360
14022TIP3    H163481   3.685   1.666   3.447  0.5414 -0.2328 -0.3561
14022TIP3    H263482   3.794   1.756   3.392  0.4275  0.2181  0.1604
14023TIP3   OH263483   3.233   2.885   1.594  0.3776 -0.2134 -0.1120
14023TIP3    H163484   3.237   2.963   1.648 -0.9928 -0.3962  0.2824
14023TIP3    H263485   3.150   2.893   1.546 -0.3254 -1.9392  0.7641
14024TIP3   OH263486   5.432   5.743  17.239 -0.3363  0.8734 -0.2132
14024TIP3    H163487   5.510   5.717  17.190 -0.7320 -0.3996 -0.1802
14024TIP3    H263488   5.459   5.737  17.331 -0.4696  0.4438 -0.2018
14025TIP3   OH263489   5.211   0.253  15.465  0.5260 -0.4947  0.1557
14025TIP3    H163490   5.198   0.250  15.370  1.8823 -0.6559 -0.0425
14025TIP3    H263491   5.305   0.234  15.476  0.2742 -0.9370  1.5541
14026TIP3   OH263492   0.728   4.083   3.113 -0.3767 -0.1146  0.5671
14026TIP3    H163493   0.765   4.008   3.066  2.3246  1.5117  0.0020
14026TIP3    H263494   0.634   4.067   3.114 -0.0056 -2.6198 -1.1042
14027TIP3   OH263495   4.985   4.218  13.053 -0.5085 -0.1460 -0.2098
14027TIP3    H163496   4.963   4.133  13.091 -0.2245  0.2200  0.7888
14027TIP3    H263497   4.955   4.281  13.118  0.7783  0.4593 -0.1980
14028TIP3   OH263498   3.964   2.043   2.754 -0.4472 -0.0016 -0.1238
14028TIP3    H163499   3.987   2.086   2.672  1.1922  0.0425  0.3450
14028TIP3    H263500   4.041   2.054   2.810 -1.0326 -1.1863  0.9540
14029TIP3   OH263501   2.500   5.059   5.524 -0.7106  0.4575  0.3654
14029TIP3    H163502   2.590   5.026   5.526 -0.7227  0.3038 -0.8187
14029TIP3    H263503   2.500   5.135   5.582 -0.2995 -0.6912  1.9006
14030TIP3   OH263504   2.339   0.729  15.512 -0.0551  0.3867  0.3206
14030TIP3    H163505   2.261   0.723  15.567  1.3899  0.6738  2.5012
14030TIP3    H263506   2.369   0.638  15.503  0.8897  0.5347  1.8246
14031TIP3   OH263507   0.462   4.815  14.329 -0.2805 -0.3014 -0.2950
14031TIP3    H163508   0.550   4.853  14.335 -0.2299 -0.5253  0.3766
14031TIP3    H263509   0.477   4.725  14.302 -0.3007 -0.3656 -0.0905
14032TIP3   OH263510   1.429   0.442  16.501 -0.2649  0.8001 -0.0435
14032TIP3    H163511   1.490   0.421  16.572 -0.2802 -1.0664 -0.5335
14032TIP3    H263512   1.482   0.436  16.421 -1.4595 -3.0360 -0.6852
14033TIP3   OH263513   3.263   4.177  15.200  0.1953 -0.2121  0.1080
14033TIP3    H163514   3.224   4.229  15.130 -0.1522 -0.2659  0.2573
14033TIP3    H263515   3.190   4.160  15.260  0.5926  0.2150  0.7095
14034TIP3   OH263516   0.377   1.468  16.695 -0.0692 -0.3853  0.3183
14034TIP3    H163517   0.284   1.490  16.697 -0.0362 -0.2170  0.0717
14034TIP3    H263518   0.380   1.374  16.679 -0.1951 -0.3749  0.2351
14035TIP3   OH263519   3.749   3.998   1.838 -0.1420 -0.1951 -0.5786
14035TIP3    H163520   3.842   4.020   1.828  0.1015 -1.0790 -0.3545
14035TIP3    H263521   3.750   3.905   1.861 -1.1695 -0.5682 -2.0398
14036TIP3   OH263522   3.330   2.741  16.387  0.0267  0.3752 -0.1881
14036TIP3    H163523   3.382   2.806  16.339 -0.6582  0.9537 -0.1484
14036TIP3    H263524   3.309   2.784  16.470  1.7610 -0.8618  0.9324
14037TIP3   OH263525   6.351   5.600  11.465 -0.1075 -0.2395  0.5500
14037TIP3    H163526   6.333   5.669  11.529 -0.1832  0.1334  0.1310
14037TIP3    H263527   6.314   5.634  11.384  0.2435 -0.5883  0.2484
14038TIP3   OH263528   2.198   1.744  16.251  0.1948 -0.2451 -0.0942
14038TIP3    H163529   2.260   1.724  16.321  1.2548 -1.7759 -1.4435
14038TIP3    H263530   2.123   1.782  16.296  0.4899 -2.0394  1.9845
14039TIP3   OH263531   6.258   5.767  15.854  0.3241  0.0971  0.3403
14039TIP3    H163532   6.254   5.673  15.874 -1.1777 -0.1698 -1.0788
14039TIP3    H263533   6.327   5.774  15.788 -0.0633 -0.1364 -0.0985
14040TIP3   OH263534   6.679   5.080   3.831  0.1157 -0.4764  0.2994
14040TIP3    H163535   6.602   5.043   3.872 -0.1776 -0.7747 -0.5048
14040TIP3    H263536   6.731   5.004   3.803 -0.7799 -0.3191 -1.8985
14041TIP3   OH263537   5.759   2.798   1.316  0.2509  0.2414  0.3297
14041TIP3    H163538   5.716   2.836   1.239 -0.4956  0.1108  0.6740
14041TIP3    H263539   5.790   2.873   1.366  0.1968  0.3496  0.1999
14042TIP3   OH263540   4.786   2.154   4.706 -0.4064  0.1948 -0.2099
14042TIP3    H163541   4.770   2.192   4.792  2.6155 -0.4239  0.6532
14042TIP3    H263542   4.830   2.224   4.657  0.9120 -0.5898 -0.1526
14043TIP3   OH263543   3.837   4.675   3.683  0.0063 -0.3284  0.2088
14043TIP3    H163544   3.749   4.696   3.652 -0.0372  1.4971  1.4423
14043TIP3    H263545   3.823   4.628   3.766  0.1863  0.1382  0.5070
14044TIP3   OH263546   6.079   5.874   5.334  0.1241 -0.3693 -0.5753
14044TIP3    H163547   6.131   5.832   5.265  2.3790 -1.4367  1.6595
14044TIP3    H263548   6.007   5.813   5.350  1.7676 -2.0538  0.6376
14045TIP3   OH263549   0.385   3.231   0.867  0.2662 -0.6060 -0.1732
14045TIP3    H163550   0.467   3.258   0.908 -0.3312  2.5918 -0.9439
14045TIP3    H263551   0.409   3.205   0.779  0.5033  0.1381 -0.3319
14046TIP3   OH263552   1.025   2.547   1.821  0.6655  0.1896 -0.6735
14046TIP3    H163553   1.085   2.473   1.807 -0.6989 -0.6503 -2.2798
14046TIP3    H263554   0.981   2.559   1.736 -0.2048  1.8855 -0.0070
14047TIP3   OH263555   3.903   1.250  15.310  0.0301  0.2384 -0.0441
14047TIP3    H163556   3.849   1.325  15.285 -1.2220 -0.8635 -0.6836
14047TIP3    H263557   3.993   1.285  15.311 -0.5611  1.7959 -0.0799
14048TIP3   OH263558   2.608   0.729   2.050 -0.0342 -0.0167  0.1005
14048TIP3    H163559   2.546   0.788   2.008  0.0188  0.5730  0.8533
14048TIP3    H263560   2.675   0.713   1.984 -0.4731  0.1207 -0.3774
14049TIP3   OH263561   6.718   5.222  15.564  0.3228  0.0238 -0.4299
14049TIP3    H163562   6.631   5.194  15.536 -0.1527 -0.7346  1.7424
14049TIP3    H263563   6.708   5.314  15.589  0.4741  0.3431 -1.5170
14050TIP3   OH263564   4.440   3.528  17.055  0.4041 -0.4559  0.1411
14050TIP3    H163565   4.413   3.552  16.966  1.3238  0.6172  0.1401
14050TIP3    H263566   4.433   3.432  17.057 -0.2404 -0.4354 -0.8802
14051TIP3   OH263567   4.487   2.318   4.217  0.4472 -0.1916 -0.0794
14051TIP3    H163568   4.404   2.284   4.252  1.7903 -2.3119  1.1998
14051TIP3    H263569   4.483   2.412   4.232 -1.7215 -0.2675 -0.0298
14052TIP3   OH263570   3.451   2.549  16.612  0.1645  0.0050 -0.0895
14052TIP3    H163571   3.463   2.611  16.685 -1.5008  0.9090 -0.5411
14052TIP3    H263572   3.358   2.525  16.617  0.4901 -1.4078 -0.7562
14053TIP3   OH263573   4.746   3.132  15.353 -0.2309  0.1899  0.1596
14053TIP3    H163574   4.683   3.060  15.351 -0.9745  0.8294  0.1472
14053TIP3    H263575   4.821   3.097  15.401 -0.5748 -0.5978  0.1328
14054TIP3   OH263576   1.475   5.388  11.998  0.1076 -0.6138 -0.3184
14054TIP3    H163577   1.529   5.321  12.039 -0.1028 -0.6212 -0.0488
14054TIP3    H263578   1.464   5.455  12.066  1.1032  0.1493 -0.8871
14055TIP3   OH263579   5.299   5.179   3.057  0.3761 -0.6842  0.0343
14055TIP3    H163580   5.255   5.263   3.044  1.5137 -0.0169  0.4882
14055TIP3    H263581   5.392   5.198   3.044  0.6504 -1.8480  0.2614
14056TIP3   OH263582   3.273   4.458   3.270 -0.3245 -0.8255  0.6914
14056TIP3    H163583   3.236   4.545   3.284 -0.7612 -0.8904  0.0123
14056TIP3    H263584   3.341   4.471   3.203 -0.3703 -0.9959  0.6100
14057TIP3   OH263585   6.636   3.327   2.815  0.2154  0.2086 -0.3121
14057TIP3    H163586   6.574   3.275   2.866  1.1990  1.6571  2.4240
14057TIP3    H263587   6.594   3.413   2.807  1.4802  0.9331  0.8117
14058TIP3   OH263588   1.831   3.630  13.500  0.2059  0.2050  0.1681
14058TIP3    H163589   1.780   3.553  13.477  0.3079  0.5947 -1.4745
14058TIP3    H263590   1.771   3.704  13.485  0.2776  0.4816  1.2067
14059TIP3   OH263591   3.018   6.274   1.010  0.1432  0.3186  0.2441
14059TIP3    H163592   2.997   6.267   0.917 -1.7552  1.7388  0.5392
14059TIP3    H263593   2.977   6.356   1.038 -2.7073 -2.0296  3.2359
14060TIP3   OH263594   1.424   2.415  11.429 -0.4808 -0.0473 -0.1309
14060TIP3    H163595   1.458   2.497  11.394  0.7183  0.3921  2.0059
14060TIP3    H263596   1.338   2.438  11.465 -1.2454 -0.2792 -1.7585
14061TIP3   OH263597   3.956   1.978  11.358  0.9379  0.8206 -0.0565
14061TIP3    H163598   3.973   2.061  11.312 -1.5603  0.5991 -1.5141
14061TIP3    H263599   3.892   1.933  11.302  0.5541 -1.0819  1.8533
14062TIP3   OH263600   3.937   1.232  16.490 -0.6182  0.0928 -0.6417
14062TIP3    H163601   3.975   1.287  16.422  0.7647 -2.3106 -1.8824
14062TIP3    H263602   3.982   1.258  16.570  2.2216 -1.2515 -1.7216
14063TIP3   OH263603   5.304   3.605  14.812 -0.8454 -0.0446 -0.3209
14063TIP3    H163604   5.301   3.574  14.722 -2.8130 -1.2091  0.1188
14063TIP3    H263605   5.271   3.695  14.808  0.1585  0.3089 -0.8981
14064TIP3   OH263606   3.692   1.102  11.423 -0.2022  0.2379 -0.3464
14064TIP3    H163607   3.676   1.137  11.510  0.4986  1.1622 -0.5785
14064TIP3    H263608   3.703   1.180  11.368 -1.6610 -0.3235 -1.4556
14065TIP3   OH263609   2.768   6.649   3.019 -0.0900  0.0177  0.1372
14065TIP3    H163610   2.856   6.674   3.049  0.0537  1.7592 -1.6204
14065TIP3    H263611   2.741   6.721   2.961 -2.5404 -0.6593  0.3762
14066TIP3   OH263612   0.660   0.187   5.082  0.1147 -0.3913  0.0732
14066TIP3    H163613   0.604   0.189   5.005  0.0381 -1.4284  0.0911
14066TIP3    H263614   0.643   0.270   5.127  0.9560  0.7014 -1.5741
14067TIP3   OH263615   2.651   6.243  15.367 -0.1836 -0.4933 -0.3806
14067TIP3    H163616   2.564   6.278  15.347  0.0239  0.3291  0.1137
14067TIP3    H263617   2.635   6.153  15.395 -0.6622 -1.0314 -2.3642
14068TIP3   OH263618   5.160   5.739  15.525 -0.1450  0.4222 -0.2227
14068TIP3    H163619   5.109   5.751  15.605 -1.3784 -2.8172 -0.4496
14068TIP3    H263620   5.246   5.710  15.554  0.0129  1.0546 -0.0380
14069TIP3   OH263621   6.649   5.871  13.238 -0.3681  0.2491  0.1560
14069TIP3    H163622   6.717   5.823  13.285 -0.4548  0.2321  0.2646
14069TIP3    H263623   6.567   5.832  13.267 -0.4723  0.8826  0.7259
14070TIP3   OH263624   6.211   0.602  11.355 -0.0445 -0.0795 -0.8945
14070TIP3    H163625   6.147   0.612  11.285 -0.4830 -2.0016 -0.7921
14070TIP3    H263626   6.179   0.529  11.407  0.0312  1.6256  1.6146
14071TIP3   OH263627   3.632   0.560   6.604  0.1614 -0.0322  0.3430
14071TIP3    H163628   3.562   0.601   6.553 -0.4165 -0.7163  0.5585
14071TIP3    H263629   3.634   0.469   6.573  0.3118 -0.2605  1.0025
14072TIP3   OH263630   5.766   5.928  17.043  0.6262 -0.4268  0.6082
14072TIP3    H163631   5.724   5.845  17.064 -1.9730  0.4874 -0.7178
14072TIP3    H263632   5.715   5.993  17.093  0.8654  0.6480 -0.5236
14073TIP3   OH263633   4.435   2.092  15.131  0.0725 -0.6842 -0.2695
14073TIP3    H163634   4.487   2.122  15.206  0.2014 -2.0021  0.1978
14073TIP3    H263635   4.439   2.163  15.068  2.9014 -0.9589 -0.4597
14074TIP3   OH263636   4.758   5.760   0.933  0.4637  0.1715 -0.4813
14074TIP3    H163637   4.690   5.696   0.954 -0.2565  0.8244 -0.7617
14074TIP3    H263638   4.728   5.842   0.974  1.5322  0.2586  0.1510
14075TIP3   OH263639   2.623   1.796  14.718 -0.1869 -0.2123 -0.5003
14075TIP3    H163640   2.670   1.717  14.747 -0.2309 -0.5043 -1.2097
14075TIP3    H263641   2.644   1.862  14.784  0.9573 -0.4367 -0.6186
14076TIP3   OH263642   1.975   2.341   0.217  1.0311 -0.0055 -0.6275
14076TIP3    H163643   1.999   2.284   0.144 -0.1087 -1.5993  0.2025
14076TIP3    H263644   1.883   2.321   0.234  1.2014  0.5584  1.0539
14077TIP3   OH263645   4.174   5.477   3.925 -0.0496 -0.5780  0.1437
14077TIP3    H163646   4.147   5.411   3.861 -0.9356  0.2538 -0.3496
14077TIP3    H263647   4.135   5.446   4.007 -0.4157 -0.7009 -0.0729
14078TIP3   OH263648   3.885   2.387  16.576 -0.3191  0.1509  0.3936
14078TIP3    H163649   3.805   2.378  16.628  0.3224  2.2683  1.8045
14078TIP3    H263650   3.953   2.347  16.630  0.0590  0.8120  0.4053
14079TIP3   OH263651   2.766   3.937   5.408  0.0434  0.3299 -0.4393
14079TIP3    H163652   2.676   3.952   5.435 -0.0163  1.9583 -1.4465
14079TIP3    H263653   2.819   3.974   5.479 -0.0855  0.6352 -0.5026
14080TIP3   OH263654   6.304   6.705   3.585  0.0576  0.1267 -0.6001
14080TIP3    H163655   6.237   6.699   3.518 -0.3102 -0.0442 -0.2169
14080TIP3    H263656   6.341   6.792   3.574 -0.0685  0.1341 -0.9622
14081TIP3   OH263657   5.834   0.949  16.773 -0.3169 -0.0481  0.0570
14081TIP3    H163658   5.856   0.956  16.866  0.4508  0.9008 -0.1781
14081TIP3    H263659   5.797   0.861  16.763  4.6303 -2.3255  0.2881
14082TIP3   OH263660   1.872   1.086   2.032  0.1045  0.2965  0.1052
14082TIP3    H163661   1.953   1.122   2.069  0.8390  1.3049 -2.3437
14082TIP3    H263662   1.879   0.992   2.046  0.5817  0.5864  2.0150
14083TIP3   OH263663   2.228   1.285  15.356  0.4090 -0.7232 -0.4564
14083TIP3    H163664   2.243   1.301  15.263 -0.5450  0.8860 -0.3592
14083TIP3    H263665   2.133   1.292  15.366  0.6485  1.0768  0.9590
14084TIP3   OH263666   3.830   5.979   3.798  0.1092 -0.0372  0.0229
14084TIP3    H163667   3.809   5.990   3.891  0.5424 -1.0992  0.2531
14084TIP3    H263668   3.765   5.916   3.767 -1.0177  1.4924 -0.7752
14085TIP3   OH263669   6.074   5.198   5.071  0.0340 -0.3411 -0.3176
14085TIP3    H163670   5.981   5.194   5.092 -0.0028  1.8740  0.0395
14085TIP3    H263671   6.108   5.269   5.126  1.5931 -0.0223 -1.6573
14086TIP3   OH263672   4.229   4.782   1.701  0.0486  0.1215 -0.2422
14086TIP3    H163673   4.176   4.716   1.656 -0.7156  0.3211  0.3559
14086TIP3    H263674   4.265   4.835   1.630  0.2843 -0.6487 -0.7058
14087TIP3   OH263675   3.402   4.922  15.535 -0.4233 -0.6193  0.6374
14087TIP3    H163676   3.382   5.006  15.576 -0.6775 -0.9699  1.2410
14087TIP3    H263677   3.326   4.903  15.480  0.0243 -0.0326 -0.1968
14088TIP3   OH263678   0.197   5.560   2.589  0.0249  0.1319  0.3058
14088TIP3    H163679   0.135   5.590   2.655  0.9317  1.6865  0.4824
14088TIP3    H263680   0.216   5.638   2.537  0.8970 -0.5971 -0.4868
14089TIP3   OH263681   2.208   5.856  12.926 -0.1604 -0.2408 -0.1460
14089TIP3    H163682   2.134   5.907  12.894  0.2134 -0.1599 -0.8821
14089TIP3    H263683   2.240   5.905  13.002  0.8560  1.1932 -1.4662
14090TIP3   OH263684   0.741   4.807  15.318  0.1326 -0.3506 -0.5842
14090TIP3    H163685   0.795   4.882  15.291  1.1795 -0.5853  0.8200
14090TIP3    H263686   0.740   4.750  15.241  0.6039  0.3859 -1.1455
14091TIP3   OH263687   3.340   5.678  12.039  0.1289  0.0325  0.3886
14091TIP3    H163688   3.262   5.639  11.999 -0.6853  2.2832 -0.3108
14091TIP3    H263689   3.395   5.702  11.964  0.2375  0.9623  0.7603
14092TIP3   OH263690   0.664   0.549   5.682 -0.2427  0.7156 -0.1614
14092TIP3    H163691   0.738   0.495   5.709  0.4962  1.6090 -0.3734
14092TIP3    H263692   0.675   0.632   5.729 -2.6128 -0.0857  1.9423
14093TIP3   OH263693   5.394   3.117   1.819 -0.6800  0.0072  0.1157
14093TIP3    H163694   5.358   3.028   1.822  1.7774 -1.0215  0.5783
14093TIP3    H263695   5.487   3.106   1.840  0.6426  2.1438 -4.0095
14094TIP3   OH263696   2.879   3.623  13.102  0.2577  0.2622  0.0998
14094TIP3    H163697   2.790   3.589  13.087 -0.8632  2.7316  0.8511
14094TIP3    H263698   2.878   3.652  13.193  1.8165  0.3828  0.0884
14095TIP3   OH263699   6.126   3.228  10.712 -0.2759 -0.0520  0.5386
14095TIP3    H163700   6.111   3.323  10.714  0.0744  0.0335 -0.5291
14095TIP3    H263701   6.041   3.190  10.734  0.0185  0.5117  2.8064
14096TIP3   OH263702   2.330   4.999   1.515 -0.0536  0.0029  0.7370
14096TIP3    H163703   2.249   5.015   1.466 -0.8077 -0.8177  1.6841
14096TIP3    H263704   2.334   5.070   1.579  0.8721  1.0097 -0.4208
14097TIP3   OH263705   2.960   0.226  15.776  0.2396 -0.1069 -0.4122
14097TIP3    H163706   3.041   0.278  15.774 -0.1033  0.4240 -0.6831
14097TIP3    H263707   2.892   0.289  15.800 -0.0879 -0.5568 -0.1604
14098TIP3   OH263708   5.001   5.634  11.536 -0.5179 -0.2999  0.9064
14098TIP3    H163709   5.014   5.714  11.486  1.9573 -0.1796  1.6465
14098TIP3    H263710   5.090   5.610  11.565 -1.3310 -2.8774  1.3234
14099TIP3   OH263711   3.964   5.819  12.456  0.5018 -0.1201  0.5519
14099TIP3    H163712   3.938   5.756  12.390 -1.1820 -1.0062  2.0042
14099TIP3    H263713   4.034   5.776  12.505 -0.6833 -0.9424  1.5769
14100TIP3   OH263714   0.424   5.864   2.765  0.3231 -0.4517  0.3441
14100TIP3    H163715   0.330   5.850   2.755  0.4726 -0.7827 -0.8100
14100TIP3    H263716   0.436   5.959   2.761 -0.0462 -0.3695  1.3317
14101TIP3   OH263717   6.318   6.482   5.247 -0.6743  0.0134 -0.0799
14101TIP3    H163718   6.332   6.405   5.302 -0.4914  1.2121  1.5758
14101TIP3    H263719   6.395   6.486   5.191  1.1063  1.1023  2.3876
14102TIP3   OH263720   0.149   1.395  12.180 -0.4796 -0.6152  0.6092
14102TIP3    H163721   0.159   1.301  12.191 -1.4770 -0.7666  0.2988
14102TIP3    H263722   0.054   1.408  12.178 -0.3373  0.3282  0.0521
14103TIP3   OH263723   3.326   5.690   5.400 -0.4993  0.3487 -0.1624
14103TIP3    H163724   3.243   5.656   5.433 -0.6036  0.0674 -0.6936
14103TIP3    H263725   3.317   5.683   5.305  0.2784 -0.0313 -0.2090
14104TIP3   OH263726   3.845   2.872  16.310  0.4394  0.6329  0.2528
14104TIP3    H163727   3.820   2.779  16.315 -1.3941  1.0612 -0.6287
14104TIP3    H263728   3.828   2.905  16.398  2.4708 -0.1699  0.9863
14105TIP3   OH263729   2.359   1.059   3.648  0.3051 -0.6255  0.2528
14105TIP3    H163730   2.365   1.130   3.584 -2.8923  0.7479  1.4021
14105TIP3    H263731   2.438   1.069   3.702  0.5301  1.2824 -0.3829
14106TIP3   OH263732   5.004   4.821  14.902  0.3278 -0.3745  0.4131
14106TIP3    H163733   5.003   4.801  14.808 -1.4589 -3.1226  0.9621
14106TIP3    H263734   5.077   4.770  14.937  2.0213  1.8993  0.3274
14107TIP3   OH263735   6.312   1.493   1.848 -0.1636  0.5205 -0.1341
14107TIP3    H163736   6.287   1.555   1.917  0.3464  0.4902  0.0777
14107TIP3    H263737   6.301   1.407   1.888  1.0472  0.5300  0.2151
14108TIP3   OH263738   5.294   4.780   4.975 -0.1283  0.5057  0.6653
14108TIP3    H163739   5.294   4.690   5.008 -1.1559  0.8177  1.5544
14108TIP3    H263740   5.366   4.783   4.912 -0.3477 -1.0503  0.3286
14109TIP3   OH263741   0.998   4.440  11.740 -0.1256  0.0979  0.6711
14109TIP3    H163742   1.078   4.388  11.742 -1.6469 -2.5548 -1.8580
14109TIP3    H263743   0.951   4.416  11.820  0.6314  0.0260  1.0951
14110TIP3   OH263744   2.951   4.735  11.487 -0.3186 -0.3181  0.4407
14110TIP3    H163745   3.028   4.713  11.539  0.2601  1.8698  0.5388
14110TIP3    H263746   2.963   4.827  11.462 -1.8464 -0.5634 -1.3697
14111TIP3   OH263747   5.007   2.652  16.194 -0.1259  0.2981  0.7710
14111TIP3    H163748   4.919   2.615  16.205 -0.3595  0.3609 -0.7559
14111TIP3    H263749   4.999   2.741  16.226 -1.1211  0.8991 -1.0775
14112TIP3   OH263750   6.446   6.419  13.301  0.2448 -0.3137 -0.0348
14112TIP3    H163751   6.364   6.380  13.272 -0.2425 -0.1656  1.1492
14112TIP3    H263752   6.421   6.503  13.340  0.7854 -0.9670  1.7482
14113TIP3   OH263753   2.399   2.567  12.137 -0.2826 -0.2339 -0.3223
14113TIP3    H163754   2.417   2.633  12.205  0.0685 -1.0387  0.3730
14113TIP3    H263755   2.456   2.592  12.065 -2.5632  2.1864 -1.3710
14114TIP3   OH263756   3.212   2.774   0.948 -0.4088 -0.4648 -0.2595
14114TIP3    H163757   3.128   2.765   0.903 -1.2853 -0.6307  1.3980
14114TIP3    H263758   3.193   2.753   1.039  1.4706 -0.6588  0.1003
14115TIP3   OH263759   5.419   4.011   2.983  0.7878  0.0687 -0.1056
14115TIP3    H163760   5.451   3.923   2.964  0.3271  0.0666 -0.8871
14115TIP3    H263761   5.498   4.063   3.000  1.0862 -0.3815 -0.1212
14116TIP3   OH263762   3.555   3.059  11.428 -0.0848 -0.0616 -0.2867
14116TIP3    H163763   3.519   3.139  11.390  0.3830  0.1013 -0.3995
14116TIP3    H263764   3.489   2.992  11.411 -0.5644  0.3453 -0.0160
14117TIP3   OH263765   6.576   4.186   2.743  0.2303  0.0578 -0.7452
14117TIP3    H163766   6.565   4.119   2.675  1.5807 -0.1486 -0.7639
14117TIP3    H263767   6.662   4.223   2.727  0.7961 -0.3560  1.1689
14118TIP3   OH263768   3.089   6.616  14.552 -0.2834 -0.2277  0.2535
14118TIP3    H163769   3.029   6.648  14.618 -0.2574 -1.1392  0.7269
14118TIP3    H263770   3.042   6.624  14.469 -0.4142  0.6591  0.4141
14119TIP3   OH263771   1.768   6.530   0.292 -0.5871 -0.2170  0.4785
14119TIP3    H163772   1.763   6.508   0.385 -1.1471 -2.8357 -0.1317
14119TIP3    H263773   1.844   6.481   0.261  0.9657  2.4203 -0.0137
14120TIP3   OH263774   4.616   3.271  15.122 -0.7417  0.2417 -0.0798
14120TIP3    H163775   4.598   3.362  15.146  1.7570  0.6153  0.4696
14120TIP3    H263776   4.672   3.238  15.192 -3.2671 -2.3990  0.8169
14121TIP3   OH263777   2.304   4.335  12.779 -0.3955 -0.1772 -0.0487
14121TIP3    H163778   2.299   4.258  12.836 -0.6215  1.8176  2.7154
14121TIP3    H263779   2.290   4.300  12.691 -0.7004 -3.2667  1.1543
14122TIP3   OH263780   1.066   0.730   4.403 -0.4524  0.1889 -0.4971
14122TIP3    H163781   0.996   0.746   4.466  0.5082  0.2460  0.5753
14122TIP3    H263782   1.121   0.664   4.445 -0.5255 -0.7665 -1.8558
14123TIP3   OH263783   6.304   6.767   2.662  0.0576 -0.1722  0.0798
14123TIP3    H163784   6.282   6.812   2.743  1.2563  0.8168 -0.1315
14123TIP3    H263785   6.389   6.727   2.679 -0.0195 -0.5668 -0.4523
14124TIP3   OH263786   3.746   1.144   4.777  0.1171 -0.3771  0.0737
14124TIP3    H163787   3.710   1.158   4.864  2.0358 -1.0351  0.9959
14124TIP3    H263788   3.838   1.123   4.792  0.9762  1.5324 -2.2374
14125TIP3   OH263789   3.211   1.172  12.511  0.5375 -0.3168 -0.1759
14125TIP3    H163790   3.222   1.093  12.459 -0.7020  0.3824 -1.5364
14125TIP3    H263791   3.220   1.244  12.448  2.1155  0.6675  1.1138
14126TIP3   OH263792   1.467   1.080  12.004  0.1128  0.2288  0.3019
14126TIP3    H163793   1.409   1.004  12.002  1.9477 -1.2206  0.4465
14126TIP3    H263794   1.554   1.043  12.019  1.1485  2.3022 -0.4251
14127TIP3   OH263795   3.782   5.012  11.024  0.1596 -0.5460  0.4161
14127TIP3    H163796   3.711   5.045  10.969 -1.0433 -1.3515  1.4454
14127TIP3    H263797   3.819   4.939  10.975 -1.2312 -1.5809  0.8652
14128TIP3   OH263798   3.227   0.045   5.376 -0.2561  0.3824 -0.0376
14128TIP3    H163799   3.195  -0.029   5.323  1.1749 -1.1692  1.2260
14128TIP3    H263800   3.221   0.013   5.466  0.6596  1.7213  0.4947
14129TIP3   OH263801   1.264   6.689   2.731 -0.0885 -1.0624 -0.6405
14129TIP3    H163802   1.323   6.616   2.715  0.4799 -0.8430  0.4519
14129TIP3    H263803   1.253   6.730   2.645 -0.0284 -2.1247 -1.1688
14130TIP3   OH263804   5.548   1.744   3.750 -0.0899  0.2563 -0.1575
14130TIP3    H163805   5.524   1.798   3.674  0.1101 -0.7462 -0.9421
14130TIP3    H263806   5.465   1.705   3.779 -0.0829  0.2032 -0.2083
14131TIP3   OH263807   0.567   0.905   2.806  0.4006 -0.2558  0.0897
14131TIP3    H163808   0.529   0.819   2.788 -0.5177  0.3529 -0.8951
14131TIP3    H263809   0.662   0.891   2.797  0.2713 -1.2046  0.1287
14132TIP3   OH263810   5.238   6.526  14.250  0.0939  0.0807  0.4848
14132TIP3    H163811   5.144   6.530  14.271  0.1058  0.6687  0.4457
14132TIP3    H263812   5.276   6.601  14.295  0.0349  1.6613 -1.9910
14133TIP3   OH263813   4.799   2.234   5.889  0.2121  0.2395  0.0609
14133TIP3    H163814   4.758   2.173   5.950 -1.3190 -1.2952 -2.4106
14133TIP3    H263815   4.807   2.316   5.939 -2.2559 -0.5643  1.8755
14134TIP3   OH263816   1.557   3.444  11.369  0.0209 -0.3877 -0.6131
14134TIP3    H163817   1.499   3.514  11.341  0.2805  0.8544  1.8285
14134TIP3    H263818   1.608   3.482  11.441  3.3463 -1.6572 -2.1677
14135TIP3   OH263819   6.216   0.864  16.884  0.7991  0.3399  0.3852
14135TIP3    H163820   6.151   0.854  16.814  1.0187 -2.2076  0.4832
14135TIP3    H263821   6.297   0.887  16.839  0.5594  0.3525 -0.0398
14136TIP3   OH263822   0.276   1.179  13.039  0.3930 -0.0719 -0.1238
14136TIP3    H163823   0.282   1.225  12.955 -0.0334  0.1756 -0.0244
14136TIP3    H263824   0.263   1.249  13.103 -0.3391 -0.3363  0.0193
14137TIP3   OH263825   4.081   4.647  16.180 -0.5362  0.2727 -0.2285
14137TIP3    H163826   4.156   4.591  16.164 -2.1164 -2.3005  1.1044
14137TIP3    H263827   4.092   4.678  16.270 -0.2809  1.1937 -0.5642
14138TIP3   OH263828   1.865   3.947   2.272  0.7859  0.5000  0.1978
14138TIP3    H163829   1.799   3.952   2.341 -0.0055  0.6846 -0.5560
14138TIP3    H263830   1.935   4.005   2.302 -0.4801  2.2541 -0.1311
14139TIP3   OH263831   5.654   4.004  12.896  0.1495 -0.2433  0.6590
14139TIP3    H163832   5.636   3.995  12.803 -0.5675 -1.6684  0.9139
14139TIP3    H263833   5.747   3.980  12.905  0.1677 -0.2853  0.3422
14140TIP3   OH263834   1.735   2.616   4.161  0.4940  0.0592 -0.3222
14140TIP3    H163835   1.761   2.530   4.128  1.2194  0.5496 -1.0650
14140TIP3    H263836   1.726   2.670   4.082  0.5356  0.7977  0.1702
14141TIP3   OH263837   2.587   2.202  14.566 -0.7942 -0.5387 -0.9224
14141TIP3    H163838   2.558   2.124  14.519 -2.1598 -0.9163  0.4974
14141TIP3    H263839   2.636   2.169  14.641 -0.7639 -0.0240 -0.7119
14142TIP3   OH263840   4.110   2.775  10.859  0.1779  0.2925  0.1464
14142TIP3    H163841   4.052   2.841  10.820  2.0888  2.6420  1.1555
14142TIP3    H263842   4.106   2.792  10.953 -1.3584 -2.8186  0.7030
14143TIP3   OH263843   3.244   1.736  14.940 -0.1589 -0.2405 -0.0969
14143TIP3    H163844   3.222   1.791  14.866 -0.0642 -0.0560  0.0142
14143TIP3    H263845   3.208   1.650  14.917  0.4405 -0.3463 -0.6403
14144TIP3   OH263846   5.101   3.386  12.764 -0.2128  0.3986 -0.1966
14144TIP3    H163847   5.033   3.353  12.705  1.4043  0.1881 -1.9780
14144TIP3    H263848   5.129   3.309  12.813  0.9680 -0.1689 -1.7334
14145TIP3   OH263849   5.568   4.759  16.458  0.4165  0.1844 -0.1965
14145TIP3    H163850   5.601   4.687  16.404  0.4341 -0.4400  0.6328
14145TIP3    H263851   5.485   4.726  16.493  1.1243 -0.0030  1.3536
14146TIP3   OH263852   4.974   5.680  16.085  0.5535 -0.6201  0.4131
14146TIP3    H163853   4.952   5.685  16.178 -1.0547  0.3467  0.0075
14146TIP3    H263854   5.006   5.768  16.063 -1.6234 -0.0199 -0.5231
14147TIP3   OH263855   4.759   5.580   4.726 -0.1880 -0.0814  0.0761
14147TIP3    H163856   4.828   5.604   4.665 -0.2805 -1.3981 -0.5489
14147TIP3    H263857   4.798   5.514   4.782 -2.0689 -3.7469 -2.7521
14148TIP3   OH263858   6.265   4.342  15.165  0.0360 -0.1832 -0.1060
14148TIP3    H163859   6.313   4.284  15.224 -0.2352  0.1323  0.4339
14148TIP3    H263860   6.183   4.360  15.212 -0.4365 -0.4030 -0.8375
14149TIP3   OH263861   0.160   6.333   4.218 -0.3529 -0.0614 -0.2500
14149TIP3    H163862   0.157   6.429   4.217  1.1165  0.0224  1.1329
14149TIP3    H263863   0.078   6.306   4.177 -1.2868  1.7892  0.3426
14150TIP3   OH263864   1.294   1.679   5.862  0.2280 -0.2202 -0.0772
14150TIP3    H163865   1.227   1.628   5.908  1.1028  0.1947  1.7183
14150TIP3    H263866   1.374   1.666   5.914  1.0588  0.8897 -1.0551
14151TIP3   OH263867   1.113   6.459  16.100 -0.8787  0.3186  1.3464
14151TIP3    H163868   1.027   6.498  16.116 -0.7500  0.3992  1.8634
14151TIP3    H263869   1.131   6.408  16.179 -0.9856 -0.6733  0.7317
14152TIP3   OH263870   0.296   5.225  15.870 -0.5540  0.1447 -0.0228
14152TIP3    H163871   0.235   5.255  15.938 -0.4606 -0.6547  0.4089
14152TIP3    H263872   0.272   5.134  15.854 -0.5246  0.2965 -1.0151
14153TIP3   OH263873   3.675   4.110  12.051 -0.0134  0.2435 -0.2136
14153TIP3    H163874   3.625   4.058  12.114 -0.1933 -0.0052 -0.5617
14153TIP3    H263875   3.669   4.200  12.084 -0.7793  0.2297 -0.3209
14154TIP3   OH263876   2.701   3.833  15.102 -0.4732 -0.4817 -0.0928
14154TIP3    H163877   2.700   3.900  15.171 -1.4702 -1.6431  1.0317
14154TIP3    H263878   2.625   3.854  15.048  0.1927  0.3060 -0.7490
14155TIP3   OH263879   4.280   1.913  13.410  0.6031 -0.1152  0.0397
14155TIP3    H163880   4.262   1.906  13.504  0.3110  1.2696  0.1045
14155TIP3    H263881   4.219   1.852  13.369  0.5409 -0.5240  0.7382
14156TIP3   OH263882   1.077   3.912  14.947  0.6791 -0.2882  0.4144
14156TIP3    H163883   1.154   3.874  14.905  2.1312  1.2465  1.6416
14156TIP3    H263884   1.107   3.940  15.033 -1.0082  1.1506  0.5713
14157TIP3   OH263885   2.777   0.476   2.871 -0.3181  0.5822  0.3837
14157TIP3    H163886   2.753   0.385   2.857 -0.1063  0.3881  1.2687
14157TIP3    H263887   2.800   0.509   2.784  1.4228 -0.7236  0.3275
14158TIP3   OH263888   1.924   5.773   2.255  0.1718  0.0607  0.1727
14158TIP3    H163889   2.009   5.815   2.243  0.6389 -1.3319 -1.4540
14158TIP3    H263890   1.942   5.696   2.308  0.1048 -0.9025 -1.2062
14159TIP3   OH263891   4.555   1.984   2.232 -0.4998 -0.4181 -0.1655
14159TIP3    H163892   4.588   2.027   2.153  2.1516 -1.9674  0.0492
14159TIP3    H263893   4.628   1.985   2.293 -1.7543 -1.3807  1.4056
14160TIP3   OH263894   5.938   2.666  13.256 -0.4314 -0.3400  0.1496
14160TIP3    H163895   5.878   2.629  13.321  1.4482 -1.5854  1.1997
14160TIP3    H263896   6.005   2.599  13.243  1.3245  1.4255 -0.2267
14161TIP3   OH263897   3.677   5.220   3.418 -0.1997  0.3556  0.3887
14161TIP3    H163898   3.744   5.164   3.380 -1.0463 -0.7216  0.4631
14161TIP3    H263899   3.646   5.273   3.345  1.7399  1.9233  0.6411
14162TIP3   OH263900   6.106   4.411   0.519 -0.0520 -0.4467 -0.8170
14162TIP3    H163901   6.040   4.435   0.585 -0.0123  1.0757 -1.3106
14162TIP3    H263902   6.181   4.380   0.570 -0.7095 -1.0727 -0.2155
14163TIP3   OH263903   3.075   6.413  12.441 -0.0487  0.0146  0.2455
14163TIP3    H163904   3.149   6.394  12.383  0.9869  0.2062  1.4828
14163TIP3    H263905   3.059   6.331  12.487  0.0228  0.2368  0.6716
14164TIP3   OH263906   1.159   4.763   0.211 -0.2181 -0.3318  0.1724
14164TIP3    H163907   1.207   4.712   0.277  0.0362 -0.1914  0.0959
14164TIP3    H263908   1.216   4.762   0.134 -0.9325 -1.2781 -0.3568
14165TIP3   OH263909   2.177   0.944   4.284 -0.5381 -0.5355  0.3698
14165TIP3    H163910   2.180   0.851   4.306 -1.5536 -0.8021 -0.5734
14165TIP3    H263911   2.131   0.947   4.200  0.6810  0.6944 -0.2708
14166TIP3   OH263912   1.709   2.990   0.797  0.1228  0.9496  0.0576
14166TIP3    H163913   1.658   2.935   0.738 -0.1261  0.8331  0.3755
14166TIP3    H263914   1.794   3.000   0.754  0.3625 -0.1495  0.2517
14167TIP3   OH263915   4.025   2.209  11.235 -0.1418 -0.1379  0.0905
14167TIP3    H163916   4.062   2.165  11.158 -0.1266  0.8655 -0.4845
14167TIP3    H263917   4.029   2.302  11.213  2.2328  0.3372  2.3620
14168TIP3   OH263918   1.242   0.637   3.523 -0.6056  0.4911  0.0439
14168TIP3    H163919   1.159   0.626   3.570  0.1875  2.4088  2.0268
14168TIP3    H263920   1.224   0.607   3.434 -2.4972 -2.1554  1.2680
14169TIP3   OH263921   1.111   5.193   0.077  0.3774 -0.4639  0.4145
14169TIP3    H163922   1.081   5.133   0.145  0.8358 -0.3397  0.7191
14169TIP3    H263923   1.117   5.278   0.120 -0.2012 -0.2071  0.0002
14170TIP3   OH263924   0.538   4.605   1.024  0.5785 -0.2292 -0.7173
14170TIP3    H163925   0.595   4.593   0.948  2.4943 -0.6228  0.7372
14170TIP3    H263926   0.583   4.561   1.096 -0.4917  1.3214  0.9858
14171TIP3   OH263927   2.289   6.119   1.117  0.4680  0.3021 -0.4132
14171TIP3    H163928   2.238   6.133   1.037  2.6167 -0.5913 -1.9757
14171TIP3    H263929   2.380   6.114   1.087  1.4463  1.2550  2.2396
14172TIP3   OH263930   2.483   0.719  14.386 -0.1440  0.0012  0.3038
14172TIP3    H163931   2.393   0.752  14.380 -0.5441 -1.3089 -1.3106
14172TIP3    H263932   2.534   0.780  14.334 -0.1486  0.5751  0.9696
14173TIP3   OH263933   0.808   4.269  16.471 -0.0637 -0.0244 -0.2989
14173TIP3    H163934   0.816   4.365  16.467  0.6091 -0.0992 -0.7954
14173TIP3    H263935   0.742   4.254  16.539 -0.5786  0.8062 -0.6083
14174TIP3   OH263936   3.613   0.439   5.347 -0.3944  0.1559 -0.5449
14174TIP3    H163937   3.595   0.445   5.253 -0.5930  0.1624 -0.5066
14174TIP3    H263938   3.691   0.493   5.360  0.0336 -0.3772 -0.8170
14175TIP3   OH263939   4.157   3.902  10.765  0.3219  0.0759 -0.3429
14175TIP3    H163940   4.062   3.895  10.750  0.7109 -0.5766 -2.7060
14175TIP3    H263941   4.183   3.981  10.718  0.7648  1.0333  1.4549
14176TIP3   OH263942   6.647   3.309   0.214  0.0905 -0.4763 -0.0737
14176TIP3    H163943   6.605   3.308   0.300  0.0532 -2.0552 -0.1101
14176TIP3    H263944   6.576   3.331   0.154  0.4080  2.1388  0.4230
14177TIP3   OH263945   6.031   6.108   3.774 -0.2456  0.2010  0.4925
14177TIP3    H163946   5.993   6.154   3.699  0.5880  0.0912 -0.0098
14177TIP3    H263947   5.956   6.071   3.820 -0.7666  0.1600 -0.3676
14178TIP3   OH263948   2.891   2.798  13.237 -0.1441 -0.3797 -0.1197
14178TIP3    H163949   2.980   2.827  13.221  0.2282 -1.8855 -0.8636
14178TIP3    H263950   2.849   2.872  13.282  1.0833  0.8446 -0.9519
14179TIP3   OH263951   5.207   3.109   3.969 -0.0390  0.1471 -0.1942
14179TIP3    H163952   5.117   3.133   3.947  0.0041 -1.1760 -1.8496
14179TIP3    H263953   5.256   3.120   3.888  0.7810 -1.6240  0.0314
14180TIP3   OH263954   0.520   5.899  15.565 -0.7331  0.2918 -0.7258
14180TIP3    H163955   0.606   5.936  15.547 -0.5284  0.6601  0.9249
14180TIP3    H263956   0.530   5.805  15.548  0.1557  0.2522  0.0092
14181TIP3   OH263957   5.303   4.906  14.650  0.4034  0.3136  0.1850
14181TIP3    H163958   5.367   4.970  14.618 -0.0254  0.7063  0.1112
14181TIP3    H263959   5.223   4.926  14.601 -0.0282  0.3896  0.9262
14182TIP3   OH263960   3.853   5.843   5.063 -0.2702  0.1764 -0.1713
14182TIP3    H163961   3.894   5.929   5.057  0.7856 -0.3190 -0.2592
14182TIP3    H263962   3.881   5.809   5.148 -0.5712 -0.1320 -0.1942
14183TIP3   OH263963   4.155   0.267  17.027 -0.4683  0.5046  0.6035
14183TIP3    H163964   4.182   0.353  17.059  0.2770  1.2466 -1.9022
14183TIP3    H263965   4.215   0.248  16.954 -0.6568 -2.1150  1.0805
14184TIP3   OH263966   0.048   5.819   2.148 -0.1962 -0.2406  0.0350
14184TIP3    H163967   0.109   5.785   2.214 -0.5387 -0.5224  0.2097
14184TIP3    H263968   0.096   5.889   2.104  0.2342 -0.4284  0.2081
14185TIP3   OH263969   1.385   3.889   3.869 -0.3210  0.0943  0.2212
14185TIP3    H163970   1.393   3.933   3.953 -1.6876 -0.3290  0.5850
14185TIP3    H263971   1.320   3.821   3.883  0.5911 -1.0041 -0.7665
14186TIP3   OH263972   1.024   4.687   2.384 -0.0802 -0.1768  0.0192
14186TIP3    H163973   1.102   4.677   2.438 -0.4726 -1.3439  0.3788
14186TIP3    H263974   1.005   4.781   2.386 -0.2386 -0.2313  2.0980
14187TIP3   OH263975   3.459   0.998   5.298  0.0972  0.9439 -0.4578
14187TIP3    H163976   3.480   0.979   5.389  0.8351  0.0036 -0.8143
14187TIP3    H263977   3.458   0.912   5.255 -0.2309  1.3825 -1.3329
14188TIP3   OH263978   3.114   1.787  15.694 -0.3246  0.5140  0.6516
14188TIP3    H163979   3.081   1.697  15.701 -0.4984  0.6557  1.7667
14188TIP3    H263980   3.051   1.839  15.744  0.5385  1.0595  1.1833
14189TIP3   OH263981   0.027   6.777  15.857 -0.4410 -0.2381  0.0265
14189TIP3    H163982   0.072   6.844  15.806  0.4015 -0.4958  0.4264
14189TIP3    H263983   0.094   6.711  15.875 -0.7930 -0.2906  1.2159
14190TIP3   OH263984   4.347   1.072   5.130 -0.1355  0.3719 -0.3343
14190TIP3    H163985   4.332   1.102   5.041 -2.0101 -1.2088 -0.5841
14190TIP3    H263986   4.435   1.104   5.152  0.4625  0.5212 -2.8216
14191TIP3   OH263987   2.008   1.078  14.560  0.0874  0.3803  0.5902
14191TIP3    H163988   1.987   1.162  14.519  0.2613 -0.1504 -0.6113
14191TIP3    H263989   2.047   1.026  14.490 -0.8729 -1.0313  1.0787
14192TIP3   OH263990   0.413   4.107  10.891  0.2431  0.4613  0.0305
14192TIP3    H163991   0.492   4.119  10.943  0.2142 -1.4849  0.5832
14192TIP3    H263992   0.349   4.071  10.952 -0.6943  0.8946 -0.6794
14193TIP3   OH263993   2.423   4.424  15.140 -0.4507 -0.0332  0.1950
14193TIP3    H163994   2.484   4.402  15.070  0.9396 -1.7357  1.8801
14193TIP3    H263995   2.341   4.382  15.115 -0.1422 -0.0998 -0.7057
14194TIP3   OH263996   6.339   3.442   0.773  0.0822 -0.1383 -0.2759
14194TIP3    H163997   6.269   3.389   0.810  0.4244  1.0854  2.2103
14194TIP3    H263998   6.398   3.459   0.846  0.9317  2.1419 -1.4395
14195TIP3   OH263999   4.409   0.101  13.473  0.3894  0.2382 -0.0021
14195TIP3    H164000   4.370   0.126  13.389  0.5825 -0.2886 -0.2549
14195TIP3    H264001   4.421   0.183  13.520  0.1944  0.5277 -0.4571
14196TIP3   OH264002   4.680   0.909   1.450 -0.1058  0.1167 -0.0480
14196TIP3    H164003   4.718   0.832   1.492  1.4955  0.6529 -0.4509
14196TIP3    H264004   4.599   0.925   1.497 -0.0495 -1.3341  0.5691
14197TIP3   OH264005   3.146   5.830  11.278  0.1820 -0.0055  0.4435
14197TIP3    H164006   3.094   5.760  11.317  0.4485 -0.3911  0.1096
14197TIP3    H264007   3.218   5.785  11.233  0.1956  0.4633 -0.0118
14198TIP3   OH264008   3.232   1.196  13.716 -0.1710  0.0232 -0.4450
14198TIP3    H164009   3.190   1.169  13.797  1.2400  2.1954  1.0459
14198TIP3    H264010   3.312   1.144  13.712 -1.2646 -1.6736 -1.6162
14199TIP3   OH264011   0.168   1.643  17.202 -0.0379 -0.3426  0.6793
14199TIP3    H164012   0.148   1.736  17.190  1.0761 -0.3273 -1.3300
14199TIP3    H264013   0.083   1.602  17.220 -0.8213  0.7769 -0.3865
14200TIP3   OH264014   2.875   2.831   1.242 -0.1953  0.0299  0.0567
14200TIP3    H164015   2.795   2.840   1.190 -0.7123  1.8733  1.1375
14200TIP3    H264016   2.944   2.866   1.185 -0.6386  1.2793  0.2601
14201TIP3   OH264017   6.574   0.557  14.908  0.2167  0.4572 -0.1162
14201TIP3    H164018   6.663   0.532  14.883  0.9196  2.1519  0.5625
14201TIP3    H264019   6.543   0.485  14.962  1.8732  0.6447  1.1330
14202TIP3   OH264020   6.002   4.803   5.025 -0.1677 -0.2780 -0.1270
14202TIP3    H164021   6.058   4.820   4.950  1.0634  0.3153  0.9089
14202TIP3    H264022   6.039   4.856   5.095 -0.2465 -2.1214  1.3662
14203TIP3   OH264023   6.460   6.379   1.591  0.8868  0.2143 -0.8269
14203TIP3    H164024   6.471   6.288   1.562 -0.0185 -0.4995  0.9425
14203TIP3    H264025   6.486   6.432   1.516 -1.8663 -1.5280 -3.1339
14204TIP3   OH264026   5.525   4.741  17.191  0.1652  0.5225  0.5472
14204TIP3    H164027   5.508   4.750  17.097 -1.4628 -1.5062  0.5897
14204TIP3    H264028   5.617   4.762  17.201  0.5237  0.1473 -1.6335
14205TIP3   OH264029   2.667   2.403  15.713  0.3440  0.2585 -0.8734
14205TIP3    H164030   2.597   2.338  15.705  1.4297 -0.8407 -1.4649
14205TIP3    H264031   2.635   2.464  15.780 -0.1735 -1.5472  0.5437
14206TIP3   OH264032   5.447   5.328   0.520 -0.0303  0.4138 -0.4184
14206TIP3    H164033   5.470   5.332   0.427  1.5716 -1.1573 -0.1089
14206TIP3    H264034   5.416   5.416   0.541 -0.6052  0.7360 -2.4866
14207TIP3   OH264035   4.625   0.188  16.967 -0.1913 -0.2334 -0.2336
14207TIP3    H164036   4.593   0.223  16.884 -0.8999 -2.2172 -0.8110
14207TIP3    H264037   4.711   0.151  16.947  0.0319  0.0714  0.1273
14208TIP3   OH264038   1.373   0.382   5.946  0.4666 -0.2990  0.4040
14208TIP3    H164039   1.344   0.307   5.998  1.7605 -1.4820 -0.5268
14208TIP3    H264040   1.307   0.391   5.877  0.3736 -0.6694  0.4442
14209TIP3   OH264041   4.297   1.460   2.966  0.4585 -0.3788 -0.0782
14209TIP3    H164042   4.267   1.373   2.994  0.1026 -0.1798  0.1639
14209TIP3    H264043   4.385   1.445   2.932  0.8964 -0.6305  1.1405
14210TIP3   OH264044   4.756   4.926   5.144 -0.4700 -0.1021  0.1267
14210TIP3    H164045   4.849   4.922   5.124 -0.1422 -1.4291  1.7442
14210TIP3    H264046   4.750   4.980   5.223 -1.2422  1.2683 -0.8539
14211TIP3   OH264047   1.032   1.520   1.238  0.3407 -0.1177 -0.2643
14211TIP3    H164048   0.968   1.451   1.226  0.2853  0.0061 -0.6765
14211TIP3    H264049   1.052   1.518   1.332  0.0190 -0.4038 -0.2014
14212TIP3   OH264050   0.062   4.188   3.522  0.5034  0.2878 -0.3188
14212TIP3    H164051   0.055   4.283   3.526  0.6772  0.2689  0.6670
14212TIP3    H264052   0.142   4.167   3.571  0.8692 -0.3152 -1.1661
14213TIP3   OH264053   0.620   4.125   0.268  0.2013  0.7236 -0.4188
14213TIP3    H164054   0.563   4.202   0.273 -0.1176  0.5032 -0.6941
14213TIP3    H264055   0.580   4.069   0.202  0.3573  0.2545 -0.1184
14214TIP3   OH264056   2.700   5.254  17.055  0.2435  0.7087  0.1712
14214TIP3    H164057   2.792   5.239  17.077  0.4718  1.4945 -0.2061
14214TIP3    H264058   2.698   5.253  16.959 -0.0532  1.1952  0.1713
14215TIP3   OH264059   0.356   2.806  13.067 -1.1473 -0.1551 -0.2319
14215TIP3    H164060   0.333   2.741  13.000 -0.2522 -1.7000  0.9204
14215TIP3    H264061   0.434   2.771  13.109 -2.7787 -0.2081  2.9209
14216TIP3   OH264062   6.419   2.532  16.565 -0.2831  0.2562  0.2577
14216TIP3    H164063   6.371   2.449  16.563  2.0632 -1.2246  2.0374
14216TIP3    H264064   6.386   2.577  16.643  0.4988 -0.3459  0.9514
14217TIP3   OH264065   4.216   0.073   2.822 -0.1275  0.2120 -0.0809
14217TIP3    H164066   4.126   0.097   2.803 -0.7607 -1.1729  1.0937
14217TIP3    H264067   4.214  -0.021   2.838  1.4454  0.2300  0.3718
14218TIP3   OH264068   5.455   1.005  11.479 -0.4104  1.0144 -0.8788
14218TIP3    H164069   5.402   1.070  11.433  1.8487  1.8418 -2.4107
14218TIP3    H264070   5.501   1.054  11.547 -1.2704  0.3736  0.1896
14219TIP3   OH264071   4.412   1.694  13.000  0.0584 -0.0535 -0.4275
14219TIP3    H164072   4.506   1.680  12.993 -0.0362 -0.2100 -1.3974
14219TIP3    H264073   4.400   1.787  12.985  0.0668 -0.0062 -0.1539
14220TIP3   OH264074   0.871   1.826   2.193  0.4060  0.5039 -0.1351
14220TIP3    H164075   0.782   1.791   2.204  0.0355  1.4009 -0.2569
14220TIP3    H264076   0.908   1.775   2.121 -0.3476  0.7725 -0.7251
14221TIP3   OH264077   2.447   3.812   1.193 -0.5642 -0.1594 -0.3931
14221TIP3    H164078   2.437   3.789   1.285  0.2274 -0.8752 -0.4867
14221TIP3    H264079   2.457   3.908   1.193  3.4463 -0.5107  0.6223
14222TIP3   OH264080   6.166   1.973   3.546  0.1302  0.2764  0.4221
14222TIP3    H164081   6.242   2.004   3.497 -0.6310  0.5439 -0.6142
14222TIP3    H264082   6.165   2.026   3.625  1.0116  0.2823  0.4364
14223TIP3   OH264083   1.908   1.624  11.693  0.5497  0.0173 -0.0025
14223TIP3    H164084   1.962   1.549  11.667 -2.0025 -1.0508 -2.4265
14223TIP3    H264085   1.965   1.700  11.682  3.0656 -1.4479  2.1095
14224TIP3   OH264086   4.361   5.060  11.785  0.1277  0.2755  0.4853
14224TIP3    H164087   4.392   4.985  11.836  0.5504  0.9379  1.2292
14224TIP3    H264088   4.440   5.109  11.764 -0.0324 -0.0529 -0.9428
14225TIP3   OH264089   6.096   5.478   1.023 -0.5384 -0.2928 -0.1571
14225TIP3    H164090   6.178   5.441   0.992 -0.1465  1.6038 -1.4773
14225TIP3    H264091   6.115   5.570   1.038 -2.2158  0.0131  0.2570
14226TIP3   OH264092   1.223   2.926   0.442 -0.0632  0.2776 -0.1321
14226TIP3    H164093   1.307   2.967   0.466  0.5630 -1.1737  0.2452
14226TIP3    H264094   1.204   2.960   0.355  1.2208  0.1764 -0.4677
14227TIP3   OH264095   6.497   4.396   4.144  0.4621  0.5481  0.0967
14227TIP3    H164096   6.533   4.313   4.175 -2.1887 -0.7595 -0.1432
14227TIP3    H264097   6.488   4.449   4.223  0.6152 -0.0103  0.4956
14228TIP3   OH264098   3.561   0.682  15.169 -0.1886  0.8057  0.0844
14228TIP3    H164099   3.558   0.593  15.204 -1.3899  0.2792 -1.2981
14228TIP3    H264100   3.579   0.671  15.076 -2.8520  1.8348 -0.6080
14229TIP3   OH264101   3.400   3.206  13.609  0.2946 -0.0652  0.3216
14229TIP3    H164102   3.305   3.219  13.598  0.6805  0.6998 -2.5744
14229TIP3    H264103   3.417   3.121  13.568  0.9292  0.0021  0.4456
14230TIP3   OH264104   4.745   5.723   3.196 -0.4007 -0.2775 -0.6666
14230TIP3    H164105   4.665   5.670   3.189 -1.2306  0.6370  1.4491
14230TIP3    H264106   4.730   5.779   3.272  2.8259 -1.0397  0.6252
14231TIP3   OH264107   5.894   1.343   6.129 -0.4186  0.1917  0.2222
14231TIP3    H164108   5.958   1.272   6.128  0.4810  0.9779 -0.7007
14231TIP3    H264109   5.924   1.401   6.199 -0.4398  0.2826  0.1563
14232TIP3   OH264110   1.625   5.167  15.130 -0.6729  0.2872 -0.0060
14232TIP3    H164111   1.564   5.225  15.176 -0.9751 -0.4482  0.5150
14232TIP3    H264112   1.570   5.115  15.072 -0.5232 -0.2806  0.3614
14233TIP3   OH264113   1.551   6.080  12.237 -0.0934 -0.2734  0.1324
14233TIP3    H164114   1.458   6.075  12.258 -0.3348  0.5079 -0.7436
14233TIP3    H264115   1.555   6.122  12.151  1.1496  1.2766  0.9203
14234TIP3   OH264116   3.566   4.987  10.639 -0.5132 -0.2958 -0.4475
14234TIP3    H164117   3.633   4.919  10.632 -0.1989  0.0620 -0.9197
14234TIP3    H264118   3.490   4.941  10.674  0.7949 -0.1561  2.8057
14235TIP3   OH264119   2.321   2.382   0.509 -0.2636  0.4174 -0.0320
14235TIP3    H164120   2.410   2.363   0.538  0.0244  1.1305 -0.4461
14235TIP3    H264121   2.297   2.306   0.455 -0.1187 -0.0316  0.5205
14236TIP3   OH264122   4.400   6.486  13.947  0.1886 -0.2144 -0.2483
14236TIP3    H164123   4.380   6.456  14.035  0.3427 -1.6339 -0.6706
14236TIP3    H264124   4.318   6.475  13.899  0.4900 -0.8324 -0.6321
14237TIP3   OH264125   6.579   4.901   5.417 -0.1968  0.1441 -0.4042
14237TIP3    H164126   6.574   4.984   5.465  1.2042 -0.1720  0.3150
14237TIP3    H264127   6.554   4.834   5.481  0.3654 -0.1509 -0.4882
14238TIP3   OH264128   3.109   0.631   5.484  0.4886 -0.1630  0.4470
14238TIP3    H164129   3.131   0.560   5.423  1.0568  0.3151  0.0956
14238TIP3    H264130   3.023   0.606   5.518 -1.3002  1.0826 -2.8790
14239TIP3   OH264131   5.247   1.394  12.197  0.1308 -0.5569 -0.7733
14239TIP3    H164132   5.239   1.361  12.107  1.7911 -1.1125 -0.7341
14239TIP3    H264133   5.247   1.489  12.187  3.1251 -0.5966 -1.6850
14240TIP3   OH264134   1.179   4.799   1.683 -0.7638 -0.1219 -0.3930
14240TIP3    H164135   1.143   4.732   1.625 -0.3082  0.4914 -1.3970
14240TIP3    H264136   1.261   4.762   1.714  0.2706  0.6002 -2.1992
14241TIP3   OH264137   1.788   2.671  13.646 -0.1236 -0.1499  0.1151
14241TIP3    H164138   1.870   2.624  13.658  1.6426  3.4277  2.7356
14241TIP3    H264139   1.732   2.641  13.718 -0.2285 -0.6965 -0.1887
14242TIP3   OH264140   2.702   1.296   0.158  0.5476  0.4892 -0.7443
14242TIP3    H164141   2.691   1.359   0.087 -0.5794 -0.3395 -1.3102
14242TIP3    H264142   2.621   1.246   0.160  1.1926 -0.5635  0.0860
14243TIP3   OH264143   5.450   5.090   5.652  0.8202  0.6044  0.2932
14243TIP3    H164144   5.377   5.027   5.650  1.2957  0.0552  0.1872
14243TIP3    H264145   5.414   5.169   5.612  0.3014  0.3114  0.1750
14244TIP3   OH264146   3.824   2.433   5.582  0.4882  0.6730  0.6933
14244TIP3    H164147   3.907   2.454   5.624  1.9611 -1.1720 -1.2055
14244TIP3    H264148   3.826   2.338   5.568 -0.6997  0.9526 -1.8661
14245TIP3   OH264149   3.003   1.651  12.003  0.5958 -0.8141  0.7677
14245TIP3    H164150   3.066   1.681  11.937 -0.6758 -1.2995 -0.6940
14245TIP3    H264151   3.008   1.556  11.999 -1.2886 -0.8770 -0.4092
14246TIP3   OH264152   0.586   1.125   3.842 -0.3718 -0.5800  0.2805
14246TIP3    H164153   0.655   1.148   3.903  0.3655 -0.7864 -0.4648
14246TIP3    H264154   0.577   1.030   3.849 -0.0736 -0.6412 -0.1544
14247TIP3   OH264155   4.094   2.600  11.609 -0.6503 -0.0214  0.0554
14247TIP3    H164156   4.096   2.615  11.703  0.7514 -0.6160  0.1391
14247TIP3    H264157   4.081   2.505  11.600 -0.6904  0.0197 -0.3521
14248TIP3   OH264158   5.754   5.863  11.855 -0.4977  0.1148 -0.1253
14248TIP3    H164159   5.694   5.832  11.787  0.3941 -2.2699  0.1384
14248TIP3    H264160   5.735   5.808  11.931  1.6969 -0.3482  0.1083
14249TIP3   OH264161   2.888   0.984   3.960 -0.1109 -0.4776 -0.3844
14249TIP3    H164162   2.962   1.045   3.957  0.6394 -1.2841  0.9313
14249TIP3    H264163   2.813   1.038   3.984  0.4214  0.0633  0.0960
14250TIP3   OH264164   0.153   2.625   0.326  0.2500 -0.6852  0.0777
14250TIP3    H164165   0.095   2.554   0.301 -1.3906  0.0923  1.5511
14250TIP3    H264166   0.117   2.702   0.282  1.6098 -0.6182 -0.9541
14251TIP3   OH264167   3.790   5.561   2.918  0.0792 -0.3420 -0.0895
14251TIP3    H164168   3.774   5.471   2.890 -0.1328 -0.5114  0.5689
14251TIP3    H264169   3.721   5.579   2.981 -0.2189  0.4796 -0.6421
14252TIP3   OH264170   6.361   6.762   2.168  0.0935  0.1118  0.0136
14252TIP3    H164171   6.365   6.755   2.073  0.3361  0.8428 -0.0312
14252TIP3    H264172   6.302   6.691   2.195 -1.6082  1.1702 -0.8515
14253TIP3   OH264173   2.400   4.054   5.895 -0.0104  0.2337  0.2844
14253TIP3    H164174   2.456   4.131   5.879  0.4847 -0.2133 -0.1302
14253TIP3    H264175   2.397   4.048   5.991  1.3865 -0.2578  0.3200
14254TIP3   OH264176   1.818   2.563  11.330 -0.3387  0.0245 -0.2450
14254TIP3    H164177   1.905   2.598  11.312 -0.5663  0.6529 -0.1269
14254TIP3    H264178   1.809   2.490  11.268  1.3586 -1.8671  1.6380
14255TIP3   OH264179   1.357   3.769  12.508  0.0728 -0.4431  0.3361
14255TIP3    H164180   1.275   3.741  12.467  0.5865  0.5088 -1.3787
14255TIP3    H264181   1.411   3.690  12.510 -0.8788 -1.0904  1.5145
14256TIP3   OH264182   6.039   2.695   3.079 -0.2914 -0.8771 -0.5232
14256TIP3    H164183   6.017   2.678   3.171 -0.7722  0.7302 -0.3350
14256TIP3    H264184   5.958   2.679   3.031 -0.8698  1.2286 -0.2927
14257TIP3   OH264185   4.825   2.202  13.857 -0.1434  0.2343 -0.1455
14257TIP3    H164186   4.795   2.113  13.875  2.0251 -0.3319  0.8580
14257TIP3    H264187   4.826   2.244  13.943 -1.9722  1.5241 -0.7255
14258TIP3   OH264188   4.008   5.711  14.179  0.2766 -0.2281 -0.0303
14258TIP3    H164189   4.087   5.728  14.127  0.2227 -0.2841 -0.1304
14258TIP3    H264190   4.023   5.760  14.260 -0.0272  0.5626 -0.4468
14259TIP3   OH264191   6.451   3.590   4.394 -0.3284 -0.1285 -0.2303
14259TIP3    H164192   6.474   3.541   4.473  0.2602 -1.3711 -1.1690
14259TIP3    H264193   6.515   3.661   4.390  1.1031 -1.4412 -0.8518
14260TIP3   OH264194   2.930   0.933  15.307 -0.1327 -0.0651  0.2438
14260TIP3    H164195   2.990   0.935  15.382 -2.9613 -0.2327  2.5765
14260TIP3    H264196   2.921   0.840  15.287  0.3261 -0.0417 -0.0912
14261TIP3   OH264197   4.643   3.364  15.444  0.0659  0.2934 -0.7953
14261TIP3    H164198   4.557   3.336  15.473  1.3144 -0.3190  2.4410
14261TIP3    H264199   4.690   3.283  15.426  0.5232  0.5940 -0.9697
14262TIP3   OH264200   6.170   3.400  14.488 -0.7363  0.3633  0.2094
14262TIP3    H164201   6.228   3.333  14.452 -0.3165  1.0718 -0.4510
14262TIP3    H264202   6.202   3.413  14.577  0.3880  1.0412 -0.2813
14263TIP3   OH264203   1.192   6.320   2.601  0.4713  0.3217 -0.3647
14263TIP3    H164204   1.167   6.299   2.511 -1.1838  0.5929  0.0114
14263TIP3    H264205   1.200   6.236   2.644  0.5090  0.2207 -0.5651
14264TIP3   OH264206   2.619   3.998   5.693  0.3098  0.0472 -0.4069
14264TIP3    H164207   2.543   4.029   5.644  1.1930  0.3480 -1.6345
14264TIP3    H264208   2.583   3.948   5.766 -1.0650  0.8183 -0.5464
14265TIP3   OH264209   6.574   5.765   4.320  0.1210 -0.4713 -0.1828
14265TIP3    H164210   6.600   5.856   4.337 -1.1769  0.0754 -1.1103
14265TIP3    H264211   6.602   5.748   4.230  1.0438 -1.2541  0.2377
14266TIP3   OH264212   0.389   4.383   2.166  0.0098  0.0622 -0.5337
14266TIP3    H164213   0.461   4.411   2.109 -1.3086  0.7457 -1.9049
14266TIP3    H264214   0.336   4.462   2.177  0.2732 -0.0553  1.7062
14267TIP3   OH264215   4.971   5.077  15.022  0.2389  0.4637 -0.2175
14267TIP3    H164216   5.009   5.019  14.957 -1.0111 -0.6186  0.0014
14267TIP3    H264217   4.976   5.164  14.983 -0.1939 -0.1320 -1.6069
14268TIP3   OH264218   6.390   4.571   1.649 -0.1351  0.4559 -0.1887
14268TIP3    H164219   6.356   4.539   1.565  0.1433  1.3553 -0.6408
14268TIP3    H264220   6.465   4.514   1.668 -1.1417 -0.7639  0.2290
14269TIP3   OH264221   4.737   0.364   4.049  0.4738  0.8034  0.3473
14269TIP3    H164222   4.689   0.431   4.098  0.1750  0.0439  1.1091
14269TIP3    H264223   4.697   0.364   3.962 -1.1450 -0.0685  1.0809
14270TIP3   OH264224   0.338   5.868   5.367 -0.0708 -0.6642 -0.3904
14270TIP3    H164225   0.400   5.838   5.433  0.5033 -0.3909 -0.7950
14270TIP3    H264226   0.260   5.894   5.416  0.8741  0.8811  0.3194
14271TIP3   OH264227   3.446   5.887  12.663 -0.1468  0.2884 -0.1944
14271TIP3    H164228   3.459   5.973  12.703 -0.1310  0.3986 -0.4361
14271TIP3    H264229   3.511   5.884  12.593  0.3769 -0.2301  0.3085
14272TIP3   OH264230   1.381   0.073  16.515 -0.0779  0.3567  0.0606
14272TIP3    H164231   1.454   0.106  16.462 -0.4222  2.0556  0.6110
14272TIP3    H264232   1.414  -0.009  16.552  0.2845 -0.6646 -2.4754
14273TIP3   OH264233   2.372   1.015   2.199  0.2478 -0.3922 -0.4605
14273TIP3    H164234   2.378   1.110   2.188  2.0511 -0.4028  0.2292
14273TIP3    H264235   2.406   0.979   2.117 -1.5239 -0.4509 -1.1806
14274TIP3   OH264236   0.815   3.082   0.701 -0.1536 -0.4229 -0.8414
14274TIP3    H164237   0.906   3.101   0.725  0.9987 -1.9430 -3.6717
14274TIP3    H264238   0.772   3.167   0.697  0.9245  0.2534  1.2727
14275TIP3   OH264239   2.198   2.330   1.427 -0.0928  0.6072  0.9476
14275TIP3    H164240   2.167   2.244   1.399 -0.6388  1.5574 -1.4953
14275TIP3    H264241   2.282   2.341   1.382  0.6387  0.7783  2.3445
14276TIP3   OH264242   5.687   5.863  10.463 -0.2037 -0.2216  0.2336
14276TIP3    H164243   5.610   5.909  10.428 -0.7036 -0.4898  0.9898
14276TIP3    H264244   5.654   5.778  10.490  0.4175 -0.4373  0.3115
14277TIP3   OH264245   0.061   5.878   0.425  0.1136  0.0295  0.4674
14277TIP3    H164246   0.080   5.814   0.356  0.1865  2.3235 -1.6830
14277TIP3    H264247   0.101   5.840   0.504  0.1531 -2.5728 -0.7449
14278TIP3   OH264248   4.423   3.983   2.134 -0.4626 -0.3135  0.2387
14278TIP3    H164249   4.492   4.046   2.115 -0.4242 -0.0071  1.3655
14278TIP3    H264250   4.381   4.016   2.214 -2.6120  0.0915 -1.0178
14279TIP3   OH264251   1.938   1.072  16.422 -0.4020 -0.1026  0.0816
14279TIP3    H164252   1.913   1.148  16.474 -0.2016  0.1516 -0.1898
14279TIP3    H264253   1.860   1.017  16.420 -1.0097  0.7805 -0.9226
14280TIP3   OH264254   5.407   5.041   0.522  0.2968  0.3380  0.1965
14280TIP3    H164255   5.397   5.136   0.515  0.1506  0.3246  0.2172
14280TIP3    H264256   5.502   5.027   0.523  0.3214  0.5152  0.5976
14281TIP3   OH264257   0.078   6.347   5.971 -0.4970 -0.1837 -0.3901
14281TIP3    H164258   0.074   6.442   5.955 -2.0067 -0.0743  0.5648
14281TIP3    H264259   0.002   6.329   6.025  1.4465 -1.4856  1.9929
14282TIP3   OH264260   2.953   5.379  13.920  0.3814  0.2483 -0.2030
14282TIP3    H164261   3.026   5.327  13.885  0.4053 -0.8165  1.3641
14282TIP3    H264262   2.921   5.328  13.995 -0.9845  1.4606  0.0635
14283TIP3   OH264263   5.829   1.498   5.897 -0.7925 -0.4027  0.4824
14283TIP3    H164264   5.812   1.423   5.840  1.5619 -0.0788 -0.7050
14283TIP3    H264265   5.864   1.459   5.977 -0.6331 -0.6503  0.2946
14284TIP3   OH264266   5.363   3.710  16.200 -0.1930 -0.1374 -0.1899
14284TIP3    H164267   5.448   3.686  16.236  0.5344  2.7858  0.2001
14284TIP3    H264268   5.377   3.714  16.105 -0.6126 -2.1818 -0.3687
14285TIP3   OH264269   2.192   5.466   5.990  0.3776 -0.1774 -0.1969
14285TIP3    H164270   2.136   5.527   6.038 -1.5238 -0.7083 -1.6581
14285TIP3    H264271   2.237   5.416   6.058  0.1626  1.2209  1.0103
14286TIP3   OH264272   2.349   2.112   6.449 -0.1020  0.0812  0.0328
14286TIP3    H164273   2.421   2.129   6.389  0.3935 -1.8491  0.0540
14286TIP3    H264274   2.337   2.194   6.496  1.0505  0.8879 -1.0676
14287TIP3   OH264275   2.827   0.622  16.554 -0.4802 -0.5503 -0.5174
14287TIP3    H164276   2.844   0.621  16.460 -0.4302  0.9336 -0.5393
14287TIP3    H264277   2.913   0.633  16.594 -0.6274  0.0681 -0.3600
14288TIP3   OH264278   5.947   4.886   4.178  0.1184  0.4725 -0.5109
14288TIP3    H164279   5.997   4.952   4.225  0.4991 -0.6063  0.6308
14288TIP3    H264280   5.907   4.933   4.105  0.1118  2.0195  0.4717
14289TIP3   OH264281   5.921   4.508  14.343 -0.7375  0.4273 -0.7007
14289TIP3    H164282   6.001   4.549  14.377  0.0298 -0.9742 -0.7996
14289TIP3    H264283   5.850   4.553  14.389  0.0955  1.7480 -0.6797
14290TIP3   OH264284   5.328   3.320  15.295 -0.3495 -0.2559 -0.8273
14290TIP3    H164285   5.302   3.400  15.249  0.1282 -0.7869 -2.0483
14290TIP3    H264286   5.253   3.262  15.287 -0.7080  0.0858  0.0879
14291TIP3   OH264287   6.029   5.725   6.226  0.0270  0.0621 -0.4872
14291TIP3    H164288   6.022   5.641   6.180 -0.6765  0.6169 -1.4184
14291TIP3    H264289   6.104   5.714   6.284 -3.2693 -3.1271  3.4913
14292TIP3   OH264290   1.063   3.364   1.710 -0.0437  0.2432  0.4566
14292TIP3    H164291   0.976   3.353   1.750 -0.5513 -0.9093 -0.9242
14292TIP3    H264292   1.108   3.426   1.768 -1.3903 -0.0049  1.8098
14293TIP3   OH264293   2.850   1.175  17.107  0.2708  0.4071 -0.6012
14293TIP3    H164294   2.909   1.205  17.038  0.1785 -0.4091 -1.0404
14293TIP3    H264295   2.777   1.237  17.106  0.9740  1.2518 -0.2484
14294TIP3   OH264296   2.878   3.906  11.695 -0.0083  0.2603  0.2059
14294TIP3    H164297   2.809   3.839  11.701 -0.9089  1.1995  0.4224
14294TIP3    H264298   2.836   3.986  11.726  1.3943  0.6921  0.9904
14295TIP3   OH264299   2.075   4.009  15.895  0.3403 -0.1335 -0.1033
14295TIP3    H164300   2.146   4.064  15.861 -0.6263  0.8992 -0.4813
14295TIP3    H264301   2.021   4.069  15.946  0.0169 -1.0249  0.6117
14296TIP3   OH264302   1.043   6.230  14.494  0.1565 -0.0102 -0.0875
14296TIP3    H164303   1.130   6.268  14.505  0.8088 -1.8130  1.2800
14296TIP3    H264304   0.996   6.292  14.439  2.2352  1.1019 -0.6456
14297TIP3   OH264305   3.784   1.382   4.583 -0.4097 -0.5703 -0.1110
14297TIP3    H164306   3.797   1.290   4.609  1.4039 -0.1030  0.7275
14297TIP3    H264307   3.806   1.432   4.661  1.2663  0.6943 -1.3604
14298TIP3   OH264308   3.539   5.439   0.386 -0.1797  0.4343 -0.0506
14298TIP3    H164309   3.562   5.465   0.296 -1.7045  1.2734 -0.2181
14298TIP3    H264310   3.527   5.344   0.381 -0.6328  0.5258 -0.8357
14299TIP3   OH264311   3.973   4.332   1.294 -0.2374  0.8982 -0.0705
14299TIP3    H164312   4.065   4.325   1.271 -0.5320  1.0360 -1.3260
14299TIP3    H264313   3.970   4.316   1.388  0.9848  0.2295 -0.1467
14300TIP3   OH264314   6.259   4.253  13.677  0.9778  0.6446  0.4310
14300TIP3    H164315   6.341   4.206  13.694 -0.9916 -2.3491  1.9542
14300TIP3    H264316   6.230   4.220  13.592  0.0734 -0.2068  1.0661
14301TIP3   OH264317   6.350   4.330  13.243  0.1948  0.2935  0.2428
14301TIP3    H164318   6.368   4.416  13.206  0.3209  0.3339  0.3976
14301TIP3    H264319   6.307   4.348  13.326 -0.1760  0.2027  0.0685
14302TIP3   OH264320   5.833   2.164   2.146  0.0695  0.9049 -0.0688
14302TIP3    H164321   5.918   2.179   2.105 -0.4460  0.4986 -1.3026
14302TIP3    H264322   5.853   2.147   2.238  1.2917  1.1312 -0.2901
14303TIP3   OH264323   1.830   6.132  15.482 -0.5175 -0.0086  0.3265
14303TIP3    H164324   1.901   6.080  15.518 -1.3369 -1.0087  0.5126
14303TIP3    H264325   1.767   6.140  15.555 -0.9879  0.1508 -0.0936
14304TIP3   OH264326   0.225   6.632   2.248  0.3905  0.5931  0.2876
14304TIP3    H164327   0.305   6.610   2.201  0.1529  1.9229 -0.7596
14304TIP3    H264328   0.246   6.711   2.297  0.6625 -0.8221  2.5304
14305TIP3   OH264329   2.735   3.181  11.674 -0.0957 -0.3046  0.0883
14305TIP3    H164330   2.764   3.238  11.745  2.8193 -0.9562 -0.5382
14305TIP3    H264331   2.762   3.226  11.594 -0.1500 -1.2758 -0.4924
14306TIP3   OH264332   4.573   4.747   2.323 -0.1964  0.2955  0.1210
14306TIP3    H164333   4.524   4.788   2.252 -0.8793 -0.4010  0.1841
14306TIP3    H264334   4.601   4.820   2.378  0.4294  0.8456 -0.9132
14307TIP3   OH264335   1.705   4.213  16.877 -0.6574 -0.3889 -0.1324
14307TIP3    H164336   1.754   4.294  16.860 -0.5889 -0.0393  1.5903
14307TIP3    H264337   1.705   4.166  16.793 -1.4928  1.8062 -1.3965
14308TIP3   OH264338   6.066   4.512   5.233 -0.1797  0.1170 -0.0079
14308TIP3    H164339   5.976   4.512   5.202  0.0837 -1.5730 -0.8820
14308TIP3    H264340   6.115   4.559   5.165 -0.0086 -1.3297 -0.9246
14309TIP3   OH264341   5.739   4.414  16.408 -0.9888 -0.1046  0.0448
14309TIP3    H164342   5.804   4.345  16.399 -3.4290 -2.5015  0.0857
14309TIP3    H264343   5.762   4.459  16.489  0.9909 -0.4929 -0.2883
14310TIP3   OH264344   3.532   4.598   4.012 -0.2455 -0.0138 -0.6542
14310TIP3    H164345   3.555   4.673   3.958 -0.4966 -0.4365 -1.3649
14310TIP3    H264346   3.477   4.633   4.081  0.3382  0.5838 -0.4871
14311TIP3   OH264347   0.029   3.438  14.550  0.1454  0.0834  0.6346
14311TIP3    H164348   0.087   3.391  14.610  1.3444  1.9132  0.9249
14311TIP3    H264349  -0.059   3.416  14.580  0.7179  0.3421  2.5681
14312TIP3   OH264350   2.613   2.934  14.452 -0.0841 -0.3313  0.0757
14312TIP3    H164351   2.533   2.978  14.422  0.4085  1.2288  0.9715
14312TIP3    H264352   2.672   3.005  14.474  1.0770 -1.4715  0.7078
14313TIP3   OH264353   4.862   6.764   1.380  0.2771  0.2315  0.3305
14313TIP3    H164354   4.772   6.736   1.362  0.0756  0.3785  1.0733
14313TIP3    H264355   4.897   6.696   1.439 -0.2748  1.6051  2.2826
14314TIP3   OH264356   1.474   5.871   5.210 -0.1718  0.0298 -0.1401
14314TIP3    H164357   1.486   5.780   5.183  0.5768 -0.0742  0.5166
14314TIP3    H264358   1.416   5.908   5.144  0.1530 -0.7068 -0.8495
14315TIP3   OH264359   6.473   5.809   5.139  0.4026 -0.3092  0.3475
14315TIP3    H164360   6.561   5.801   5.103 -0.2458 -0.4535 -1.2331
14315TIP3    H264361   6.455   5.903   5.140  0.4235 -0.3050  0.3305
14316TIP3   OH264362   2.463   3.300  11.535 -0.2218  0.0303 -0.2330
14316TIP3    H164363   2.455   3.350  11.617  2.2900  1.2592 -0.7000
14316TIP3    H264364   2.557   3.289  11.523 -0.6291 -1.7134 -2.0418
14317TIP3   OH264365   3.472   2.327   0.474 -0.2559  0.1472  0.4181
14317TIP3    H164366   3.438   2.333   0.563 -0.7710  0.1117  0.2245
14317TIP3    H264367   3.440   2.243   0.441  0.6872 -0.2577  0.5085
14318TIP3   OH264368   5.968   6.676   0.717 -0.4362  0.1986  0.0086
14318TIP3    H164369   6.020   6.734   0.772 -1.2355 -0.0402  1.0055
14318TIP3    H264370   5.934   6.732   0.647 -0.1804  0.6681  0.2652
14319TIP3   OH264371   0.900   2.622  14.004 -0.3450 -0.7207  0.3423
14319TIP3    H164372   0.816   2.629  13.959  0.1465  1.8566 -0.2926
14319TIP3    H264373   0.963   2.661  13.942  0.6184  1.3768  2.5594
14320TIP3   OH264374   4.845   6.617  11.933  0.1590  0.4170 -0.1655
14320TIP3    H164375   4.852   6.523  11.918  2.1452  0.2439  1.6522
14320TIP3    H264376   4.806   6.624  12.020 -0.5378  1.2830 -0.5458
14321TIP3   OH264377   1.665   3.825  11.547  0.2614  0.4575 -0.2500
14321TIP3    H164378   1.726   3.897  11.564  1.3867 -0.3100 -0.9631
14321TIP3    H264379   1.643   3.832  11.455 -1.1733  1.0561  0.1299
14322TIP3   OH264380   2.201   5.736  12.093 -0.1863  0.1749 -0.2889
14322TIP3    H164381   2.110   5.756  12.071 -0.3646  0.3353  0.5703
14322TIP3    H264382   2.252   5.798  12.041 -0.4479 -1.3709 -2.4845
14323TIP3   OH264383   2.772   3.287  14.098 -0.1512  0.4227  0.0951
14323TIP3    H164384   2.696   3.331  14.136  0.9587  1.4052  1.2685
14323TIP3    H264385   2.750   3.274  14.006 -2.4111 -0.8655  0.7761
14324TIP3   OH264386   1.522   4.340   0.408  0.2111 -0.3527 -0.1807
14324TIP3    H164387   1.510   4.387   0.491  0.8653 -0.9027  0.2370
14324TIP3    H264388   1.434   4.330   0.373 -0.1444 -0.7331  0.7982
14325TIP3   OH264389   2.621   0.713  11.892 -0.4918 -0.7701  0.4940
14325TIP3    H164390   2.683   0.662  11.944  0.4777 -1.4003 -1.2383
14325TIP3    H264391   2.565   0.757  11.956 -0.9234 -3.4887  2.0414
14326TIP3   OH264392   6.016   1.271  15.044 -0.1084  0.0948  0.7074
14326TIP3    H164393   6.111   1.266  15.058 -0.0685  0.0782  0.4340
14326TIP3    H264394   5.988   1.180  15.037 -0.1256  0.1032  0.6699
14327TIP3   OH264395   4.008   2.097  14.850  1.0021  0.0909  0.0730
14327TIP3    H164396   4.101   2.109  14.829  1.0745  1.4050  1.0430
14327TIP3    H264397   3.974   2.187  14.857  0.2188 -0.3571  2.1445
14328TIP3   OH264398   1.363   3.789   2.987  0.6669  0.4490 -0.2771
14328TIP3    H164399   1.346   3.880   3.012  1.8686  0.5725  0.1102
14328TIP3    H264400   1.456   3.787   2.962  1.0046 -0.9376  0.9808
14329TIP3   OH264401   4.079   3.656  13.816  0.2403  0.2415  0.1365
14329TIP3    H164402   4.000   3.604  13.805  0.5402 -0.7408  2.3435
14329TIP3    H264403   4.135   3.603  13.873  1.7640  1.6843  0.0219
14330TIP3   OH264404   6.467   4.801   0.837  0.6465  0.1652  0.2805
14330TIP3    H164405   6.478   4.761   0.923 -2.2884  0.0383  0.6651
14330TIP3    H264406   6.555   4.805   0.800  1.8087 -0.6975  2.8732
14331TIP3   OH264407   0.068   1.573   0.368  0.0567 -0.6976  0.4692
14331TIP3    H164408   0.117   1.537   0.442 -0.5416 -0.5734  0.9292
14331TIP3    H264409  -0.010   1.518   0.362  0.1886 -0.8261 -0.1971
14332TIP3   OH264410   1.736   6.044   5.492 -0.2523 -0.1424 -0.4604
14332TIP3    H164411   1.803   5.982   5.464  2.2238  2.8022 -1.3006
14332TIP3    H264412   1.720   6.099   5.414 -1.8116  0.7718  0.4679
14333TIP3   OH264413   2.168   2.923  11.121  0.3441 -0.4085  0.2297
14333TIP3    H164414   2.091   2.949  11.071  0.3650  1.2649  1.0261
14333TIP3    H264415   2.138   2.851  11.177 -0.8904  0.8363  1.1970
14334TIP3   OH264416   1.447   2.969  16.891  0.2104 -0.6053  0.4995
14334TIP3    H164417   1.385   3.036  16.862 -0.2903 -1.0666  0.5031
14334TIP3    H264418   1.393   2.905  16.938  0.9292 -0.1225  2.0368
14335TIP3   OH264419   0.198   3.112   0.451  0.0286 -0.0884  0.1773
14335TIP3    H164420   0.144   3.060   0.391  0.1791 -0.6328  0.5085
14335TIP3    H264421   0.161   3.200   0.448 -1.5180 -0.6986  1.1936
14336TIP3   OH264422   2.365   3.491  13.151  0.0502 -0.6189 -0.7531
14336TIP3    H164423   2.304   3.438  13.099  0.5803 -0.6880 -1.3223
14336TIP3    H264424   2.321   3.575  13.161 -0.2927 -0.7824 -0.8558
14337TIP3   OH264425   3.794   4.590  15.323  0.3459 -0.7258 -0.0101
14337TIP3    H164426   3.867   4.623  15.373  0.8541  1.6507 -2.2215
14337TIP3    H264427   3.831   4.567  15.237 -0.9251 -2.4714 -0.1421
14338TIP3   OH264428   1.501   5.401   0.049 -0.0963  0.1686 -0.2391
14338TIP3    H164429   1.463   5.429   0.132 -0.0448 -0.8322  0.1267
14338TIP3    H264430   1.527   5.310   0.064 -1.0124 -0.3396 -1.6587
14339TIP3   OH264431   3.365   0.823  13.913  0.6848 -0.2582 -0.2715
14339TIP3    H164432   3.383   0.914  13.937  0.7053 -0.5098  0.6525
14339TIP3    H264433   3.431   0.772  13.960 -0.9193 -0.9784  1.2250
14340TIP3   OH264434   3.799   4.489   3.901  0.7475 -0.0258  0.1041
14340TIP3    H164435   3.714   4.497   3.944  0.4212 -1.8519 -0.1689
14340TIP3    H264436   3.838   4.411   3.940  1.7518  0.0512 -0.7258
14341TIP3   OH264437   1.909   2.269  10.663  0.0682  0.2289  0.3245
14341TIP3    H164438   1.823   2.241  10.693  0.4848 -0.5970  0.7621
14341TIP3    H264439   1.896   2.295  10.572 -0.5204 -0.4301  0.2209
14342TIP3   OH264440   4.379   1.205   0.665 -0.4507 -0.7770  0.3155
14342TIP3    H164441   4.413   1.116   0.666 -0.9370 -0.9692 -0.1123
14342TIP3    H264442   4.410   1.242   0.583  1.2789  0.0515  1.3268
14343TIP3   OH264443   1.124   6.008  16.610 -0.8555  0.0919 -0.2496
14343TIP3    H164444   1.094   6.066  16.680 -2.1901 -1.2855  0.3500
14343TIP3    H264445   1.111   6.059  16.530 -1.5044  0.8323  0.3146
14344TIP3   OH264446   5.693   6.011   3.155  0.2288 -0.0533 -0.1102
14344TIP3    H164447   5.737   6.026   3.071  0.0018  1.1113 -0.0362
14344TIP3    H264448   5.742   5.940   3.196  0.7558 -0.1763 -0.9423
14345TIP3   OH264449   2.060   5.138   5.208  0.0985 -0.1020  0.1149
14345TIP3    H164450   2.018   5.221   5.233 -2.2799 -0.9616 -0.8503
14345TIP3    H264451   2.113   5.114   5.284  0.0369  1.7956  0.7928
14346TIP3   OH264452   0.519   3.439   4.429  0.4682  0.2437 -0.0410
14346TIP3    H164453   0.438   3.474   4.467 -0.3694 -0.2112 -1.3734
14346TIP3    H264454   0.529   3.487   4.346  0.3865 -1.2243 -0.9195
14347TIP3   OH264455   0.194   6.202  14.223 -0.2906 -0.0614  0.0998
14347TIP3    H164456   0.141   6.176  14.298  0.6309 -1.7461  0.1885
14347TIP3    H264457   0.266   6.253  14.260  0.7187 -1.7431  0.4871
14348TIP3   OH264458   5.593   0.870  16.088 -0.0801 -0.0242  0.5761
14348TIP3    H164459   5.518   0.816  16.063 -0.1154  0.9072 -1.4799
14348TIP3    H264460   5.563   0.921  16.162 -0.8756 -0.9835  0.9298
14349TIP3   OH264461   3.501   5.759   0.278 -0.0003  0.3130 -0.1893
14349TIP3    H164462   3.509   5.849   0.310 -1.5425 -0.6509  3.0986
14349TIP3    H264463   3.591   5.734   0.257  0.7535  1.8930  0.9863
14350TIP3   OH264464   5.183   1.705  12.169  0.2738  0.5391 -0.2428
14350TIP3    H164465   5.105   1.745  12.131 -0.0806 -0.0251 -0.1123
14350TIP3    H264466   5.165   1.702  12.263  0.1648 -0.2185 -0.2859
14351TIP3   OH264467   3.777   5.674  12.898  0.3296  0.4958  0.4294
14351TIP3    H164468   3.791   5.615  12.972  2.0637  2.0312  1.3338
14351TIP3    H264469   3.856   5.665  12.844 -0.8939 -0.5786 -1.2483
14352TIP3   OH264470   4.880   4.181   5.099  0.2282 -0.3594  0.0143
14352TIP3    H164471   4.925   4.147   5.022  0.1288 -0.9524  0.2101
14352TIP3    H264472   4.863   4.103   5.153  0.2950  0.0481  0.6318
14353TIP3   OH264473   3.440   1.816   2.301  0.0930 -0.3521 -0.2923
14353TIP3    H164474   3.348   1.841   2.304  0.7319  2.0779 -0.3634
14353TIP3    H264475   3.452   1.778   2.214 -1.1895 -2.1425  0.2904
14354TIP3   OH264476   2.158   2.444  17.039 -0.3815  0.2052 -0.3038
14354TIP3    H164477   2.168   2.515  17.103 -2.0263  2.1170 -2.1309
14354TIP3    H264478   2.064   2.429  17.034 -0.2645 -0.0526 -2.1050
14355TIP3   OH264479   3.951   4.427   2.619  0.4942  0.4102  0.2474
14355TIP3    H164480   3.978   4.370   2.690 -0.2405  0.6398  0.7080
14355TIP3    H264481   3.894   4.492   2.660  0.0316  0.5185 -0.5524
14356TIP3   OH264482   4.568   0.555  13.308  0.2732 -0.2616  0.2447
14356TIP3    H164483   4.633   0.590  13.248 -0.0211  0.2647  0.2255
14356TIP3    H264484   4.566   0.618  13.381  0.0986 -0.4997  0.4454
14357TIP3   OH264485   4.687   6.754  11.474 -0.5126  0.4117 -0.3958
14357TIP3    H164486   4.641   6.795  11.547  1.4352  1.6091  0.2072
14357TIP3    H264487   4.651   6.666  11.468 -2.3908  1.1016  0.4509
14358TIP3   OH264488   4.807   3.485   3.867  0.4744 -0.2248  0.7452
14358TIP3    H164489   4.716   3.459   3.885  0.9056 -2.6817 -0.3107
14358TIP3    H264490   4.801   3.537   3.787  0.1316 -1.7481 -0.2531
14359TIP3   OH264491   6.728   5.131   2.535 -0.2868  0.5018  0.3294
14359TIP3    H164492   6.739   5.128   2.630  1.7762  0.5021  0.1173
14359TIP3    H264493   6.805   5.179   2.503 -1.0135  0.6083 -1.3361
14360TIP3   OH264494   0.779   4.413   3.461 -0.5660  0.2886  0.2433
14360TIP3    H164495   0.789   4.348   3.391  1.6254  0.3279  0.4883
14360TIP3    H264496   0.707   4.469   3.431 -3.0410 -2.6929  0.4039
14361TIP3   OH264497   4.668   0.849  14.518 -0.2714 -0.1697  0.4106
14361TIP3    H164498   4.616   0.831  14.596  0.5534  0.1926  1.0476
14361TIP3    H264499   4.648   0.776  14.459 -0.5319 -0.6958  1.1453
14362TIP3   OH264500   0.386   6.776   2.728 -0.2206 -0.1434 -0.0750
14362TIP3    H164501   0.472   6.816   2.715 -0.5790  0.3256 -1.0345
14362TIP3    H264502   0.388   6.745   2.818  1.6650 -1.8405 -0.6620
14363TIP3   OH264503   4.228   3.481   3.677 -0.0639  0.2940  0.1862
14363TIP3    H164504   4.316   3.473   3.715 -0.5711  0.5668  1.4449
14363TIP3    H264505   4.218   3.403   3.623  1.3940  0.8345 -0.8832
14364TIP3   OH264506   2.651   0.432   5.452 -0.0763 -0.8527  0.2211
14364TIP3    H164507   2.575   0.444   5.509 -1.0258 -1.7693 -0.8118
14364TIP3    H264508   2.725   0.424   5.512 -1.0418 -1.7031  1.3398
14365TIP3   OH264509   3.194   2.496  16.691  0.0610 -0.3026 -0.8103
14365TIP3    H164510   3.165   2.541  16.770  0.5318  1.3253 -1.5443
14365TIP3    H264511   3.231   2.414  16.723  0.3304  0.3757  0.6768
14366TIP3   OH264512   6.230   2.617   5.727  0.7748 -0.0802  0.2343
14366TIP3    H164513   6.255   2.675   5.655  0.2354  0.0872  0.1846
14366TIP3    H264514   6.229   2.529   5.688 -1.8096  0.2623 -0.5484
14367TIP3   OH264515   0.425   0.453  11.905 -0.2084 -0.5849 -0.6802
14367TIP3    H164516   0.437   0.492  11.992  0.8471 -1.2059 -0.5403
14367TIP3    H264517   0.506   0.403  11.890  0.5483  1.2411 -2.9180
14368TIP3   OH264518   6.055   3.915   2.508  0.5001  0.3977 -0.2906
14368TIP3    H164519   6.134   3.867   2.532  0.1412  0.3432  0.8318
14368TIP3    H264520   6.027   3.876   2.426  2.7291  1.7352 -1.7263
14369TIP3   OH264521   4.558   3.265   0.059 -0.5465 -0.4443 -0.2116
14369TIP3    H164522   4.647   3.230   0.063  0.4020  1.9110 -0.2521
14369TIP3    H264523   4.539   3.273  -0.034 -0.9764 -1.3106 -0.2097
14370TIP3   OH264524   4.528   0.794  14.735 -0.0298  0.2794  0.1127
14370TIP3    H164525   4.559   0.706  14.756 -0.3269  0.4136  1.0993
14370TIP3    H264526   4.471   0.818  14.807  0.2695  1.3990 -0.0135
14371TIP3   OH264527   5.006   3.145   2.737  0.1035 -0.1824 -0.2240
14371TIP3    H164528   5.050   3.102   2.810 -1.5827 -0.2839  0.7524
14371TIP3    H264529   4.969   3.224   2.775 -0.6815 -0.1731 -1.0025
14372TIP3   OH264530   1.686   4.582  15.825  0.5863  0.8427  0.3432
14372TIP3    H164531   1.778   4.605  15.812  0.6249  0.9322  0.7867
14372TIP3    H264532   1.670   4.513  15.760  1.3321 -0.1122  1.1472
14373TIP3   OH264533   0.547   1.654   4.813  0.1331  0.5479  0.0307
14373TIP3    H164534   0.573   1.659   4.721  1.3460  0.4202  0.3491
14373TIP3    H264535   0.623   1.613   4.856 -1.2176 -1.2588  0.7623
14374TIP3   OH264536   4.279   2.065  14.780  0.5090 -0.3426 -0.1796
14374TIP3    H164537   4.291   2.035  14.689  0.2100  2.3457 -1.1287
14374TIP3    H264538   4.331   2.004  14.832 -2.9171 -4.8070 -1.6432
14375TIP3   OH264539   3.161   0.206   5.921 -0.0587 -0.2999 -0.4045
14375TIP3    H164540   3.150   0.180   6.013  2.0767  0.0119 -0.0296
14375TIP3    H264541   3.145   0.300   5.921  1.6307 -0.0022 -0.0269
14376TIP3   OH264542   4.877   5.201  14.442 -0.3361 -0.8680  0.1969
14376TIP3    H164543   4.870   5.220  14.536 -0.2378  2.2214 -0.3687
14376TIP3    H264544   4.794   5.161  14.419 -0.9170 -0.3181  1.3151
14377TIP3   OH264545   0.648   3.195   2.175 -0.1511 -0.5151  0.0609
14377TIP3    H164546   0.583   3.224   2.111 -1.2379 -0.8775  0.9815
14377TIP3    H264547   0.597   3.176   2.254  0.7591 -3.0367  0.1003
14378TIP3   OH264548   5.093   3.434  15.919  0.0810 -0.4218  0.3564
14378TIP3    H164549   5.146   3.421  15.997  0.1180 -1.1060  0.2260
14378TIP3    H264550   5.155   3.424  15.846  0.0773  0.3633  0.2419
14379TIP3   OH264551   4.709   2.048  12.966  0.0011 -0.1291  0.1886
14379TIP3    H164552   4.777   2.051  13.033 -0.2277  0.8057  0.3896
14379TIP3    H264553   4.632   2.014  13.010 -0.0328  0.0866  0.2952
14380TIP3   OH264554   0.818   6.143   0.197  0.0532 -0.2948 -0.2926
14380TIP3    H164555   0.868   6.061   0.200 -0.1602 -0.4771 -1.4032
14380TIP3    H264556   0.866   6.197   0.134 -1.0214 -0.3835 -1.1998
14381TIP3   OH264557   1.886   4.076  11.106 -0.0623 -0.4306 -0.2474
14381TIP3    H164558   1.946   4.006  11.132  0.1375 -0.4156 -0.6533
14381TIP3    H264559   1.816   4.031  11.058  0.0868 -0.3513 -0.5426
14382TIP3   OH264560   0.522   2.795  14.116  0.0398 -0.0104 -0.6228
14382TIP3    H164561   0.473   2.767  14.193 -0.0234  1.9577  0.0588
14382TIP3    H264562   0.479   2.750  14.043 -1.6923  0.3531  0.1607
14383TIP3   OH264563   2.104   5.724  13.840  0.2658  0.3327  0.2628
14383TIP3    H164564   2.194   5.746  13.865  0.7055 -0.7809 -0.3052
14383TIP3    H264565   2.063   5.693  13.921  0.8124 -0.4704  0.2400
14384TIP3   OH264566   0.434   3.801  10.440 -0.1990 -0.3598  0.1520
14384TIP3    H164567   0.470   3.722  10.400 -1.7790 -1.1705  0.2913
14384TIP3    H264568   0.504   3.833  10.496  0.3956 -1.7681  0.2447
14385TIP3   OH264569   2.672   2.605   0.906  0.2487 -0.0658 -0.4248
14385TIP3    H164570   2.683   2.696   0.876 -1.5486  1.0467  2.1216
14385TIP3    H264571   2.761   2.577   0.928  0.5157  2.0938  1.4562
14386TIP3   OH264572   5.192   1.485  16.729  0.2637  0.4596 -0.4196
14386TIP3    H164573   5.248   1.455  16.657 -1.1662 -1.3445 -0.8145
14386TIP3    H264574   5.254   1.514  16.796  1.6789 -1.1035 -1.0073
14387TIP3   OH264575   0.009   5.367  14.350  0.4658  0.1780  0.3565
14387TIP3    H164576   0.042   5.278  14.337  1.5048  0.5116  0.6420
14387TIP3    H264577  -0.071   5.371  14.298  1.6939 -0.1707 -1.5841
14388TIP3   OH264578   3.385   2.321  15.703 -0.1482  0.3627 -0.4020
14388TIP3    H164579   3.354   2.408  15.679 -0.5782  0.0540 -0.9816
14388TIP3    H264580   3.306   2.267  15.704 -0.1968  0.4337  2.0601
14389TIP3   OH264581   0.618   6.400  11.164  0.2909  0.0949  0.1977
14389TIP3    H164582   0.621   6.490  11.197 -0.6359  0.2014  0.0066
14389TIP3    H264583   0.525   6.381  11.154  0.4586 -1.0992  0.8016
14390TIP3   OH264584   5.665   3.135  17.107  0.1097 -0.2552  0.3317
14390TIP3    H164585   5.641   3.101  17.193 -0.5052 -2.0536 -0.5184
14390TIP3    H264586   5.759   3.121  17.100 -0.0550 -1.3161  0.1995
14391TIP3   OH264587   0.323   1.532   4.924  0.0980 -0.2424 -0.0071
14391TIP3    H164588   0.375   1.604   4.889  0.5291 -0.4643  0.1874
14391TIP3    H264589   0.243   1.574   4.956  0.1366  0.0867 -0.3430
14392TIP3   OH264590   0.322   3.222  15.814 -0.2137  0.6867  0.1892
14392TIP3    H164591   0.346   3.302  15.861 -0.7870  2.9898 -3.2017
14392TIP3    H264592   0.381   3.221  15.738  0.6530 -2.8477  0.8493
14393TIP3   OH264593   2.365   4.501  12.122  0.5358 -0.1457  0.0234
14393TIP3    H164594   2.431   4.439  12.092 -1.1392 -1.3193 -1.2873
14393TIP3    H264595   2.414   4.582  12.140  2.5094 -1.3935  0.3661
14394TIP3   OH264596   6.784   5.345   0.338 -0.5798  0.5575  0.3488
14394TIP3    H164597   6.758   5.351   0.430 -2.3168 -1.3904  0.0162
14394TIP3    H264598   6.739   5.268   0.305  4.2994 -2.0706 -0.7072
14395TIP3   OH264599   2.474   0.473  12.890 -0.0006  0.0133 -0.1510
14395TIP3    H164600   2.478   0.521  12.807 -0.5940 -1.5809 -1.1090
14395TIP3    H264601   2.565   0.465  12.918  0.0475  2.6529  0.5969
14396TIP3   OH264602   1.708   6.361  11.745  0.0669 -0.0355 -0.2674
14396TIP3    H164603   1.784   6.313  11.777 -0.9148 -0.7175  1.1089
14396TIP3    H264604   1.679   6.413  11.820 -1.7484 -0.9928 -0.2530
14397TIP3   OH264605   0.837   0.844  15.342 -0.2083  0.2332  0.1657
14397TIP3    H164606   0.788   0.780  15.393 -0.3009 -0.3378 -0.6265
14397TIP3    H264607   0.914   0.864  15.395 -0.0610 -0.7137  0.3140
14398TIP3   OH264608   4.800   0.214  14.710 -0.1452  0.6526  0.0242
14398TIP3    H164609   4.884   0.260  14.711 -0.3874  1.1139 -0.5172
14398TIP3    H264610   4.742   0.271  14.660 -0.4746 -0.2000 -0.5916
14399TIP3   OH264611   6.091   0.338  14.694  0.3460 -0.2662 -0.3525
14399TIP3    H164612   6.142   0.338  14.612 -1.0403 -0.5991 -1.2229
14399TIP3    H264613   6.005   0.306  14.669  0.2477 -1.5302  1.4693
14400TIP3   OH264614   6.435   4.641  14.787  0.0259 -0.2277 -0.6453
14400TIP3    H164615   6.446   4.546  14.790  1.7838 -0.0382 -0.4136
14400TIP3    H264616   6.386   4.663  14.866 -1.4489 -1.0704 -1.3185
14401TIP3   OH264617   1.937   3.399  14.031 -0.2067  0.1574 -0.1408
14401TIP3    H164618   1.985   3.478  14.053  1.0724 -0.3836 -0.9242
14401TIP3    H264619   1.923   3.405  13.936  0.2171 -0.7308 -0.2600
14402TIP3   OH264620   6.670   6.020   4.397 -0.2726 -0.2020  0.0724
14402TIP3    H164621   6.620   6.080   4.341  1.1277 -0.9178 -2.0101
14402TIP3    H264622   6.730   6.076   4.445 -1.8857  0.4835  1.3281
14403TIP3   OH264623   6.126   3.218   1.818 -0.2919  0.2076 -0.0575
14403TIP3    H164624   6.173   3.138   1.840  0.1757  0.0185 -1.6548
14403TIP3    H264625   6.137   3.274   1.894  4.2405  0.9080 -1.0847
14404TIP3   OH264626   6.601   6.627  10.960  0.1044  0.0398 -0.2680
14404TIP3    H164627   6.557   6.627  10.875 -0.6963 -1.0694  0.1279
14404TIP3    H264628   6.661   6.701  10.956 -0.9184  0.8321 -1.2819
14405TIP3   OH264629   0.729   5.573  16.070  0.4101  0.6220 -0.4140
14405TIP3    H164630   0.708   5.520  16.147  1.3076 -0.3079 -0.7826
14405TIP3    H264631   0.676   5.535  16.000  2.4262 -1.0400 -1.1032
14406TIP3   OH264632   3.849   1.868   4.612 -0.2346 -0.1772  0.1887
14406TIP3    H164633   3.836   1.952   4.566  3.2260 -0.1185 -0.8719
14406TIP3    H264634   3.928   1.832   4.572 -1.3392 -3.6939  1.0750
14407TIP3   OH264635   1.371   3.035   5.049  0.0123  0.0933 -0.9381
14407TIP3    H164636   1.361   3.095   5.123  0.1635 -0.9165 -0.0703
14407TIP3    H264637   1.381   3.091   4.973 -2.1322  1.1675 -0.4682
14408TIP3   OH264638   3.279   4.781  16.916  0.7770  0.2505  0.2169
14408TIP3    H164639   3.282   4.846  16.845 -1.5327 -1.7648 -1.8319
14408TIP3    H264640   3.342   4.713  16.888  1.2422  0.3447  1.0354
14409TIP3   OH264641   4.964   2.331  13.313  0.9127  0.0238  0.3234
14409TIP3    H164642   4.978   2.424  13.293  3.0357 -0.0992  1.1626
14409TIP3    H264643   5.021   2.285  13.252 -1.2587 -0.8349 -1.1312
14410TIP3   OH264644   1.912   0.712   5.041 -0.2459  0.9564 -0.1191
14410TIP3    H164645   1.990   0.715   4.986  0.6833  1.6068  1.2043
14410TIP3    H264646   1.844   0.755   4.988  0.8708  2.4346 -0.4020
14411TIP3   OH264647   5.785   5.571  14.129 -0.3582 -1.5593 -0.0092
14411TIP3    H164648   5.693   5.593  14.113  0.3242  0.6597 -1.1482
14411TIP3    H264649   5.798   5.488  14.084 -0.6362  0.4887 -4.1246
14412TIP3   OH264650   2.317   6.020  12.365 -0.1060  0.5308  0.0644
14412TIP3    H164651   2.282   5.931  12.375 -1.2963  1.0401  0.5658
14412TIP3    H264652   2.261   6.061  12.299 -0.5027  1.3639  0.8956
14413TIP3   OH264653   6.644   6.662  11.840 -0.0107  0.1714  0.1502
14413TIP3    H164654   6.571   6.710  11.802 -0.6421  0.4576  1.7060
14413TIP3    H264655   6.686   6.620  11.765 -2.1010 -0.4745 -0.6927
14414TIP3   OH264656   4.434   4.112  15.580 -0.1736  0.5181  0.7123
14414TIP3    H164657   4.530   4.105  15.584 -0.0249  2.6075  1.6444
14414TIP3    H264658   4.405   4.096  15.670 -0.9014 -2.2487  0.0213
14415TIP3   OH264659   6.632   4.772   4.973 -0.0187 -0.0310  0.0839
14415TIP3    H164660   6.694   4.845   4.977  0.3074 -0.2960 -0.0561
14415TIP3    H264661   6.599   4.773   4.883  0.4836 -0.4608 -0.1080
14416TIP3   OH264662   3.376   1.632   6.004 -0.0647 -0.0647 -0.0466
14416TIP3    H164663   3.293   1.634   6.051 -0.4028 -1.4862 -0.5321
14416TIP3    H264664   3.426   1.563   6.048  1.8108  2.3732  1.7553
14417TIP3   OH264665   6.192   0.689  16.519  0.2954  0.4960  0.0897
14417TIP3    H164666   6.167   0.598  16.539 -0.2919  0.0262 -2.5423
14417TIP3    H264667   6.117   0.741  16.547 -0.4990 -0.1322 -0.8131
14418TIP3   OH264668   3.470   1.179  16.842 -0.3144  0.1716 -0.0624
14418TIP3    H164669   3.404   1.169  16.773 -0.2238  1.9665 -0.4226
14418TIP3    H264670   3.553   1.164  16.797 -0.2446  1.4999 -0.3914
14419TIP3   OH264671   5.892   4.152   5.272  0.2738  0.2396  0.1654
14419TIP3    H164672   5.858   4.239   5.293  1.2029  0.5497  0.4564
14419TIP3    H264673   5.823   4.091   5.297  0.9917  0.6471  3.4110
14420TIP3   OH264674   4.687   4.539  15.226  0.4629  0.1404  0.1616
14420TIP3    H164675   4.636   4.462  15.201  0.3717  0.2252  0.0863
14420TIP3    H264676   4.675   4.600  15.153 -0.3262  0.6422  0.7040
14421TIP3   OH264677   4.241   0.961  16.897  0.0886  0.0315  0.1418
14421TIP3    H164678   4.169   0.917  16.853 -0.6460  1.9484 -0.6160
14421TIP3    H264679   4.313   0.960  16.834  0.3683 -0.8589  0.4674
14422TIP3   OH264680   1.708   0.693   6.451  0.4573  0.0317 -0.3263
14422TIP3    H164681   1.708   0.772   6.505  1.7055 -0.8295  0.9936
14422TIP3    H264682   1.796   0.656   6.465 -1.4509 -3.8181  2.4296
14423TIP3   OH264683   6.173   2.378   4.724  0.3261  0.4142 -0.3430
14423TIP3    H164684   6.247   2.419   4.769  1.3138 -0.4184 -1.1740
14423TIP3    H264685   6.142   2.310   4.784 -0.3418  1.3571  0.3866
14424TIP3   OH264686   3.861   5.086   1.486 -0.0165  0.1544 -0.2861
14424TIP3    H164687   3.927   5.091   1.556  1.0873  0.3567 -1.3283
14424TIP3    H264688   3.897   5.022   1.424  0.4278  2.1322 -2.1279
14425TIP3   OH264689   1.035   2.584   1.451  0.1013  0.3582 -1.0745
14425TIP3    H164690   1.012   2.561   1.361  0.7754 -0.3652 -1.0715
14425TIP3    H264691   1.060   2.677   1.446  0.7962  0.1463 -1.7672
14426TIP3   OH264692   5.333   2.238  13.792  0.8296  0.2927 -0.3078
14426TIP3    H164693   5.386   2.187  13.731  0.9549  1.0330 -0.8175
14426TIP3    H264694   5.254   2.186  13.805  2.1724 -1.3945  1.3581
14427TIP3   OH264695   4.328   3.292  14.206  0.5178  0.3555 -0.3017
14427TIP3    H164696   4.260   3.230  14.233 -2.9909  3.4742 -1.4956
14427TIP3    H264697   4.375   3.247  14.136 -1.4057 -1.3062 -0.5735
14428TIP3   OH264698   2.569   2.470   3.566 -0.5952 -0.0475 -0.2110
14428TIP3    H164699   2.526   2.482   3.482 -1.7348  0.2224  0.4033
14428TIP3    H264700   2.516   2.404   3.611 -0.5330  0.4876  0.6565
14429TIP3   OH264701   6.260   6.267   1.931  0.3711 -0.7516  0.1971
14429TIP3    H164702   6.237   6.175   1.913 -1.9283 -0.5204  1.8346
14429TIP3    H264703   6.259   6.274   2.026  0.2012  1.0741  0.0750
14430TIP3   OH264704   2.090   5.202   0.289  0.4163 -0.0777 -0.2744
14430TIP3    H164705   2.178   5.174   0.315  0.1885  0.0142  0.6374
14430TIP3    H264706   2.050   5.231   0.371 -0.8489 -1.1596 -0.5017
14431TIP3   OH264707   5.988   1.622   4.806 -0.5124 -0.4591  0.0760
14431TIP3    H164708   6.018   1.539   4.768 -1.5272 -1.2462  0.9548
14431TIP3    H264709   5.900   1.603   4.839 -0.0695  0.4785  1.8880
14432TIP3   OH264710   4.430   1.349  14.099 -0.2513 -0.2766 -0.0029
14432TIP3    H164711   4.380   1.386  14.025  0.3307  1.4321  0.4246
14432TIP3    H264712   4.412   1.410  14.171  1.1634 -0.5590  0.5841
14433TIP3   OH264713   4.271   0.944   5.462  0.2697  0.6649 -0.5302
14433TIP3    H164714   4.269   0.872   5.399 -0.5663  0.0286  0.2086
14433TIP3    H264715   4.217   1.013   5.422 -0.7892  0.0189 -0.2248
14434TIP3   OH264716   6.275   1.631   2.092  0.0415 -0.3865  0.4928
14434TIP3    H164717   6.277   1.553   2.147 -1.5617 -1.6947 -1.2936
14434TIP3    H264718   6.191   1.673   2.111 -0.2400 -0.4966 -0.4694
14435TIP3   OH264719   5.052   0.467  16.292 -0.4233 -0.4535  0.6276
14435TIP3    H164720   4.971   0.420  16.306 -0.3552 -1.1646 -1.2521
14435TIP3    H264721   5.121   0.406  16.317 -0.4044 -0.5713  0.2892
14436TIP3   OH264722   5.214   5.858  15.168 -0.4789 -0.2758 -1.6777
14436TIP3    H164723   5.168   5.914  15.231 -0.7483  0.1693 -2.2752
14436TIP3    H264724   5.283   5.913  15.132  0.8357 -1.0833 -0.4433
14437TIP3   OH264725   0.308   4.264   0.875 -0.2825 -0.9765  0.4070
14437TIP3    H164726   0.284   4.177   0.907 -2.3378 -0.5627  0.0495
14437TIP3    H264727   0.317   4.317   0.954  3.4996 -2.0481  0.8255
14438TIP3   OH264728   3.125   1.722  12.803  0.3076 -0.5198 -0.1181
14438TIP3    H164729   3.111   1.757  12.891 -0.3163 -1.7060  0.2686
14438TIP3    H264730   3.048   1.749  12.753  0.0244 -0.9755  0.0687
14439TIP3   OH264731   6.727   5.365  13.229 -0.4101  0.5068  0.3956
14439TIP3    H164732   6.654   5.340  13.172 -0.2716  0.7358  0.1201
14439TIP3    H264733   6.754   5.451  13.197 -0.5387  0.7761  1.0070
14440TIP3   OH264734   5.838   5.319   6.396  0.4389 -0.1925 -0.0514
14440TIP3    H164735   5.904   5.331   6.328 -0.3251 -1.6965 -1.0772
14440TIP3    H264736   5.773   5.261   6.357  0.6536 -2.1810  2.4043
14441TIP3   OH264737   5.307   2.792  11.646  0.1854  0.2848  0.2129
14441TIP3    H164738   5.329   2.709  11.604 -0.6453  0.1241  0.0866
14441TIP3    H264739   5.389   2.821  11.687  0.2067 -1.1741  1.2556
14442TIP3   OH264740   6.675   6.476   1.806 -0.5219  0.3844 -0.2238
14442TIP3    H164741   6.757   6.522   1.792 -0.1544  0.1995  1.2540
14442TIP3    H264742   6.638   6.465   1.719  0.5291  1.3693 -0.7975
14443TIP3   OH264743   1.537   6.771  12.390  0.2823  0.2111 -0.1775
14443TIP3    H164744   1.459   6.731  12.428  0.6735  0.0272  0.4512
14443TIP3    H264745   1.530   6.864  12.412 -0.7012  0.5334 -1.7690
14444TIP3   OH264746   5.575   2.733   5.017  0.1524  0.3857  0.2036
14444TIP3    H164747   5.642   2.769   4.959  1.1237 -0.8512  0.5208
14444TIP3    H264748   5.625   2.684   5.083 -1.0644 -0.4631  0.5048
14445TIP3   OH264749   0.734   6.062   6.533 -0.1157  0.0762 -0.1267
14445TIP3    H164750   0.785   5.998   6.582 -1.9905 -0.0837  1.6935
14445TIP3    H264751   0.789   6.085   6.458  1.6610 -1.7180  0.5916
14446TIP3   OH264752   4.790   5.798   0.671 -0.1869 -1.2302 -0.1774
14446TIP3    H164753   4.774   5.801   0.765  3.2261  0.0186  0.4546
14446TIP3    H264754   4.869   5.745   0.662  0.5877  0.1996 -2.1448
14447TIP3   OH264755   0.242   2.149   5.416  0.0727 -0.1113 -0.1355
14447TIP3    H164756   0.328   2.150   5.375  0.4128  1.1868  0.5899
14447TIP3    H264757   0.226   2.057   5.436  1.7099 -0.2415  0.6238
14448TIP3   OH264758   6.293   0.078   6.110  0.1974  0.3548  0.0041
14448TIP3    H164759   6.245  -0.005   6.116  0.0028  0.5356  0.9760
14448TIP3    H264760   6.266   0.127   6.187  1.2239  0.8427  0.0634
14449TIP3   OH264761   3.474   3.758  16.035 -0.0356 -0.2769 -0.0227
14449TIP3    H164762   3.529   3.778  15.960 -0.9362  0.7135 -0.4288
14449TIP3    H264763   3.410   3.695  16.002 -0.5389  0.2899 -0.1366
14450TIP3   OH264764   2.558   3.221   2.338 -0.2987 -0.9107 -0.3455
14450TIP3    H164765   2.522   3.134   2.353 -0.9482 -0.6876 -0.5912
14450TIP3    H264766   2.651   3.213   2.359 -0.8241 -1.0491  2.0562
14451TIP3   OH264767   2.341   0.777   3.078  0.1272 -0.2824  0.4886
14451TIP3    H164768   2.302   0.817   3.000  1.2071  0.6945  0.4314
14451TIP3    H264769   2.416   0.728   3.045  0.0346 -0.6438  0.8126
14452TIP3   OH264770   0.512   4.590   4.200  0.1830  0.6050 -0.4360
14452TIP3    H164771   0.541   4.672   4.239  1.5042 -1.1320  2.4307
14452TIP3    H264772   0.497   4.532   4.275 -1.0386 -1.6582 -2.3679
14453TIP3   OH264773   6.651   0.057   4.437  0.0657  0.3506  0.9934
14453TIP3    H164774   6.746   0.047   4.432  0.0706 -0.1755  1.9549
14453TIP3    H264775   6.620   0.040   4.348  1.0984  3.1803  0.0530
14454TIP3   OH264776   6.405   5.730  14.626  0.0802 -0.0248 -0.2638
14454TIP3    H164777   6.485   5.726  14.573  0.5800 -0.2146  0.4863
14454TIP3    H264778   6.353   5.655  14.596 -0.6336  1.1331 -2.0091
14455TIP3   OH264779   4.442   4.246  16.551  0.2532  0.1788  0.3607
14455TIP3    H164780   4.385   4.317  16.580 -2.0554 -0.7185 -1.8440
14455TIP3    H264781   4.490   4.284  16.477  1.2602  0.3731  1.1022
14456TIP3   OH264782   1.199   4.632  14.176 -0.0665  0.6035  0.2289
14456TIP3    H164783   1.163   4.581  14.248  1.9692  0.3079  1.0822
14456TIP3    H264784   1.287   4.597  14.163  0.1283  1.6264 -1.4385
14457TIP3   OH264785   1.243   6.018  13.585  0.2706 -0.3973 -0.0912
14457TIP3    H164786   1.224   5.924  13.579  1.6512 -0.6562 -0.6172
14457TIP3    H264787   1.264   6.033  13.677 -2.4794 -0.0812  0.5363
14458TIP3   OH264788   5.715   1.216  16.143 -0.3471  0.1357 -0.0981
14458TIP3    H164789   5.707   1.202  16.237  0.3035  1.0653  0.0939
14458TIP3    H264790   5.782   1.154  16.115 -0.5279 -0.1286  0.0449
14459TIP3   OH264791   3.570   5.235  11.285  0.6864 -0.0378 -0.5945
14459TIP3    H164792   3.624   5.273  11.216 -0.3836  0.6954 -1.0424
14459TIP3    H264793   3.567   5.142  11.265 -0.4014  0.3056 -2.1061
14460TIP3   OH264794   2.076   1.125  13.081 -0.9859  0.6116 -0.1956
14460TIP3    H164795   2.011   1.190  13.053 -0.6401  0.9506 -0.2116
14460TIP3    H264796   2.153   1.143  13.027 -1.1685 -0.3474 -0.7942
14461TIP3   OH264797   6.731   3.545   5.474  0.4257 -0.4309 -0.2211
14461TIP3    H164798   6.779   3.585   5.546  0.7828 -0.8673 -0.2160
14461TIP3    H264799   6.797   3.532   5.405  0.0390  0.2206 -0.7242
14462TIP3   OH264800   6.306   5.077  14.869 -0.2399  0.2514  0.0609
14462TIP3    H164801   6.363   5.095  14.943 -0.5466  0.6354  0.2030
14462TIP3    H264802   6.350   5.007  14.821  0.4305  0.6497  0.0862
14463TIP3   OH264803   0.777   1.828  16.603  0.3008  0.7916  0.2522
14463TIP3    H164804   0.808   1.744  16.569 -1.1658  0.2028  0.3277
14463TIP3    H264805   0.733   1.807  16.685 -1.5572  1.3816 -0.5480
14464TIP3   OH264806   2.538   5.071  14.763 -0.0175  0.2386  0.0250
14464TIP3    H164807   2.631   5.050  14.778 -0.2546 -1.6103 -0.9302
14464TIP3    H264808   2.492   5.025  14.834 -0.5115 -2.2945 -1.8559
14465TIP3   OH264809   3.344   4.063  15.563  0.2235 -0.0944 -0.0378
14465TIP3    H164810   3.266   4.096  15.607 -1.3136 -2.3286 -0.9838
14465TIP3    H264811   3.311   3.997  15.502  2.5339  1.0983 -2.7218
14466TIP3   OH264812   4.194   4.877   5.088 -0.2470  0.3830 -0.4313
14466TIP3    H164813   4.275   4.848   5.047 -0.0328  1.1359 -0.5499
14466TIP3    H264814   4.215   4.963   5.125 -0.7392  0.1859  0.3187
14467TIP3   OH264815   5.634   5.547  11.278  0.5145 -0.2447  0.4403
14467TIP3    H164816   5.714   5.589  11.311  0.7153 -0.4524  0.2200
14467TIP3    H264817   5.660   5.510  11.193  0.5871 -1.5784  1.0195
14468TIP3   OH264818   4.619   1.387  15.215  0.5137 -0.0112  0.3503
14468TIP3    H164819   4.671   1.443  15.157  1.1224 -1.1428 -0.2044
14468TIP3    H264820   4.548   1.444  15.246  0.3559  0.6896 -1.2613
14469TIP3   OH264821   3.803   0.786  14.010 -0.2231 -0.0768 -0.3801
14469TIP3    H164822   3.774   0.878  14.007  2.5208  0.9574  2.1940
14469TIP3    H264823   3.753   0.747  14.081  0.9642  0.3690  0.7325
14470TIP3   OH264824   6.744   3.334   3.972 -0.0305 -0.4718 -0.1112
14470TIP3    H164825   6.671   3.360   4.028 -0.7377  0.9930 -1.6651
14470TIP3    H264826   6.706   3.328   3.884  1.6207 -0.0464 -0.8761
14471TIP3   OH264827   4.378   6.109   5.590 -0.2796 -0.5543 -0.5477
14471TIP3    H164828   4.353   6.187   5.541  0.7504 -0.5891 -1.1586
14471TIP3    H264829   4.320   6.107   5.665  0.0794  1.1313 -0.2060
14472TIP3   OH264830   3.982   6.218  14.413  0.1617 -0.3954 -1.0372
14472TIP3    H164831   3.953   6.163  14.487  1.7287  0.4998  0.2741
14472TIP3    H264832   3.996   6.157  14.341  0.9094 -1.5970  0.1126
14473TIP3   OH264833   1.715   5.562  16.589  0.8719  0.0221  0.0136
14473TIP3    H164834   1.730   5.505  16.664  1.6841  0.1290 -0.0659
14473TIP3    H264835   1.754   5.646  16.615 -0.6878  0.6758  0.3033
14474TIP3   OH264836   5.961   2.560  12.666 -0.2263 -0.3912 -0.5689
14474TIP3    H164837   5.946   2.485  12.724 -2.1398  0.2895 -0.1249
14474TIP3    H264838   6.018   2.527  12.597  0.4634 -1.7504  0.6394
14475TIP3   OH264839   0.679   4.695  15.929  0.2006  0.1580 -0.0741
14475TIP3    H164840   0.605   4.676  15.872  1.2730 -1.2178 -1.0380
14475TIP3    H264841   0.654   4.659  16.014 -0.4277  0.1301 -0.2697
14476TIP3   OH264842   5.818   3.009   2.275 -0.4505 -0.1256 -0.2762
14476TIP3    H164843   5.723   3.005   2.263 -0.3668  0.8308 -1.3744
14476TIP3    H264844   5.849   2.925   2.242 -1.1426 -1.5779  2.6521
14477TIP3   OH264845   0.835   1.029  13.344  0.0610 -0.6160  0.4130
14477TIP3    H164846   0.799   0.944  13.369  1.2653 -1.8153 -1.8594
14477TIP3    H264847   0.917   1.009  13.300 -0.1720  1.6426 -1.1471
14478TIP3   OH264848   1.758   6.467  14.202  0.2220  0.0409 -0.3023
14478TIP3    H164849   1.822   6.506  14.142 -1.2154  0.5403 -1.5272
14478TIP3    H264850   1.678   6.460  14.151 -0.5150 -1.2619  0.9994
14479TIP3   OH264851   4.330   2.301  15.560 -0.1974 -0.1488  0.0624
14479TIP3    H164852   4.407   2.347  15.526  0.3962 -0.3010  1.1805
14479TIP3    H264853   4.314   2.230  15.498  0.4563 -0.0085 -0.2661
14480TIP3   OH264854   1.728   6.710  11.417 -0.3384  0.0834  0.4287
14480TIP3    H164855   1.716   6.722  11.512  0.8566  0.4938  0.5260
14480TIP3    H264856   1.662   6.768  11.378  1.1381  2.1853  0.9750
14481TIP3   OH264857   1.322   0.745   2.721  0.6219  0.5268  0.2950
14481TIP3    H164858   1.372   0.666   2.701  0.1767  0.4367 -0.4753
14481TIP3    H264859   1.304   0.739   2.815  1.0547 -0.0178  0.3425
14482TIP3   OH264860   2.816   1.688  11.450 -0.2017 -0.6497  0.2474
14482TIP3    H164861   2.822   1.761  11.511 -1.0530  1.1431 -1.7877
14482TIP3    H264862   2.722   1.672  11.440 -0.1490  0.0627 -1.7032
14483TIP3   OH264863   5.372   2.555   3.574  0.5495 -0.2420  0.1502
14483TIP3    H164864   5.284   2.540   3.608  0.9141 -0.8111  0.8491
14483TIP3    H264865   5.400   2.469   3.541  1.6501 -0.5738  1.8433
14484TIP3   OH264866   6.090   1.887   0.185  0.4096  0.5032 -0.3877
14484TIP3    H164867   6.076   1.797   0.156  0.5357  0.5770 -0.6851
14484TIP3    H264868   6.154   1.922   0.123  0.1459  0.8855 -0.4463
14485TIP3   OH264869   0.595   2.227  13.326 -0.5117 -0.4243 -0.0063
14485TIP3    H164870   0.653   2.301  13.312  0.3904 -1.0035  0.6377
14485TIP3    H264871   0.651   2.150  13.319 -1.0305 -0.9536  1.4529
14486TIP3   OH264872   3.108   5.469  12.466  0.1684  0.5393 -0.0717
14486TIP3    H164873   3.109   5.381  12.504  1.5528  0.2176 -0.8550
14486TIP3    H264874   3.019   5.500  12.482 -1.1241 -1.9726 -1.9658
14487TIP3   OH264875   4.800   0.501   0.949 -0.1836  0.2254 -0.3111
14487TIP3    H164876   4.890   0.513   0.979 -0.7504  1.0611  1.0849
14487TIP3    H264877   4.809   0.459   0.863  1.4874 -1.1352  0.4880
14488TIP3   OH264878   1.251   2.878  11.426 -0.6172 -0.0515  0.6647
14488TIP3    H164879   1.176   2.932  11.452 -2.2148 -2.5842  1.5097
14488TIP3    H264880   1.252   2.807  11.489  1.2650 -1.1702 -0.5839
14489TIP3   OH264881   3.303   1.491   0.503  0.0331 -0.7677 -0.6028
14489TIP3    H164882   3.273   1.418   0.450  0.2602 -0.0478 -1.7432
14489TIP3    H264883   3.243   1.562   0.483  1.1924  0.0408 -1.2586
14490TIP3   OH264884   6.088   1.654   5.532  0.6452  0.0297 -0.1989
14490TIP3    H164885   6.018   1.594   5.561  0.8663 -0.6367 -1.0388
14490TIP3    H264886   6.044   1.714   5.472  0.5999  0.1954 -0.0009
14491TIP3   OH264887   6.692   2.738   0.428 -0.0729 -0.1533  0.2786
14491TIP3    H164888   6.742   2.761   0.506 -0.2941 -0.8308  0.6208
14491TIP3    H264889   6.678   2.644   0.435  0.3726 -0.3185 -0.8485
14492TIP3   OH264890   3.427   6.700   0.181 -0.0251 -0.0149  0.4751
14492TIP3    H164891   3.439   6.618   0.133 -0.9062 -1.0544  1.9703
14492TIP3    H264892   3.498   6.701   0.245  0.6620  0.9619 -0.2940
14493TIP3   OH264893   2.841   1.106  14.574  0.2016 -0.1028 -0.3524
14493TIP3    H164894   2.877   1.191  14.548 -1.0425  0.6816  0.4455
14493TIP3    H264895   2.776   1.087  14.506  0.4118 -0.3605 -0.4781
14494TIP3   OH264896   5.881   6.116   4.687  0.0953  0.8523 -0.1240
14494TIP3    H164897   5.833   6.098   4.768  0.0762 -1.1894 -0.5628
14494TIP3    H264898   5.973   6.116   4.714 -0.0465  2.7447  0.3560
14495TIP3   OH264899   2.077   5.345  12.865  0.0129  0.1081 -0.2051
14495TIP3    H164900   2.166   5.318  12.888  0.8614  1.3224 -2.0115
14495TIP3    H264901   2.072   5.437  12.891 -0.3508  0.3560 -1.1651
14496TIP3   OH264902   1.536   4.362  12.182  0.9825  0.4755 -0.3372
14496TIP3    H164903   1.468   4.428  12.196  0.4871 -0.1171  0.0916
14496TIP3    H264904   1.489   4.279  12.184  2.0345 -0.0984  2.2725
14497TIP3   OH264905   5.493   0.445  12.028  0.1388  0.2368 -0.3533
14497TIP3    H164906   5.410   0.415  12.065 -0.4489  2.0399 -0.1759
14497TIP3    H264907   5.473   0.464  11.937  0.1758  1.4323 -0.1090
14498TIP3   OH264908   4.279   0.865   0.589 -0.3000  0.2929 -0.0125
14498TIP3    H164909   4.362   0.909   0.605 -0.1319 -0.0356  0.0385
14498TIP3    H264910   4.303   0.786   0.540 -0.3936 -0.6515  1.4376
14499TIP3   OH264911   3.733   5.693  11.046  0.1634 -0.1583 -0.4584
14499TIP3    H164912   3.789   5.694  11.124 -0.0768 -0.4705 -0.2827
14499TIP3    H264913   3.692   5.779  11.045 -1.2994 -0.8189  0.8254
14500TIP3   OH264914   4.820   0.434  11.223  0.3887  0.9599 -0.2839
14500TIP3    H164915   4.822   0.356  11.279  2.2613  0.6065 -0.8124
14500TIP3    H264916   4.830   0.507  11.283  1.5216  0.6334 -0.0769
14501TIP3   OH264917   5.239   1.318  15.572  0.1998  0.3137 -0.4054
14501TIP3    H164918   5.145   1.318  15.591 -0.1659  0.6762 -2.1378
14501TIP3    H264919   5.248   1.377  15.498  1.8335  0.4025 -0.1486
14502TIP3   OH264920   5.302   3.436   2.021 -0.2935  0.2260  0.0975
14502TIP3    H164921   5.219   3.484   2.015 -0.8700 -0.6385  1.0573
14502TIP3    H264922   5.286   3.367   2.085  0.3437 -1.6705 -1.7203
14503TIP3   OH264923   4.142   2.943  14.880  0.0010  0.5353  0.0282
14503TIP3    H164924   4.101   2.958  14.965  0.3344 -0.1554  0.3126
14503TIP3    H264925   4.190   3.025  14.862 -0.5609  0.9088  0.2143
14504TIP3   OH264926   4.808   3.616   6.318  0.0947 -0.8235 -0.1153
14504TIP3    H164927   4.786   3.538   6.369 -0.6247 -0.5499 -0.0054
14504TIP3    H264928   4.723   3.650   6.288  0.2188  1.1522  1.6243
14505TIP3   OH264929   5.400   3.092  13.236  0.2533  0.1676  0.2504
14505TIP3    H164930   5.375   3.184  13.243  0.1008  0.1501 -0.1157
14505TIP3    H264931   5.437   3.072  13.322 -1.9638 -0.1111  1.1633
14506TIP3   OH264932   2.418   6.585   2.813 -0.0984 -0.1752 -0.6593
14506TIP3    H164933   2.473   6.597   2.735 -1.1844 -0.0655 -1.4261
14506TIP3    H264934   2.388   6.674   2.834  1.0292 -0.0643  0.5188
14507TIP3   OH264935   5.823   1.705  15.869 -0.2800  0.2320  0.0203
14507TIP3    H164936   5.745   1.698  15.924  0.5835  1.2044  1.4166
14507TIP3    H264937   5.896   1.701  15.931  0.7910 -0.8738 -1.2900
14508TIP3   OH264938   2.906   0.981  13.197 -0.4126  0.1388  0.2232
14508TIP3    H164939   2.957   0.972  13.277  1.3834 -0.5104 -0.9653
14508TIP3    H264940   2.881   1.073  13.194  0.6035  0.4336  0.8561
14509TIP3   OH264941   4.342   0.508  17.013 -0.5599  0.1556  0.4532
14509TIP3    H164942   4.308   0.590  16.976 -2.5307 -0.9552 -0.2396
14509TIP3    H264943   4.389   0.467  16.941  0.1931  0.5306  0.7213
14510TIP3   OH264944   4.896   4.946  17.035 -0.0255 -0.4441 -0.3522
14510TIP3    H164945   4.899   4.923  16.942  0.0684  1.4862 -0.8525
14510TIP3    H264946   4.849   4.873  17.076 -1.0072 -0.8260 -2.0782
14511TIP3   OH264947   0.320   6.584  12.372 -0.3921 -0.2815 -0.5672
14511TIP3    H164948   0.281   6.609  12.455 -1.0133  1.1981 -1.2939
14511TIP3    H264949   0.286   6.647  12.309  2.4651  0.5053 -1.3931
14512TIP3   OH264950   3.124   1.276  15.807 -0.3425 -0.0265  0.0176
14512TIP3    H164951   3.066   1.216  15.761 -1.7170  1.0034  0.3826
14512TIP3    H264952   3.212   1.244  15.787 -1.0025 -1.1469 -1.1741
14513TIP3   OH264953   2.669   5.549   5.712 -0.3271 -0.0859 -0.4904
14513TIP3    H164954   2.608   5.489   5.754  0.8277  0.0799  1.5034
14513TIP3    H264955   2.677   5.622   5.774 -0.9583  1.6720 -2.4251
14514TIP3   OH264956   3.966   5.071   4.233  0.1431  0.6050 -0.1365
14514TIP3    H164957   4.030   5.019   4.185 -1.3282 -1.1270 -0.3055
14514TIP3    H264958   3.973   5.041   4.324  0.2820  1.1315  0.0264
14515TIP3   OH264959   4.449   0.023   1.606 -0.6821 -0.6733  0.1387
14515TIP3    H164960   4.441   0.066   1.691  0.2990 -0.2515  0.0227
14515TIP3    H264961   4.542   0.024   1.587 -0.8564 -1.1111 -0.7682
14516TIP3   OH264962   3.029   3.625   4.941 -0.0535 -0.2969 -0.3698
14516TIP3    H164963   3.075   3.562   4.996 -0.8321 -0.3605  0.2134
14516TIP3    H264964   2.939   3.593   4.937 -0.6390  1.1468  0.5236
14517TIP3   OH264965   5.778   4.776  17.189  0.7439 -0.1811  0.6784
14517TIP3    H164966   5.833   4.762  17.112  0.5759  2.9235 -0.0854
14517TIP3    H264967   5.833   4.828  17.249 -0.0091 -0.3864  1.5666
14518TIP3   OH264968   0.458   6.043  16.077  0.3302 -0.4401  0.5895
14518TIP3    H164969   0.417   6.047  15.991  1.4392  1.0748  0.1061
14518TIP3    H264970   0.544   6.005  16.061  0.5095 -0.2269  1.0335
14519TIP3   OH264971   6.021   4.164   0.688  0.1697 -0.1122  0.5541
14519TIP3    H164972   5.957   4.092   0.688  0.5692 -0.4733  1.2715
14519TIP3    H264973   5.970   4.241   0.714 -0.3212 -0.0704 -0.4997
14520TIP3   OH264974   5.243   0.553   0.452 -0.1328 -0.1622 -0.2812
14520TIP3    H164975   5.326   0.505   0.444 -0.1015  0.0912 -1.5515
14520TIP3    H264976   5.264   0.627   0.508  0.7920  0.5379 -1.5259
14521TIP3   OH264977   6.396   4.991  13.039  0.4896  0.0259  0.4119
14521TIP3    H164978   6.406   4.985  13.134 -1.1421  0.5233  0.6211
14521TIP3    H264979   6.307   5.025  13.026  1.4757  2.0920 -1.2408
14522TIP3   OH264980   3.304   1.887   4.769 -0.8078 -0.4986  0.4566
14522TIP3    H164981   3.313   1.959   4.831 -0.1341 -0.5276  0.3977
14522TIP3    H264982   3.270   1.814   4.821 -1.1778 -0.2332  0.5838
14523TIP3   OH264983   5.852   1.146   5.134 -0.1133  0.4208 -0.4011
14523TIP3    H164984   5.787   1.134   5.065  1.0265 -2.4537 -1.0700
14523TIP3    H264985   5.925   1.190   5.092  0.2080 -0.5107 -0.8452
14524TIP3   OH264986   5.166   2.161   0.294  0.3755  0.1020 -0.1257
14524TIP3    H164987   5.211   2.081   0.268 -0.6140 -0.6533  0.4501
14524TIP3    H264988   5.188   2.172   0.387  0.2471  0.3261 -0.1205
14525TIP3   OH264989   3.343   1.817  14.273 -0.1914  0.4691  0.1981
14525TIP3    H164990   3.277   1.759  14.312  0.1362  0.7918  1.2690
14525TIP3    H264991   3.426   1.781  14.303  0.0429  1.0223  0.2172
14526TIP3   OH264992   0.454   0.644   2.779 -0.3529 -0.1082 -0.2114
14526TIP3    H164993   0.374   0.650   2.728 -0.9015 -1.1426  0.4990
14526TIP3    H264994   0.443   0.564   2.831  0.9186  0.0116  0.2615
14527TIP3   OH264995   4.008   3.139   4.452  0.2967 -0.4182 -0.1279
14527TIP3    H164996   4.002   3.218   4.506  1.0706 -0.2083 -0.3471
14527TIP3    H264997   4.102   3.128   4.436  0.0819 -0.6247 -1.2316
14528TIP3   OH264998   2.020   6.027  12.822  0.2539  0.0143 -0.2846
14528TIP3    H164999   1.995   6.113  12.789  0.3876  0.3470  0.4777
14528TIP3    H265000   1.937   5.985  12.845  0.1024 -0.4880 -1.6679
14529TIP3   OH265001   5.273   2.160  15.325 -0.1683 -0.1432  0.6638
14529TIP3    H165002   5.333   2.233  15.343 -2.2979  1.3953  1.7565
14529TIP3    H265003   5.301   2.127  15.239  2.6763  0.0353  1.4638
14530TIP3   OH265004   2.139   4.920  11.486  0.5364 -0.2761  0.1950
14530TIP3    H165005   2.204   4.964  11.541 -0.3192 -0.2775  1.2228
14530TIP3    H265006   2.084   4.872  11.547  0.5580 -1.6122 -0.8006
14531TIP3   OH265007   2.303   3.682   0.137 -0.1052  1.1235  0.4477
14531TIP3    H165008   2.223   3.736   0.137 -0.9458 -0.0439  2.8959
14531TIP3    H265009   2.351   3.710   0.215 -0.3585 -1.3529  1.5364
14532TIP3   OH265010   5.620   4.703   3.014 -0.1070 -0.1772  0.4244
14532TIP3    H165011   5.538   4.697   2.965  1.3613  1.2488 -2.3522
14532TIP3    H265012   5.688   4.682   2.950  1.7613 -0.7438  2.5072
14533TIP3   OH265013   6.295   0.493  15.103 -0.1343 -0.7162  0.1183
14533TIP3    H165014   6.304   0.468  15.196 -0.0344  1.4980  0.7145
14533TIP3    H265015   6.234   0.428  15.067 -0.3367 -1.4743  1.7698
14534TIP3   OH265016   5.746   2.591  13.533 -0.5729 -0.1309  0.0112
14534TIP3    H165017   5.832   2.599  13.575 -0.4614  0.5039 -0.3373
14534TIP3    H265018   5.687   2.565  13.604 -0.3540  0.7935  0.5350
14535TIP3   OH265019   0.738   2.910  10.611 -0.3107  0.5995 -0.2333
14535TIP3    H165020   0.741   2.825  10.656  1.0358  1.6926  1.8214
14535TIP3    H265021   0.792   2.898  10.533 -2.2245 -1.1659 -1.3600
14536TIP3   OH265022   4.568   1.668   3.355 -0.1646  0.3473  0.0028
14536TIP3    H165023   4.547   1.695   3.445 -2.8433 -1.1661 -0.1222
14536TIP3    H265024   4.613   1.584   3.366  0.3035  0.5865 -0.0512
14537TIP3   OH265025   0.914   2.016   4.395 -0.2895  0.0008  0.5269
14537TIP3    H165026   0.910   1.921   4.404 -0.5166 -0.0948 -0.4584
14537TIP3    H265027   0.836   2.039   4.345  0.3753  0.5647 -0.2773
14538TIP3   OH265028   0.354   5.410   2.072  0.2481 -0.1325 -0.1619
14538TIP3    H165029   0.280   5.466   2.094 -0.4377 -0.7671 -0.7920
14538TIP3    H265030   0.332   5.375   1.985  1.3464 -0.2260 -0.4122
14539TIP3   OH265031   1.853   2.982  15.310 -0.4914 -0.1081 -0.0003
14539TIP3    H165032   1.777   2.947  15.263 -1.0872  2.1581 -0.8130
14539TIP3    H265033   1.925   2.923  15.285 -2.2150 -3.1923  1.9768
14540TIP3   OH265034   4.514   2.134  17.185  0.3908  0.0484  0.4491
14540TIP3    H165035   4.430   2.106  17.220  0.4992 -0.6695  0.1375
14540TIP3    H265036   4.507   2.119  17.091  1.0785 -0.5649  0.4900
14541TIP3   OH265037   0.522   6.044  12.199 -0.2588  0.8938  0.4066
14541TIP3    H165038   0.439   6.051  12.246  0.2168  0.3823  1.3373
14541TIP3    H265039   0.575   5.984  12.251  0.2442  0.2199 -0.8577
14542TIP3   OH265040   0.739   3.044   3.495 -0.1852 -0.0009 -0.2898
14542TIP3    H165041   0.654   3.082   3.472  1.1629  3.0464 -0.3782
14542TIP3    H265042   0.760   3.080   3.581  0.8259 -1.0796 -0.0730
14543TIP3   OH265043   3.430   3.507  13.164 -0.2310 -0.3038 -0.0680
14543TIP3    H165044   3.399   3.593  13.135  1.7997  0.1651 -0.9103
14543TIP3    H265045   3.386   3.445  13.106  2.5576  0.5326 -3.1911
14544TIP3   OH265046   2.233   0.594   0.857 -0.4895 -0.1895  0.4865
14544TIP3    H165047   2.162   0.636   0.905  0.4533  1.0525  0.8193
14544TIP3    H265048   2.210   0.606   0.765  0.5927  2.5719  0.5370
14545TIP3   OH265049   0.482   0.701  13.944  0.1032  0.0716 -0.7285
14545TIP3    H165050   0.484   0.787  13.900 -0.0742  0.8139  0.6890
14545TIP3    H265051   0.504   0.639  13.875 -0.0116  1.2337 -1.8426
14546TIP3   OH265052   4.164   4.610   2.166  0.6443 -0.6103  0.1331
14546TIP3    H165053   4.215   4.678   2.121  0.6432 -0.3453  0.5361
14546TIP3    H265054   4.160   4.538   2.103 -0.3672  0.2100 -0.7540
14547TIP3   OH265055   2.963   3.533  15.862  0.3827 -0.0922  0.2669
14547TIP3    H165056   3.001   3.449  15.834  0.8448  0.2752 -0.2190
14547TIP3    H265057   3.001   3.597  15.803 -1.4915  0.2166 -0.6571
14548TIP3   OH265058   2.524   2.093   4.599  0.6283  0.4615 -0.6551
14548TIP3    H165059   2.619   2.082   4.609  0.3860 -1.0750  0.0111
14548TIP3    H265060   2.496   2.133   4.681  0.6569  0.6645 -0.7435
14549TIP3   OH265061   0.808   1.796   2.642  0.4809  0.0528 -0.0314
14549TIP3    H165062   0.858   1.739   2.584  0.3065 -0.0553 -0.0763
14549TIP3    H265063   0.744   1.738   2.683  1.1787 -0.0494  0.9386
14550TIP3   OH265064   4.813   0.841   2.941  0.5228  0.0162 -0.0788
14550TIP3    H165065   4.776   0.927   2.959  1.5320  1.1886 -3.2446
14550TIP3    H265066   4.885   0.859   2.881  0.4555 -3.0878 -1.1426
14551TIP3   OH265067   1.503   5.644  11.885 -0.4164 -0.6033  0.1410
14551TIP3    H165068   1.502   5.580  11.956 -0.3633  0.0757  0.7576
14551TIP3    H265069   1.497   5.591  11.805  0.3293 -1.4183  0.6157
14552TIP3   OH265070   4.635   3.426   2.170  0.4186  0.0974 -0.3299
14552TIP3    H165071   4.720   3.441   2.211  0.5041  1.1001 -0.8476
14552TIP3    H265072   4.598   3.351   2.216  1.3289  0.0318  0.2935
14553TIP3   OH265073   5.582   3.730   4.375  0.4879 -0.4436 -0.2410
14553TIP3    H165074   5.639   3.782   4.319  0.7157 -0.9833 -0.5208
14553TIP3    H265075   5.610   3.639   4.360 -0.6349 -0.7369 -0.6035
14554TIP3   OH265076   2.119   3.558  12.304  0.2602 -0.4953 -1.2062
14554TIP3    H165077   2.089   3.563  12.395  2.5945  1.0005 -0.4729
14554TIP3    H265078   2.164   3.474  12.298  1.8461  0.2715 -0.3889
14555TIP3   OH265079   6.526   4.368  16.316 -0.2422  0.1860  0.1139
14555TIP3    H165080   6.559   4.287  16.278  0.3367  0.2913  0.3995
14555TIP3    H265081   6.438   4.346  16.346  0.1073 -0.4772  0.6684
14556TIP3   OH265082   1.031   0.143  15.932 -0.3864 -1.1933 -0.2970
14556TIP3    H165083   1.032   0.087  15.854 -0.9911  1.1734 -2.0646
14556TIP3    H265084   1.065   0.227  15.901 -0.3422 -0.3056  2.0907
14557TIP3   OH265085   6.142   4.454  11.902 -0.3614  0.3238  0.2242
14557TIP3    H165086   6.217   4.500  11.864 -0.5720 -0.1558 -0.7766
14557TIP3    H265087   6.073   4.463  11.835 -0.8400 -0.2228  0.6497
14558TIP3   OH265088   4.858   1.749   6.291  0.3360  0.0484  0.6759
14558TIP3    H165089   4.846   1.720   6.201 -0.8668  0.4947  0.6875
14558TIP3    H265090   4.882   1.841   6.284  1.5788 -0.2564  0.7613
14559TIP3   OH265091   0.692   5.767  14.372  0.3005  0.1418 -0.0424
14559TIP3    H165092   0.752   5.745  14.301 -1.4285 -0.4690 -1.3434
14559TIP3    H265093   0.655   5.683  14.399 -2.9010  0.8347 -1.9462
14560TIP3   OH265094   1.005   2.708  12.280  0.0918 -0.2800  0.1692
14560TIP3    H165095   0.957   2.684  12.360  1.0511  1.8984  1.4370
14560TIP3    H265096   0.961   2.786  12.247 -0.3356 -1.2067 -1.4993
14561TIP3   OH265097   1.481   5.231  15.802 -0.0272  0.2883  0.0703
14561TIP3    H165098   1.438   5.286  15.868  1.5292  1.9179 -0.2392
14561TIP3    H265099   1.568   5.213  15.838  1.0453  1.6854 -1.7779
14562TIP3   OH265100   3.599   1.894   1.783 -0.3196  0.1175  0.3155
14562TIP3    H165101   3.579   1.837   1.857 -1.5650 -1.3467 -1.1195
14562TIP3    H265102   3.531   1.962   1.786 -0.9804 -0.5164 -0.0630
14563TIP3   OH265103   4.435   4.809   0.092  0.1633 -0.2007  0.5015
14563TIP3    H165104   4.500   4.877   0.113 -1.4983  1.4492  0.3632
14563TIP3    H265105   4.382   4.801   0.171  1.3672 -2.5503  1.1115
14564TIP3   OH265106   2.198   1.810   5.316  0.9405 -0.4878 -0.0995
14564TIP3    H165107   2.117   1.848   5.284 -1.0049 -4.4572 -0.2093
14564TIP3    H265108   2.199   1.829   5.410  1.7731  2.6985 -0.6931
14565TIP3   OH265109   3.726   6.514  15.413 -0.9071 -0.1656 -0.1426
14565TIP3    H165110   3.649   6.569  15.399  0.3660  1.5285 -0.6547
14565TIP3    H265111   3.726   6.453  15.340 -0.8552  0.9011 -1.0315
14566TIP3   OH265112   0.990   0.750  13.898  0.1017  0.0755 -1.1277
14566TIP3    H165113   0.963   0.779  13.985 -0.1852 -1.3461 -0.7320
14566TIP3    H265114   0.936   0.802  13.838 -1.0047 -0.2174 -0.4111
14567TIP3   OH265115   6.287   1.317  12.913  0.4135 -0.0346 -0.4643
14567TIP3    H165116   6.277   1.273  12.829 -0.4806  0.8659 -0.8293
14567TIP3    H265117   6.288   1.245  12.977 -0.4089 -0.6318 -1.1052
14568TIP3   OH265118   1.306   6.125   3.192  0.3092  0.1074  0.0993
14568TIP3    H165119   1.395   6.104   3.162  0.6017  1.2792  0.1268
14568TIP3    H265120   1.270   6.041   3.221  0.9073 -0.6099 -1.2042
14569TIP3   OH265121   4.418   1.012  12.138  0.4357 -0.0506  0.0809
14569TIP3    H165122   4.360   1.014  12.214  0.3411  0.8421 -0.0066
14569TIP3    H265123   4.383   1.079  12.079  2.5532  1.7702  0.7873
14570TIP3   OH265124   4.508   4.934   5.712  0.5281  0.4911  0.3286
14570TIP3    H165125   4.517   4.839   5.724 -0.1108  0.0964 -2.0233
14570TIP3    H265126   4.513   4.946   5.617 -0.5134  2.7046  0.5436
14571TIP3   OH265127   2.416   2.277   0.917  0.1434  0.8697  0.2471
14571TIP3    H165128   2.326   2.310   0.923 -0.9335 -1.7303 -0.9698
14571TIP3    H265129   2.445   2.302   0.830  0.1681  0.6149  0.1829
14572TIP3   OH265130   0.771   0.549  15.304  0.9107 -0.0679  0.0923
14572TIP3    H165131   0.757   0.470  15.355 -2.0852  0.3447  0.0291
14572TIP3    H265132   0.798   0.517  15.217  1.8962 -0.9078  0.6978
14573TIP3   OH265133   3.056   6.672  16.218 -0.5168  0.0837 -1.1058
14573TIP3    H165134   3.036   6.580  16.199 -2.1908  0.1735  0.0712
14573TIP3    H265135   2.977   6.705  16.261  1.1306  1.2794  1.0961
14574TIP3   OH265136   2.938   1.652   3.581  1.1796  0.2375 -0.1729
14574TIP3    H165137   2.881   1.588   3.623  1.4782 -0.9660 -1.5551
14574TIP3    H265138   2.879   1.704   3.527  0.8310  1.6270  1.5023
14575TIP3   OH265139   2.815   6.638  17.221  0.1794 -0.5243  0.3451
14575TIP3    H165140   2.845   6.725  17.196 -2.1258  0.5678  1.3168
14575TIP3    H265141   2.743   6.619  17.161 -0.5528 -0.9617  1.3511
14576TIP3   OH265142   2.135   0.401   4.352  0.9031  0.5360  0.2925
14576TIP3    H165143   2.137   0.310   4.324  0.3240  0.0199  1.8722
14576TIP3    H265144   2.049   0.412   4.394  0.5900  2.0567 -0.6797
14577TIP3   OH265145   5.634   2.397  11.262  0.5965  0.5064 -0.4287
14577TIP3    H165146   5.675   2.456  11.199  0.5746  0.2839 -0.6536
14577TIP3    H265147   5.540   2.409  11.249  0.5807 -0.3357 -1.2056
14578TIP3   OH265148   5.351   5.231  14.252 -0.4456 -0.2999 -0.3307
14578TIP3    H165149   5.326   5.305  14.198 -0.4617 -1.2413 -1.6448
14578TIP3    H265150   5.311   5.155  14.209  1.9802 -1.4262 -0.7097
14579TIP3   OH265151   3.426   0.117   2.339 -0.2027  0.3272  0.2322
14579TIP3    H165152   3.466   0.140   2.255 -0.3996  0.6172  0.2186
14579TIP3    H265153   3.501   0.104   2.398 -0.0342 -0.8360 -0.2303
14580TIP3   OH265154   4.899   3.532   1.453  0.1502  0.2511 -0.1955
14580TIP3    H165155   4.968   3.530   1.520  0.3463 -1.2417 -0.4315
14580TIP3    H265156   4.946   3.540   1.370  0.0887 -1.4456 -0.4066
14581TIP3   OH265157   3.988   2.562  16.148  0.0161 -0.3047  0.0750
14581TIP3    H165158   3.925   2.598  16.085  0.3244 -0.8525 -0.5585
14581TIP3    H265159   3.949   2.479  16.177 -0.1904  0.0156  0.7117
14582TIP3   OH265160   2.747   0.666   1.823 -0.4052 -0.3065 -0.1081
14582TIP3    H165161   2.830   0.619   1.833 -0.3125 -0.1230 -0.0080
14582TIP3    H265162   2.689   0.604   1.779 -0.6996 -0.9864  1.2161
14583TIP3   OH265163   2.427   6.399   3.294 -0.0776 -0.0880  0.2992
14583TIP3    H165164   2.492   6.454   3.252 -0.6168  0.3770  0.0781
14583TIP3    H265165   2.475   6.357   3.366  0.6849 -0.4266 -0.3958
14584TIP3   OH265166   3.571   3.155   5.673 -0.5156  1.0641 -0.4189
14584TIP3    H165167   3.521   3.129   5.751 -0.2138 -0.0161 -0.5737
14584TIP3    H265168   3.605   3.072   5.638 -0.1692  1.6035 -1.3706
14585TIP3   OH265169   0.352   0.746   3.937  0.2658 -0.1749 -0.4550
14585TIP3    H165170   0.385   0.720   4.022  0.2252  0.5483 -0.2174
14585TIP3    H265171   0.259   0.764   3.952  0.3853  0.5053 -0.5321
14586TIP3   OH265172   5.286   2.860  16.318 -0.2763 -0.1319  0.0734
14586TIP3    H165173   5.334   2.797  16.372 -0.5629 -0.4633 -0.0568
14586TIP3    H265174   5.319   2.945  16.345  1.1177 -0.4026 -0.7174
14587TIP3   OH265175   2.461   6.673   5.683 -0.0423 -0.1265 -0.0544
14587TIP3    H165176   2.408   6.599   5.654 -0.3725  0.3253 -0.6348
14587TIP3    H265177   2.543   6.635   5.713 -0.9313 -0.8954  1.4525
14588TIP3   OH265178   5.581   3.546   4.094 -0.5682 -0.3919 -0.4245
14588TIP3    H165179   5.575   3.499   4.177  2.1287  0.9065  0.5874
14588TIP3    H265180   5.491   3.551   4.062 -1.6671 -0.7867  2.4816
14589TIP3   OH265181   4.221   3.465  16.272 -0.4551 -0.6649 -0.3657
14589TIP3    H165182   4.224   3.449  16.178  0.3078 -0.8792 -0.3153
14589TIP3    H265183   4.303   3.427  16.305 -1.4984 -2.1431  0.6167
14590TIP3   OH265184   6.000   4.757  12.199 -0.2239  0.0167 -0.7874
14590TIP3    H165185   5.906   4.755  12.185 -0.4863 -2.9133  1.0898
14590TIP3    H265186   6.031   4.671  12.171  1.6881  0.4331 -0.0647
14591TIP3   OH265187   5.859   2.770  14.262  0.1912 -0.6108 -0.1039
14591TIP3    H165188   5.913   2.692  14.274  0.7610 -0.1927  0.0789
14591TIP3    H265189   5.922   2.840  14.243 -0.3872 -0.3964 -1.2450
14592TIP3   OH265190   4.865   3.991   2.417 -0.1805  0.3067  0.5892
14592TIP3    H165191   4.927   3.937   2.368  0.1383 -0.5953  1.9540
14592TIP3    H265192   4.893   3.984   2.508 -0.1759  2.7245  0.8213
14593TIP3   OH265193   0.100   1.493  16.651  0.2646 -0.3252  0.5518
14593TIP3    H165194   0.096   1.583  16.618 -0.6462 -1.2365 -1.9301
14593TIP3    H265195   0.028   1.487  16.714  0.9055  0.9313  1.4246
14594TIP3   OH265196   5.280   2.352  13.209 -0.2981  0.6797 -0.3020
14594TIP3    H165197   5.368   2.313  13.211 -0.2209  0.9060  1.2816
14594TIP3    H265198   5.223   2.281  13.181  0.1605  0.0353  0.3689
14595TIP3   OH265199   3.788   5.225  14.230 -0.1216  0.0271 -0.3438
14595TIP3    H165200   3.790   5.239  14.325  2.1559  0.4466 -0.4160
14595TIP3    H265201   3.707   5.266  14.201 -1.6897 -1.5763  1.6301
14596TIP3   OH265202   2.218   3.569  15.306  0.4552 -0.3586  0.1490
14596TIP3    H165203   2.294   3.600  15.256  0.4994  0.9296  1.0090
14596TIP3    H265204   2.159   3.643  15.308 -0.0170 -0.7564  1.1057
14597TIP3   OH265205   4.077   4.886   5.480 -0.3927 -0.3842 -0.1362
14597TIP3    H165206   4.012   4.886   5.409 -0.2266 -0.0245 -0.2910
14597TIP3    H265207   4.051   4.960   5.535  0.2078  0.1043 -0.4995
14598TIP3   OH265208   2.448   5.597   3.034  0.5688 -0.0877  0.1723
14598TIP3    H165209   2.381   5.652   2.995 -0.5042 -2.0343 -0.8024
14598TIP3    H265210   2.470   5.641   3.116 -0.6720  1.4659 -0.3020
14599TIP3   OH265211   0.396   6.573   1.061 -0.1175 -0.2431 -0.2684
14599TIP3    H165212   0.486   6.563   1.033 -0.5827 -0.4853 -1.7270
14599TIP3    H265213   0.344   6.529   0.993 -1.5021  2.4242 -1.0528
14600TIP3   OH265214   0.650   3.947   4.125 -0.3652 -0.3755  0.0947
14600TIP3    H165215   0.616   3.962   4.213 -0.2559  2.7786 -0.3299
14600TIP3    H265216   0.739   3.914   4.139 -0.6876 -0.7940  1.1722
14601TIP3   OH265217   0.869   3.745  12.893  0.2461  0.1505 -0.0348
14601TIP3    H165218   0.815   3.817  12.861 -0.6637 -0.4578  0.1071
14601TIP3    H265219   0.877   3.759  12.987  0.8331  0.5649 -0.1448
14602TIP3   OH265220   3.399   6.621  14.688  0.1962 -0.1038 -0.4216
14602TIP3    H165221   3.361   6.545  14.643  0.5451  0.3855 -1.5627
14602TIP3    H265222   3.336   6.641  14.757 -0.0358 -1.2615 -0.2774
14603TIP3   OH265223   0.881   4.946  12.900 -0.0391 -0.1505 -0.5757
14603TIP3    H165224   0.860   4.867  12.850  0.1352 -0.1215 -0.6962
14603TIP3    H265225   0.796   4.981  12.926 -0.1259 -0.2479 -0.7256
14604TIP3   OH265226   2.184   3.453   4.296 -0.0394 -0.1839 -0.3933
14604TIP3    H165227   2.208   3.363   4.273  0.0583  0.2767 -2.1902
14604TIP3    H265228   2.150   3.490   4.215  1.8198  2.0269 -0.2064
14605TIP3   OH265229   3.851   4.087   3.806  0.3597  0.1801 -0.1726
14605TIP3    H165230   3.833   4.103   3.898  0.8833 -0.2688  0.0117
14605TIP3    H265231   3.795   4.148   3.759 -0.4008 -0.0519  0.4316
14606TIP3   OH265232   1.184   2.491  16.828  0.4946 -0.2709 -0.3110
14606TIP3    H165233   1.235   2.429  16.880 -0.1350  0.5759  1.3736
14606TIP3    H265234   1.096   2.453  16.825 -0.3009  1.2088  2.0541
14607TIP3   OH265235   2.189   6.258   5.232  0.2089 -0.1094 -0.2644
14607TIP3    H165236   2.230   6.174   5.208  0.3842 -0.1754  0.2690
14607TIP3    H265237   2.258   6.306   5.278  0.1154  0.3427 -0.5862
14608TIP3   OH265238   5.676   1.125   4.350  0.1264 -0.1796 -0.0159
14608TIP3    H165239   5.637   1.206   4.382  0.3640 -0.0990  0.0717
14608TIP3    H265240   5.652   1.059   4.416  2.0336  0.3312  1.2068
14609TIP3   OH265241   5.205   1.017  12.349  0.0564  0.2352  0.0697
14609TIP3    H165242   5.179   0.926  12.342  1.6002 -0.2823  0.7733
14609TIP3    H265243   5.272   1.018  12.418 -2.6878  2.4914  2.8676
14610TIP3   OH265244   6.652   4.290   0.850  0.3138  0.4529  0.5804
14610TIP3    H165245   6.587   4.281   0.921 -0.0746 -0.6544  0.0986
14610TIP3    H265246   6.601   4.318   0.774  0.0550 -2.1192 -0.2719
14611TIP3   OH265247   5.423   0.013   5.993 -0.2199 -0.1667  0.1076
14611TIP3    H165248   5.353   0.077   5.998  0.2462  0.3188  0.6232
14611TIP3    H265249   5.445  -0.004   6.085 -2.0940 -3.0307  0.0704
14612TIP3   OH265250   6.034   5.410   5.428 -0.6284 -0.1071  0.1405
14612TIP3    H165251   6.076   5.347   5.486 -0.0079  1.4203  1.3902
14612TIP3    H265252   5.951   5.431   5.472 -0.3440  0.7392  0.2931
14613TIP3   OH265253   0.104   1.696   0.742  0.0962  0.1912 -0.5182
14613TIP3    H165254   0.115   1.770   0.801  0.8854 -0.3293 -0.0053
14613TIP3    H265255   0.100   1.620   0.799  1.3470 -0.3659 -1.1531
14614TIP3   OH265256   3.200   1.734   3.683 -0.7721  0.2781 -0.1381
14614TIP3    H165257   3.116   1.778   3.668 -0.6470 -0.0700 -1.9650
14614TIP3    H265258   3.233   1.715   3.595 -1.6263 -5.0071  0.5411
14615TIP3   OH265259   2.925   3.091   4.670 -0.2949  0.0925  0.5118
14615TIP3    H165260   2.978   3.016   4.643  1.4692  1.6852 -0.5343
14615TIP3    H265261   2.857   3.097   4.603 -1.4206 -1.5090  1.4622
14616TIP3   OH265262   2.703   2.388   4.094  0.1771  0.3024 -0.4074
14616TIP3    H165263   2.672   2.443   4.166  1.9902  0.1717  0.4933
14616TIP3    H265264   2.756   2.321   4.136  0.0055 -0.6903 -1.7352
14617TIP3   OH265265   0.557   3.108  11.582  0.0307 -0.5340  0.2490
14617TIP3    H165266   0.617   3.052  11.630  0.7178 -0.8193 -0.9188
14617TIP3    H265267   0.543   3.063  11.499  0.4051  0.8826 -0.6122
14618TIP3   OH265268   3.655   4.344   2.616  0.0927 -0.1916  0.0929
14618TIP3    H165269   3.713   4.271   2.595  1.5908  1.1154 -0.4181
14618TIP3    H265270   3.669   4.360   2.709  0.2522 -0.1396  0.0606
14619TIP3   OH265271   1.930   4.977   3.644  0.0899 -0.5441 -0.0680
14619TIP3    H165272   2.011   4.926   3.641 -0.9750 -2.3622  1.5835
14619TIP3    H265273   1.928   5.014   3.732 -0.7923 -0.3545 -0.1625
14620TIP3   OH265274   2.474   6.683  14.614  0.4767 -0.3048  0.1586
14620TIP3    H165275   2.400   6.741  14.627  0.1190 -0.7321  0.0390
14620TIP3    H265276   2.483   6.637  14.698  1.2300  0.4517  0.5071
14621TIP3   OH265277   5.068   0.828  13.827  0.1209 -0.0949 -0.7579
14621TIP3    H165278   5.016   0.884  13.885  0.1119 -0.1093 -0.7513
14621TIP3    H265279   5.122   0.890  13.777 -1.0791  0.0310 -1.9115
14622TIP3   OH265280   3.331   5.661  13.556  0.4327 -0.5779  0.0556
14622TIP3    H165281   3.280   5.655  13.637 -1.4944 -1.3289 -1.1882
14622TIP3    H265282   3.408   5.712  13.580 -1.0573  0.8682  1.8959
14623TIP3   OH265283   4.264   6.712   5.104  0.1967  0.2139  0.6456
14623TIP3    H165284   4.254   6.802   5.135 -1.6438  0.0957  0.4561
14623TIP3    H265285   4.355   6.689   5.125  0.2313  1.5858  2.0553
14624TIP3   OH265286   4.779   2.164  14.526  0.1584  0.2875  0.0780
14624TIP3    H165287   4.689   2.196  14.533 -0.2181 -0.7405  0.0696
14624TIP3    H265288   4.832   2.233  14.564 -0.8030  0.0619  1.8827
14625TIP3   OH265289   4.677   6.395   3.993  0.1151  0.1066  0.2960
14625TIP3    H165290   4.586   6.371   3.978 -0.1569  2.2543 -1.8564
14625TIP3    H265291   4.727   6.319   3.965 -0.9694 -0.4237 -0.2298
14626TIP3   OH265292   4.522   3.395   5.459 -0.0609 -0.1132 -0.1470
14626TIP3    H165293   4.482   3.482   5.461  0.4644  0.1072  1.5066
14626TIP3    H265294   4.456   3.339   5.417  1.0808  1.7602 -4.7909
14627TIP3   OH265295   0.391   0.448  14.517  0.0202 -0.2759 -0.4312
14627TIP3    H165296   0.356   0.360  14.531 -1.5893  0.3626 -0.3149
14627TIP3    H265297   0.356   0.475  14.432  0.7492  0.1469 -0.6028
14628TIP3   OH265298   3.158   1.229  14.837 -0.1589 -0.2088  0.2368
14628TIP3    H165299   3.236   1.242  14.783 -1.6776  1.5296 -1.6168
14628TIP3    H265300   3.133   1.138  14.822 -0.5335  0.2502 -1.9713
14629TIP3   OH265301   3.131   1.461   4.161  0.0282 -0.3390  0.0704
14629TIP3    H165302   3.181   1.450   4.080  0.3727 -0.0230  0.2373
14629TIP3    H265303   3.179   1.528   4.210 -1.6250  1.3502 -0.5926
14630TIP3   OH265304   2.163   0.152   5.291  0.3258  0.2636  0.2244
14630TIP3    H165305   2.076   0.138   5.254  0.6306  2.6221 -1.4868
14630TIP3    H265306   2.147   0.171   5.384 -0.7710 -1.4596  0.4209
14631TIP3   OH265307   5.721   3.981   3.406  0.3218 -0.0557 -0.3644
14631TIP3    H165308   5.626   3.968   3.398  0.4422 -1.7459  0.7869
14631TIP3    H265309   5.759   3.912   3.351  0.9104 -0.9171  1.1109
14632TIP3   OH265310   4.279   3.929   1.913 -0.1887  0.6722  0.0667
14632TIP3    H165311   4.343   3.926   1.841 -1.6738 -1.0660 -1.2172
14632TIP3    H265312   4.332   3.934   1.992  1.5342 -0.1877 -1.0068
14633TIP3   OH265313   3.805   1.645  11.173  0.1442 -0.2963 -0.2826
14633TIP3    H165314   3.758   1.672  11.094 -0.9689 -1.1348  0.0937
14633TIP3    H265315   3.810   1.550  11.167  1.8076 -0.2276 -0.3212
14634TIP3   OH265316   4.272   4.601  16.856  0.1876 -0.7646 -0.4244
14634TIP3    H165317   4.274   4.696  16.844  1.3080 -0.7314 -0.0560
14634TIP3    H265318   4.181   4.581  16.876  0.0271  0.2862 -0.0670
14635TIP3   OH265319   2.229   4.517  15.361 -0.1412 -0.1995 -0.2769
14635TIP3    H165320   2.192   4.604  15.374  2.1130  0.5336  1.5290
14635TIP3    H265321   2.296   4.530  15.293 -0.6369 -0.7881 -0.8891
14636TIP3   OH265322   1.779   3.133  13.286 -0.4224 -0.3526 -0.5200
14636TIP3    H165323   1.754   3.183  13.208 -4.5337 -0.7834  0.3895
14636TIP3    H265324   1.767   3.042  13.261 -1.2955 -0.5100  0.4155
14637TIP3   OH265325   3.063   5.049   5.511 -0.7120  0.2153  0.3296
14637TIP3    H165326   3.080   5.142   5.525  0.6458  0.1992 -1.0969
14637TIP3    H265327   3.150   5.009   5.506 -1.2840 -1.1315  0.8822
14638TIP3   OH265328   1.050   0.838  15.533  0.3376 -0.4470  0.0339
14638TIP3    H165329   1.133   0.825  15.488  1.3630 -1.5185  2.1876
14638TIP3    H265330   1.074   0.872  15.619 -1.5299  0.5155  0.1935
14639TIP3   OH265331   1.815   5.806   3.634  0.5486  0.3386  0.0034
14639TIP3    H165332   1.787   5.812   3.726 -0.1114 -2.9459  0.0593
14639TIP3    H265333   1.906   5.779   3.639  0.7007  0.7855 -0.3220
14640TIP3   OH265334   2.399   0.184  14.998 -0.1521  0.7363 -0.0146
14640TIP3    H165335   2.363   0.230  14.922 -0.7425 -0.1563 -0.2790
14640TIP3    H265336   2.490   0.212  15.002 -0.4926  1.9306 -0.1747
14641TIP3   OH265337   5.621   1.084  11.705  0.1945 -0.2255  0.3657
14641TIP3    H165338   5.584   1.156  11.757 -1.1888  0.2750 -1.2688
14641TIP3    H265339   5.606   1.006  11.759 -1.5426  0.2344  0.5887
14642TIP3   OH265340   4.265   6.413   3.355  0.1999  0.3078  1.1619
14642TIP3    H165341   4.281   6.499   3.395 -0.6232 -0.0855  2.3460
14642TIP3    H265342   4.250   6.354   3.429  0.0670 -0.7217  0.3245
14643TIP3   OH265343   0.448   5.844   3.414 -0.6035 -0.1496 -0.0136
14643TIP3    H165344   0.512   5.852   3.343  0.0124  0.5346  0.6071
14643TIP3    H265345   0.447   5.750   3.435  1.8140  0.1232  1.4323
14644TIP3   OH265346   1.115   6.249   5.687 -0.1796  0.4055  0.4586
14644TIP3    H165347   1.144   6.217   5.772 -0.0026 -0.9047 -0.0850
14644TIP3    H265348   1.190   6.237   5.629 -0.4305  0.9027  0.0268
14645TIP3   OH265349   3.205   0.352   2.854  0.0059 -0.1891 -0.2702
14645TIP3    H165350   3.253   0.279   2.815  1.8020  0.4383  0.6874
14645TIP3    H265351   3.178   0.320   2.940 -1.4043 -0.5740 -0.8454
14646TIP3   OH265352   4.915   0.469  15.099  0.0560 -0.3909  0.6490
14646TIP3    H165353   4.830   0.498  15.131  0.5407  0.5500  1.0898
14646TIP3    H265354   4.934   0.527  15.025  0.9493  0.3181  1.4264
14647TIP3   OH265355   6.700   2.801  11.603  0.7932 -1.0113 -0.1958
14647TIP3    H165356   6.796   2.808  11.598  0.9545 -2.1828  1.2517
14647TIP3    H265357   6.682   2.707  11.605 -0.2328 -0.8048  2.2516
14648TIP3   OH265358   0.657   0.086   3.605  0.5751 -0.3340  0.0328
14648TIP3    H165359   0.599   0.012   3.593  0.9448 -0.5710 -0.3270
14648TIP3    H265360   0.610   0.160   3.566 -0.3977 -0.0852  1.6348
14649TIP3   OH265361   4.887   5.293  13.076 -0.1896 -0.1818  0.0709
14649TIP3    H165362   4.861   5.202  13.093  0.0807 -0.5667 -1.5083
14649TIP3    H265363   4.945   5.315  13.148  0.7884 -1.6981 -0.2337
14650TIP3   OH265364   2.790   1.096  13.478 -0.1585  0.0581  0.1760
14650TIP3    H165365   2.705   1.099  13.433 -1.4052 -1.1542  2.3593
14650TIP3    H265366   2.816   1.187  13.485 -1.7350  0.5260  0.2588
14651TIP3   OH265367   2.495   6.178  16.975 -0.2094  0.3698  0.1543
14651TIP3    H165368   2.569   6.205  16.921 -0.6643  2.0227  0.3319
14651TIP3    H265369   2.464   6.259  17.016 -1.6492 -0.4167  0.6641
14652TIP3   OH265370   2.624   0.192  16.048  0.1360 -0.1862  0.3040
14652TIP3    H165371   2.539   0.204  16.092  0.7830  0.1852  1.4550
14652TIP3    H265372   2.614   0.109  16.001 -0.5080 -0.6794  1.2976
14653TIP3   OH265373   3.676   2.137  14.079 -0.0569  0.1341 -0.2212
14653TIP3    H165374   3.649   2.102  14.164  2.5645 -0.9767  0.1950
14653TIP3    H265375   3.600   2.123  14.022 -1.2130 -0.7144  1.4910
14654TIP3   OH265376   5.141   1.123   6.762  0.2807  0.5949  0.0329
14654TIP3    H165377   5.189   1.115   6.680  0.5921 -2.3583  0.4442
14654TIP3    H265378   5.191   1.188   6.812  1.1382  1.0518 -1.3866
14655TIP3   OH265379   3.801   4.573  12.639 -0.4460  0.0691 -0.6206
14655TIP3    H165380   3.760   4.509  12.581 -0.1310 -0.1945 -0.5531
14655TIP3    H265381   3.861   4.522  12.693 -1.6616  0.1224  0.8158
14656TIP3   OH265382   4.089   3.596  10.582  0.0707 -0.3216  0.0716
14656TIP3    H165383   4.036   3.617  10.659  0.5992 -3.0847  1.2633
14656TIP3    H265384   4.029   3.553  10.522 -0.3660  1.9345 -1.1515
14657TIP3   OH265385   4.603   4.170   2.060  0.2006 -0.2971 -0.1606
14657TIP3    H165386   4.692   4.150   2.089  0.3705 -0.5872 -0.8689
14657TIP3    H265387   4.613   4.244   2.000  0.3785 -2.3589 -2.7840
14658TIP3   OH265388   5.282   1.992   5.904  0.0470 -0.0440 -0.1312
14658TIP3    H165389   5.365   1.959   5.871  1.9395  2.8793  1.5307
14658TIP3    H265390   5.248   1.923   5.960  1.4179 -1.2070 -0.7285
14659TIP3   OH265391   3.779   6.274   0.141  0.0937  0.3043 -0.0122
14659TIP3    H165392   3.685   6.282   0.158 -0.3347 -0.9924 -1.6043
14659TIP3    H265393   3.806   6.362   0.115 -0.8160  0.5318 -0.2017
14660TIP3   OH265394   6.535   2.907   5.459  0.1337 -0.0385 -0.0332
14660TIP3    H165395   6.461   2.916   5.399 -0.4095 -0.0905  0.6167
14660TIP3    H265396   6.508   2.954   5.538  0.0571 -1.5812  0.8763
14661TIP3   OH265397   3.023   2.552  12.255 -0.0485  0.5143  0.2836
14661TIP3    H165398   2.939   2.506  12.255  0.3742 -0.2796  1.3021
14661TIP3    H265399   2.999   2.645  12.250 -0.9495  0.2461 -0.4286
14662TIP3   OH265400   5.015   2.406   6.216 -0.3090  0.7649  0.1766
14662TIP3    H165401   5.040   2.419   6.124  0.0126  2.4276  0.4880
14662TIP3    H265402   5.074   2.463   6.265 -0.9782  0.4466  1.3679
14663TIP3   OH265403   2.094   4.173   5.030  0.3729 -0.1677  0.4485
14663TIP3    H165404   2.107   4.087   4.989  0.0148  1.0509 -2.3432
14663TIP3    H265405   2.018   4.161   5.087  0.8094 -1.8946  0.7138
14664TIP3   OH265406   3.186   2.733   5.508  0.0130 -0.4371 -0.5432
14664TIP3    H165407   3.131   2.691   5.574  0.6534 -1.1477 -0.4553
14664TIP3    H265408   3.230   2.804   5.555 -1.6312  0.8156 -0.8644
14665TIP3   OH265409   0.567   5.492   0.942 -0.0239  0.2420 -0.2631
14665TIP3    H165410   0.499   5.468   0.880 -2.3554 -0.0059  2.3057
14665TIP3    H265411   0.614   5.411   0.960 -1.6000 -0.4313  0.9296
14666TIP3   OH265412   4.205   3.575   3.046 -0.3101 -0.4989 -0.0996
14666TIP3    H165413   4.239   3.626   2.972 -0.1562 -1.0220 -0.3911
14666TIP3    H265414   4.138   3.519   3.006 -1.5575  0.5519  0.4688
14667TIP3   OH265415   5.077   4.516   2.045  0.1034  0.1603  0.4178
14667TIP3    H165416   4.982   4.531   2.044 -0.0641 -0.8755  0.3789
14667TIP3    H265417   5.102   4.515   1.953 -0.3302 -2.4512  0.2902
14668TIP3   OH265418   3.561   5.308   4.371  0.2593 -0.0828  0.0257
14668TIP3    H165419   3.614   5.360   4.431  2.8997  0.1230 -2.3633
14668TIP3    H265420   3.560   5.359   4.290 -2.2187 -0.9110 -0.5147
14669TIP3   OH265421   1.614   6.286   0.947  0.2414  0.1992 -0.3427
14669TIP3    H165422   1.598   6.227   1.021 -1.7575 -0.2757 -1.1158
14669TIP3    H265423   1.642   6.228   0.876  1.3970  0.5671 -0.1954
14670TIP3   OH265424   4.686   1.929   1.920  0.2077 -0.1143 -0.3799
14670TIP3    H165425   4.612   1.987   1.899  0.5293  0.4845  0.1281
14670TIP3    H265426   4.761   1.969   1.876  1.2563  2.1342  3.2059
14671TIP3   OH265427   3.097   0.903  12.415 -0.3575  0.1694 -0.5024
14671TIP3    H165428   3.006   0.929  12.431 -0.0702 -0.7688  3.2526
14671TIP3    H265429   3.090   0.819  12.369 -1.4861 -0.9940  1.6878
14672TIP3   OH265430   2.173   3.980  11.002 -0.0212 -0.2962  0.1115
14672TIP3    H165431   2.126   3.978  10.919  1.1726 -1.8543 -0.5730
14672TIP3    H265432   2.262   4.006  10.978  0.1276  0.0289  1.0174
14673TIP3   OH265433   3.574   3.370  13.758 -0.1698 -0.1950  0.1594
14673TIP3    H165434   3.514   3.312  13.711 -0.8449  0.1495  0.5950
14673TIP3    H265435   3.547   3.364  13.849  0.0528  0.4592  0.2675
14674TIP3   OH265436   4.523   5.987   2.904  0.2549 -0.9340  0.1185
14674TIP3    H165437   4.607   6.011   2.943  0.0152 -1.4460  0.9776
14674TIP3    H265438   4.521   5.891   2.909  0.3278 -1.0211 -1.3951
14675TIP3   OH265439   1.209   3.568  14.636 -0.1665  0.7484 -0.7378
14675TIP3    H165440   1.137   3.533  14.583 -1.1964  2.3297 -0.4150
14675TIP3    H265441   1.225   3.655  14.600  1.4293  0.5097 -0.6410
14676TIP3   OH265442   6.348   0.505   4.255 -0.5326  0.5414  0.2880
14676TIP3    H165443   6.331   0.444   4.327  1.4218  0.5202  0.7498
14676TIP3    H265444   6.394   0.452   4.190  1.0944  1.4755  0.6552
14677TIP3   OH265445   1.853   0.136   4.125 -0.5210  0.3574  0.2031
14677TIP3    H165446   1.886   0.070   4.064 -0.8434 -0.3910  0.8285
14677TIP3    H265447   1.838   0.213   4.071 -0.2730 -0.1243 -0.5652
14678TIP3   OH265448   0.662   4.982  16.947 -0.0487 -0.5867 -0.2142
14678TIP3    H165449   0.657   5.016  16.858 -0.9326 -3.0621 -1.1759
14678TIP3    H265450   0.576   5.003  16.986  0.4668  0.8065  0.1903
14679TIP3   OH265451   1.091   0.138  11.196 -0.0582  0.5029 -0.2423
14679TIP3    H165452   1.123   0.070  11.138 -1.0637  0.8140 -1.1909
14679TIP3    H265453   1.012   0.171  11.153  0.8659  2.8314 -0.2370
14680TIP3   OH265454   4.477   5.292  12.507 -0.8098 -0.4561  0.2845
14680TIP3    H165455   4.544   5.233  12.472 -1.5130 -0.9649 -0.2074
14680TIP3    H265456   4.455   5.254  12.592 -1.1542 -0.8212  0.0333
14681TIP3   OH265457   0.111   4.961  16.938 -0.0492 -0.1032 -0.1656
14681TIP3    H165458   0.093   5.028  16.871 -1.3041  0.6429  0.9115
14681TIP3    H265459   0.035   4.903  16.935  0.3239 -0.5987 -0.0256
14682TIP3   OH265460   4.756   0.982  12.604  0.4688 -0.1052 -0.0179
14682TIP3    H165461   4.780   0.889  12.609  0.0627 -0.1144  1.9577
14682TIP3    H265462   4.738   0.997  12.511 -0.5028 -2.2552 -0.1965
14683TIP3   OH265463   2.446   2.594   0.392  0.0670 -0.5621 -0.3568
14683TIP3    H165464   2.386   2.531   0.432  0.7651 -2.1782 -1.7288
14683TIP3    H265465   2.390   2.664   0.360 -1.1466 -2.0823 -1.7020
14684TIP3   OH265466   1.681   1.369  11.109 -0.0429 -0.2431  0.4856
14684TIP3    H165467   1.665   1.282  11.146 -0.5661 -1.4110 -2.3456
14684TIP3    H265468   1.666   1.358  11.015  0.3225  2.8209  0.0231
14685TIP3   OH265469   5.128   0.573  11.809  0.5828 -0.2731 -0.7729
14685TIP3    H165470   5.060   0.517  11.770 -0.3773  0.3458 -0.0102
14685TIP3    H265471   5.118   0.561  11.903  1.6640 -0.3202 -0.6620
14686TIP3   OH265472   0.672   6.720   0.550 -0.4194  0.2652 -0.1088
14686TIP3    H165473   0.582   6.696   0.575  0.0028 -0.5665  0.6376
14686TIP3    H265474   0.724   6.699   0.627  0.5634 -0.1128 -0.8722
14687TIP3   OH265475   0.513   0.242  17.117  0.2349  0.1362  0.0091
14687TIP3    H165476   0.458   0.164  17.106 -0.4303  0.9008 -2.6646
14687TIP3    H265477   0.467   0.296  17.181 -0.4061 -0.7227  0.2748
14688TIP3   OH265478   0.766   6.478  11.830 -0.2040  0.6666 -0.6010
14688TIP3    H165479   0.816   6.558  11.846 -0.4000  0.5775  0.5098
14688TIP3    H265480   0.827   6.420  11.784  0.9638  0.2936  1.3729
14689TIP3   OH265481   1.318   1.293   2.065 -0.0646  0.3031 -0.0429
14689TIP3    H165482   1.399   1.261   2.027  1.1391 -0.4541  3.0460
14689TIP3    H265483   1.254   1.224   2.047  1.1869 -1.3772  1.7195
14690TIP3   OH265484   6.473   5.345  16.073  0.0059 -0.7453 -0.8348
14690TIP3    H165485   6.550   5.399  16.060 -0.6929  0.3064 -0.7038
14690TIP3    H265486   6.488   5.301  16.157  0.2907 -0.2506 -0.6258
14691TIP3   OH265487   3.691   5.070  16.132  0.3231  0.1649  0.2227
14691TIP3    H165488   3.766   5.011  16.135  0.9991  0.9530 -1.0117
14691TIP3    H265489   3.619   5.017  16.100  0.8852 -0.0407 -0.7005
14692TIP3   OH265490   5.062   4.958  11.709  0.2879  0.1666 -0.8295
14692TIP3    H165491   5.063   5.016  11.632 -0.3954  1.9999  0.5065
14692TIP3    H265492   5.057   5.018  11.784 -2.9052 -1.6731  0.5114
14693TIP3   OH265493   5.117   1.280   2.276  0.1234  0.5958  0.3363
14693TIP3    H165494   5.162   1.350   2.228  0.0342 -0.9127 -2.0206
14693TIP3    H265495   5.188   1.224   2.308  0.2625  2.2577  3.1598
14694TIP3   OH265496   6.495   4.459   3.712 -0.0067 -0.0974 -0.1039
14694TIP3    H165497   6.415   4.441   3.762 -0.6014  1.2251 -0.5730
14694TIP3    H265498   6.553   4.504   3.773  0.1726 -0.5514  0.0669
14695TIP3   OH265499   3.977   5.423   1.404 -0.6915  0.1116 -0.0381
14695TIP3    H165500   3.936   5.339   1.384 -1.7574  0.6067  0.0258
14695TIP3    H265501   3.917   5.464   1.466 -1.1826  1.7582 -1.5639
14696TIP3   OH265502   0.144   6.177  14.822 -0.2686  0.2987 -0.1473
14696TIP3    H165503   0.048   6.173  14.821 -0.3986 -0.0453  4.0474
14696TIP3    H265504   0.164   6.271  14.821 -0.6025  0.3704 -1.3089
14697TIP3   OH265505   1.813   1.693   3.893  0.0993  0.1887  0.4081
14697TIP3    H165506   1.870   1.710   3.818 -1.3042 -0.7051 -0.8909
14697TIP3    H265507   1.781   1.779   3.919  1.5663  0.6357  0.7933
14698TIP3   OH265508   1.994   6.762  15.521  0.1170 -0.3885 -0.1658
14698TIP3    H165509   2.077   6.808  15.507  0.3590 -0.3972  1.2430
14698TIP3    H265510   1.942   6.784  15.443  0.3495  2.0204  0.3149
14699TIP3   OH265511   3.208   1.862  11.482  0.3685  0.1582  0.2245
14699TIP3    H165512   3.226   1.796  11.416 -1.0151  0.9011 -0.9140
14699TIP3    H265513   3.122   1.897  11.459 -0.0752  0.5429  2.3181
14700TIP3   OH265514   2.757   6.642   1.200  0.3212  0.5087  0.3397
14700TIP3    H165515   2.688   6.653   1.134  0.4041  0.7795  0.2945
14700TIP3    H265516   2.712   6.609   1.277  0.2437  0.0641  0.1028
14701TIP3   OH265517   5.271   2.019   2.855 -0.4009 -0.4238  0.2004
14701TIP3    H165518   5.183   2.014   2.818 -0.1163  1.0620 -0.7522
14701TIP3    H265519   5.317   1.944   2.817 -0.4574  0.4177 -1.5813
14702TIP3   OH265520   5.438   2.780  15.204 -0.0201  0.0372 -0.2504
14702TIP3    H165521   5.350   2.786  15.168  0.2158  0.0512 -0.8282
14702TIP3    H265522   5.425   2.780  15.299 -0.6710 -0.3876 -0.3341
14703TIP3   OH265523   6.680   2.156   0.560  0.2225 -0.4057 -0.4244
14703TIP3    H165524   6.704   2.087   0.622 -0.1074 -0.7569 -0.6836
14703TIP3    H265525   6.761   2.205   0.546  0.7463 -1.4279 -1.1011
14704TIP3   OH265526   2.395   5.441  15.922  0.1988  0.2885  0.1565
14704TIP3    H165527   2.313   5.446  15.874  0.9924 -1.0329 -1.3938
14704TIP3    H265528   2.374   5.391  16.001 -0.6664  0.6900  0.1860
14705TIP3   OH265529   5.541   4.261  16.212  0.0623  0.4702  0.6638
14705TIP3    H165530   5.612   4.313  16.249  1.5171 -0.1131 -1.1871
14705TIP3    H265531   5.508   4.313  16.139  0.2792 -0.3731 -0.0427
14706TIP3   OH265532   2.533   0.310   3.226 -0.1919  0.0019 -0.7892
14706TIP3    H165533   2.483   0.288   3.304 -0.2134 -1.3753 -1.1767
14706TIP3    H265534   2.558   0.402   3.238  0.7706 -0.5179  1.3399
14707TIP3   OH265535   5.403   6.110  13.902 -0.0594  0.1167 -0.0219
14707TIP3    H165536   5.440   6.088  13.987 -1.3746 -0.9202  0.3009
14707TIP3    H265537   5.387   6.025  13.860  0.0552  0.6072 -1.0813
14708TIP3   OH265538   5.077   4.978  14.458 -0.5326  0.5730  0.3185
14708TIP3    H165539   5.058   5.071  14.470 -0.0670  1.0412 -2.2266
14708TIP3    H265540   4.992   4.935  14.465 -0.5902  1.0140  2.7364
14709TIP3   OH265541   6.248   0.284  12.881  0.4852 -0.1730 -0.1242
14709TIP3    H165542   6.197   0.313  12.956  0.6626  1.0492 -0.4707
14709TIP3    H265543   6.325   0.241  12.918 -1.3833 -3.1992  0.4268
14710TIP3   OH265544   1.596   1.959   5.002 -0.0267  0.6651 -0.4557
14710TIP3    H165545   1.631   1.974   4.914  2.3668  1.2785  0.5635
14710TIP3    H265546   1.623   1.870   5.023 -2.1398 -0.1414 -0.9961
14711TIP3   OH265547   0.570   2.641   1.055 -0.3234  0.0145  0.3610
14711TIP3    H165548   0.597   2.732   1.062  1.0980 -0.2460 -1.2488
14711TIP3    H265549   0.483   2.644   1.015  0.3623  0.6217 -1.1268
14712TIP3   OH265550   4.734   5.988   0.451 -0.0187 -0.1310  0.2550
14712TIP3    H165551   4.698   6.074   0.472 -0.0264 -0.0239 -0.1951
14712TIP3    H265552   4.753   5.949   0.537  2.0585  1.1945  0.4310
14713TIP3   OH265553   4.405   4.295   6.550  0.1431 -0.0588 -0.3156
14713TIP3    H165554   4.326   4.319   6.502  0.7867  1.0141 -0.8445
14713TIP3    H265555   4.374   4.238   6.620 -1.4158  2.1759  0.8767
14714TIP3   OH265556   3.835   2.717   5.386 -0.0850  0.7134  0.0944
14714TIP3    H165557   3.910   2.657   5.391 -1.6759 -1.5154 -1.4935
14714TIP3    H265558   3.759   2.660   5.371 -2.0209  2.9599  0.9100
14715TIP3   OH265559   6.726   0.492  13.740 -0.4425  0.9991 -0.1728
14715TIP3    H165560   6.694   0.423  13.682  2.2795 -1.6156  1.2685
14715TIP3    H265561   6.779   0.549  13.684  1.9914 -1.3781 -0.4211
14716TIP3   OH265562   5.582   5.174   5.094 -0.3554 -0.5757  0.0996
14716TIP3    H165563   5.506   5.127   5.060 -3.2260  0.6212  4.5944
14716TIP3    H265564   5.634   5.107   5.138  0.1218 -0.9818 -1.0415
14717TIP3   OH265565   4.825   2.872  14.456  0.4558  0.2112 -0.8334
14717TIP3    H165566   4.816   2.963  14.428  1.9959  0.2144 -1.3755
14717TIP3    H265567   4.846   2.824  14.376 -0.8400 -0.7043 -0.6318
14718TIP3   OH265568   5.686   5.988  14.968 -0.2348  0.1048  0.4852
14718TIP3    H165569   5.684   5.901  15.008 -0.2607  0.3654  1.0606
14718TIP3    H265570   5.745   6.038  15.025 -1.5775  0.9395  1.1575
14719TIP3   OH265571   4.908   2.644   5.467  0.6501  0.0622  0.5047
14719TIP3    H165572   4.818   2.627   5.437  0.6383  1.3999 -0.2611
14719TIP3    H265573   4.962   2.629   5.390  0.9422  0.5877  0.6077
14720TIP3   OH265574   4.381   6.657   0.658 -0.0683 -0.3902 -0.0116
14720TIP3    H165575   4.311   6.680   0.719  1.1888  0.4246  1.1525
14720TIP3    H265576   4.385   6.730   0.597 -0.1702 -0.3817 -0.0078
14721TIP3   OH265577   4.505   1.168  12.618 -0.3181  0.1208  0.3364
14721TIP3    H165578   4.523   1.152  12.711  1.6083 -1.2514 -0.2157
14721TIP3    H265579   4.521   1.083  12.576 -2.0560  0.4881 -1.1363
14722TIP3   OH265580   6.246   0.361   1.226 -0.4957 -0.1315  0.5717
14722TIP3    H165581   6.200   0.296   1.278  0.4350 -0.0143  1.5633
14722TIP3    H265582   6.195   0.369   1.146 -1.0754 -1.4594  0.8054
14723TIP3   OH265583   0.112   4.494  13.033 -0.2344  0.3533  0.3087
14723TIP3    H165584   0.047   4.525  13.096 -0.8928 -0.2760 -0.0588
14723TIP3    H265585   0.087   4.534  12.951  0.4995  0.9991  0.3883
14724TIP3   OH265586   5.236   4.582   3.062  0.2773 -0.2071 -0.1459
14724TIP3    H165587   5.289   4.642   3.011  0.4808 -0.5888 -0.3828
14724TIP3    H265588   5.231   4.502   3.009  0.8449 -0.7524  0.6147
14725TIP3   OH265589   1.399   5.706  15.279  0.0505 -0.6849 -0.2697
14725TIP3    H165590   1.401   5.682  15.187  0.2289 -1.7388  0.0091
14725TIP3    H265591   1.491   5.717  15.303  0.0216 -0.7336 -0.1361
14726TIP3   OH265592   4.984   5.316   2.452 -0.3265  0.5712 -0.5078
14726TIP3    H165593   5.020   5.314   2.540 -1.0165  1.3158 -0.2004
14726TIP3    H265594   4.928   5.238   2.447  1.3621 -0.6195 -1.0109
14727TIP3   OH265595   0.892   5.602  14.199 -0.1569 -0.0728  0.5306
14727TIP3    H165596   0.905   5.585  14.292 -0.1842  0.3912  0.6175
14727TIP3    H265597   0.977   5.633  14.168 -0.7665  2.0168  0.8935
14728TIP3   OH265598   6.401   2.437  16.950  0.4167 -0.4044  0.1243
14728TIP3    H165599   6.377   2.522  16.987  2.2221  0.7243 -1.1935
14728TIP3    H265600   6.325   2.411  16.899 -0.6987 -0.2800  1.6892
14729TIP3   OH265601   1.437   6.535  12.079 -0.0543 -0.5678  0.0391
14729TIP3    H165602   1.418   6.463  12.019  0.4801  0.8079 -1.7877
14729TIP3    H265603   1.352   6.575  12.095 -0.1496 -0.7365 -0.0395
14730TIP3   OH265604   2.275   1.944  12.343 -0.2409 -0.4601 -0.4754
14730TIP3    H165605   2.322   1.866  12.313 -0.1147 -0.4910 -0.1925
14730TIP3    H265606   2.228   1.975  12.265 -0.5947 -1.0413 -0.4982
14731TIP3   OH265607   6.586   6.412   2.131  0.1693 -0.3485 -0.2218
14731TIP3    H165608   6.588   6.389   2.038  1.3225 -1.6750  0.1197
14731TIP3    H265609   6.641   6.490   2.138 -0.8925  0.4813 -0.8195
14732TIP3   OH265610   1.477   4.706   5.857 -0.3363  0.5422 -0.1322
14732TIP3    H165611   1.428   4.711   5.939 -1.5380  0.0053 -0.7953
14732TIP3    H265612   1.554   4.653   5.878 -0.6366  0.4016  0.6533
14733TIP3   OH265613   0.608   3.798  14.840 -0.0007  0.2501 -0.0639
14733TIP3    H165614   0.702   3.797  14.857 -0.2614  2.4274  1.6782
14733TIP3    H265615   0.569   3.767  14.922 -0.8921  1.6058  0.0279
14734TIP3   OH265616   6.160   2.407  17.185  0.2065 -0.3629  0.0467
14734TIP3    H165617   6.070   2.441  17.178  0.0996 -0.6324  0.1045
14734TIP3    H265618   6.215   2.485  17.177 -0.0623 -0.0741  0.9488
14735TIP3   OH265619   0.356   2.647   3.504 -0.3056  0.2348 -0.2378
14735TIP3    H165620   0.376   2.630   3.412 -0.9894  0.7724 -0.4860
14735TIP3    H265621   0.436   2.685   3.540 -0.1633  0.3713 -0.6994
14736TIP3   OH265622   5.724   0.171   5.313 -0.4039  0.4810 -0.6646
14736TIP3    H165623   5.723   0.265   5.295 -1.2031  0.8242  1.1367
14736TIP3    H265624   5.808   0.155   5.354 -0.8075  0.6379  0.2248
14737TIP3   OH265625   3.788   5.016   4.859 -0.3779  0.4534 -0.0033
14737TIP3    H165626   3.772   4.925   4.885 -1.9820  0.5757 -0.4852
14737TIP3    H265627   3.713   5.038   4.803 -0.4083  2.3155  0.7326
14738TIP3   OH265628   2.013   0.412   3.387  0.4280  0.1022  0.1630
14738TIP3    H165629   1.947   0.357   3.429  1.5627 -1.1417  0.3484
14738TIP3    H265630   2.022   0.487   3.446  0.3219 -0.4971  0.9515
14739TIP3   OH265631   5.685   2.003   1.782  0.4259  0.3045  0.4744
14739TIP3    H165632   5.740   1.945   1.835  0.6941 -1.5510 -1.7433
14739TIP3    H265633   5.744   2.073   1.754  0.8369  0.0788  0.7677
14740TIP3   OH265634   0.036   4.693  14.077  0.0051  0.1704  0.5054
14740TIP3    H165635  -0.002   4.682  13.990  2.8098 -0.5278 -0.6977
14740TIP3    H265636   0.006   4.618  14.127 -1.0220  0.1905 -0.0882
14741TIP3   OH265637   3.178   4.168   1.387 -0.2623 -0.2321 -0.2452
14741TIP3    H165638   3.197   4.261   1.403  0.4626 -0.5302  0.6820
14741TIP3    H265639   3.198   4.154   1.295 -1.5428  0.8201 -0.6927
14742TIP3   OH265640   6.521   0.058   5.001 -0.4858 -0.1832  0.2095
14742TIP3    H165641   6.453   0.090   5.061 -1.8427  0.2589 -1.5039
14742TIP3    H265642   6.499  -0.034   4.986 -0.7208 -0.0401 -0.3467
14743TIP3   OH265643   6.358   0.372   1.667 -0.2442 -0.4569 -0.6317
14743TIP3    H165644   6.440   0.420   1.668 -1.8093  2.3478  0.7427
14743TIP3    H265645   6.351   0.337   1.579  1.2806  1.3028 -1.4849
14744TIP3   OH265646   2.263   2.020  12.808 -0.2339  0.2263  0.1371
14744TIP3    H165647   2.336   1.960  12.792  0.5065  1.0230  0.4385
14744TIP3    H265648   2.305   2.101  12.838 -1.2244  0.8077 -0.0048
14745TIP3   OH265649   0.603   2.119  15.169  0.5316  0.6191  0.0526
14745TIP3    H165650   0.546   2.161  15.233 -1.8341 -1.5192 -0.5218
14745TIP3    H265651   0.560   2.136  15.085  0.6197 -1.1665 -0.3722
14746TIP3   OH265652   3.313   3.648  11.632  0.0709  0.0866 -0.8493
14746TIP3    H165653   3.232   3.698  11.639 -0.8142 -1.4748  0.4558
14746TIP3    H265654   3.368   3.680  11.703  0.9212  1.6810 -2.2017
14747TIP3   OH265655   5.458   1.767  12.821  0.4902  0.2193 -0.1389
14747TIP3    H165656   5.539   1.729  12.854  2.1163  2.4580 -1.3987
14747TIP3    H265657   5.483   1.805  12.736 -1.8786  0.9708 -0.5289
14748TIP3   OH265658   0.513   5.369  14.141  0.8926  0.5267  0.1657
14748TIP3    H165659   0.474   5.327  14.064  0.6705  1.5026 -0.2676
14748TIP3    H265660   0.449   5.357  14.210  0.4141  0.9776 -0.2017
14749TIP3   OH265661   5.999   4.404  16.630 -0.0537 -0.1816  0.1962
14749TIP3    H165662   6.053   4.340  16.583 -1.3989 -0.7661 -0.6098
14749TIP3    H265663   5.969   4.357  16.707 -1.6305 -0.7864 -0.7648
14750TIP3   OH265664   3.281   0.742  15.244 -0.6521 -0.5710 -0.2548
14750TIP3    H165665   3.374   0.721  15.255 -0.8077 -0.1935  2.1812
14750TIP3    H265666   3.276   0.791  15.162  1.1826 -1.2453 -0.7882
14751TIP3   OH265667   1.255   0.114  12.674 -0.5979  0.3737 -0.0587
14751TIP3    H165668   1.327   0.052  12.668 -3.0200 -2.5310 -0.6407
14751TIP3    H265669   1.247   0.134  12.767 -1.1438 -1.9436  0.4243
14752TIP3   OH265670   2.293   5.961  15.197 -0.5049 -0.4278 -0.3389
14752TIP3    H165671   2.365   5.992  15.142 -0.6498 -0.8732 -0.7826
14752TIP3    H265672   2.334   5.899  15.258  0.0307  1.6160  1.4510
14753TIP3   OH265673   3.709   4.999  13.901 -0.0540  0.6153 -0.6797
14753TIP3    H165674   3.712   4.945  13.823  2.4386 -0.4390  0.0849
14753TIP3    H265675   3.713   5.089  13.869  0.1618  0.2072 -1.7862
14754TIP3   OH265676   0.103   5.964  15.637 -0.3096  0.1380  0.4489
14754TIP3    H165677   0.101   6.013  15.555 -1.4038  0.0776  0.4270
14754TIP3    H265678   0.067   6.024  15.702  1.7347  0.6412  1.1576
14755TIP3   OH265679   1.619   3.911  14.034 -0.1511  0.7514 -0.0036
14755TIP3    H165680   1.702   3.893  14.078 -0.2539  0.5129  0.0887
14755TIP3    H265681   1.600   4.003  14.055  0.0124  0.7603  0.1003
14756TIP3   OH265682   6.586   6.149  15.307  0.6330 -0.4288 -0.2114
14756TIP3    H165683   6.671   6.136  15.264  0.9671  1.5971 -0.1951
14756TIP3    H265684   6.527   6.171  15.235  0.5466  0.0503  0.0050
14757TIP3   OH265685   0.654   3.270  11.178  0.8953 -0.2524  0.3999
14757TIP3    H165686   0.714   3.232  11.114 -0.8786  0.3682 -1.7053
14757TIP3    H265687   0.674   3.364  11.177  0.3564 -0.1348  0.1716
14758TIP3   OH265688   4.543   3.707   4.480 -0.1858  0.2774  0.6344
14758TIP3    H165689   4.521   3.792   4.517  0.3710 -0.0785  1.8036
14758TIP3    H265690   4.638   3.708   4.471 -0.3023  0.3074 -0.6706
14759TIP3   OH265691   2.922   1.523  15.413  0.6319  0.2923  0.1933
14759TIP3    H165692   2.859   1.501  15.481  0.2551 -1.0569 -0.5705
14759TIP3    H265693   2.942   1.616  15.427 -0.0611  0.2334  1.6184
14760TIP3   OH265694   6.770   5.514   4.123  0.0636 -0.2265  0.1633
14760TIP3    H165695   6.771   5.469   4.039  2.5631 -0.0389  0.0662
14760TIP3    H265696   6.814   5.597   4.106  0.6238 -0.2092  1.6594
14761TIP3   OH265697   4.095   2.224  13.411  0.6505 -0.1905 -0.3303
14761TIP3    H165698   4.169   2.167  13.431 -1.0478 -2.3511 -0.0100
14761TIP3    H265699   4.072   2.203  13.321 -1.1143 -1.3445  0.3672
14762TIP3   OH265700   4.719   6.630  12.168  0.3538 -0.0148  0.3074
14762TIP3    H165701   4.737   6.549  12.215  1.6734  0.5519  0.7824
14762TIP3    H265702   4.753   6.699  12.224 -1.7108  0.9635  0.4053
14763TIP3   OH265703   3.388   2.880  12.552  0.6592  0.1749 -0.1772
14763TIP3    H165704   3.389   2.973  12.528 -0.5610 -0.4096 -2.5594
14763TIP3    H265705   3.451   2.839  12.493  2.1844 -0.3446  1.7493
14764TIP3   OH265706   5.422   1.233  14.545 -0.0899 -0.0980  0.0831
14764TIP3    H165707   5.406   1.160  14.484  1.1671  0.6501 -1.1578
14764TIP3    H265708   5.470   1.193  14.618 -0.0638 -0.6530 -0.2373
14765TIP3   OH265709   2.273   5.067   6.470 -0.7819 -0.4929  0.0389
14765TIP3    H165710   2.328   5.109   6.404 -2.1948 -0.7983 -1.3761
14765TIP3    H265711   2.291   4.973   6.459 -1.2243 -0.5616 -0.1189
14766TIP3   OH265712   0.817   6.750  14.527 -0.0147  0.2099  0.1013
14766TIP3    H165713   0.803   6.807  14.451  0.5745  1.8632  1.2044
14766TIP3    H265714   0.728   6.729  14.557 -0.2319  1.3871  0.2964
14767TIP3   OH265715   6.098   2.001  14.715  0.3528  0.4338  0.0339
14767TIP3    H165716   6.092   2.093  14.741  0.8826  1.2918 -2.6866
14767TIP3    H265717   6.041   1.994  14.638  4.9001  0.0099 -3.5279
14768TIP3   OH265718   0.851   5.030  13.358  0.4609 -0.0199 -0.1884
14768TIP3    H165719   0.883   5.110  13.316  1.5118 -0.8172 -0.9276
14768TIP3    H265720   0.760   5.023  13.328 -0.0671  1.5856  0.9327
14769TIP3   OH265721   3.767   4.125  10.789  0.0989 -0.1600 -0.0106
14769TIP3    H165722   3.798   4.041  10.755 -1.4532 -0.8548  0.2247
14769TIP3    H265723   3.733   4.170  10.712 -1.8594 -1.0346  0.2934
14770TIP3   OH265724   3.237   6.139   6.445 -0.2027 -0.3325 -0.7185
14770TIP3    H165725   3.159   6.187   6.416 -1.2832 -0.7272  1.4226
14770TIP3    H265726   3.253   6.170   6.534  1.3750 -1.1385 -0.7002
14771TIP3   OH265727   3.687   0.721   0.652 -0.0358  0.1239  0.2909
14771TIP3    H165728   3.631   0.775   0.597  0.5312  0.9888  0.5483
14771TIP3    H265729   3.627   0.659   0.694 -0.6844  0.4990 -0.0684
14772TIP3   OH265730   2.107   4.434   1.259  0.0318  0.0196  0.2023
14772TIP3    H165731   2.120   4.512   1.313 -0.1845  0.6674 -0.6895
14772TIP3    H265732   2.083   4.366   1.322 -2.0136  1.2029  0.7197
14773TIP3   OH265733   1.746   0.640   3.027 -0.4678 -0.0284  0.0405
14773TIP3    H165734   1.723   0.626   3.119 -0.3400 -1.1499 -0.0838
14773TIP3    H265735   1.667   0.675   2.987 -0.4826  0.5990  0.6017
14774TIP3   OH265736   5.137   2.171  16.019  1.0388  0.2350  0.3033
14774TIP3    H165737   5.230   2.185  16.005  1.3889 -0.5653  1.7952
14774TIP3    H265738   5.109   2.246  16.072  0.8040  0.5311 -0.2336
14775TIP3   OH265739   6.030   1.204   4.419  0.2020 -0.2792  0.2118
14775TIP3    H165740   6.119   1.236   4.431  0.5594 -0.8161 -0.9615
14775TIP3    H265741   6.023   1.183   4.326 -2.0481  2.3732 -0.2763
14776TIP3   OH265742   5.272   6.224   2.421  0.4292  0.2621 -0.3341
14776TIP3    H165743   5.302   6.297   2.366  1.8612  1.1500  1.5685
14776TIP3    H265744   5.195   6.258   2.466 -0.1242 -0.1156 -0.9826
14777TIP3   OH265745   5.801   6.316  17.041  0.1691 -0.5522  0.4232
14777TIP3    H165746   5.725   6.279  16.996 -0.0832  0.6525 -0.1418
14777TIP3    H265747   5.775   6.406  17.062  2.1951  0.5342 -1.5794
14778TIP3   OH265748   2.151   1.673  11.042 -0.4959 -0.1046  0.0033
14778TIP3    H165749   2.180   1.652  10.953 -2.0245  1.1176 -0.8047
14778TIP3    H265750   2.144   1.768  11.043 -3.4168 -0.2615  0.4476
14779TIP3   OH265751   4.962   4.515  10.887 -0.3126  0.0693  0.5187
14779TIP3    H165752   4.903   4.498  10.814 -1.4606  0.9058  1.2199
14779TIP3    H265753   4.937   4.452  10.954  0.2259 -0.2007  0.4640
14780TIP3   OH265754   5.604   0.269   2.352 -0.1105 -0.5075 -0.0736
14780TIP3    H165755   5.614   0.345   2.295 -0.5901 -0.8149 -0.5722
14780TIP3    H265756   5.673   0.279   2.418 -0.0893  0.2882 -0.2149
14781TIP3   OH265757   3.316   1.452  15.203 -0.4870  0.9767  0.3019
14781TIP3    H165758   3.302   1.545  15.184  1.1588  1.1388 -0.1976
14781TIP3    H265759   3.296   1.443  15.296  1.4907  2.2956  0.8898
14782TIP3   OH265760   1.955   5.040  11.845  0.0370  0.3889  0.2726
14782TIP3    H165761   1.910   5.010  11.766  2.5564 -0.3162 -0.9335
14782TIP3    H265762   1.927   5.131  11.855  0.7175  0.9113 -2.2456
14783TIP3   OH265763   1.208   4.841  14.367 -0.1403  0.2426 -0.0018
14783TIP3    H165764   1.219   4.799  14.282 -0.9167  0.9099 -0.4364
14783TIP3    H265765   1.144   4.910  14.352 -1.0126 -0.2495  1.3381
14784TIP3   OH265766   5.744   2.683  15.838 -0.3218  0.5293 -0.0397
14784TIP3    H165767   5.730   2.659  15.930  1.5252 -0.5609 -0.0298
14784TIP3    H265768   5.822   2.738  15.839 -0.8803  1.3493 -0.8457
14785TIP3   OH265769   0.492   1.326   5.001  0.1547  0.2457 -0.2851
14785TIP3    H165770   0.498   1.378   5.082 -0.9653 -0.3536  0.2021
14785TIP3    H265771   0.459   1.388   4.936 -1.5183  0.0893  0.3793
14786TIP3   OH265772   3.718   3.553  12.699 -0.2241 -0.1876 -0.4287
14786TIP3    H165773   3.809   3.540  12.724 -0.0981 -1.6350 -1.5790
14786TIP3    H265774   3.669   3.548  12.781  0.6555 -0.2289  0.0906
14787TIP3   OH265775   1.285   3.196  16.391 -0.1776  0.4170 -0.2803
14787TIP3    H165776   1.285   3.188  16.296  0.0248 -2.2157 -0.0862
14787TIP3    H265777   1.281   3.106  16.423 -0.9660  1.2851  2.2082
14788TIP3   OH265778   0.375   6.495  16.223 -0.0057 -0.7305 -0.0435
14788TIP3    H165779   0.375   6.579  16.177 -1.7735 -0.6221  0.1276
14788TIP3    H265780   0.378   6.518  16.316  0.5839 -0.8938 -0.0173
14789TIP3   OH265781   1.236   4.427  12.195 -0.3361  0.1711  0.2799
14789TIP3    H165782   1.273   4.347  12.159 -0.3641  0.0157  0.5978
14789TIP3    H265783   1.201   4.402  12.280  1.7968  1.0256  1.4595
14790TIP3   OH265784   5.970   4.466   1.748 -0.0494 -0.0001 -0.1229
14790TIP3    H165785   6.048   4.427   1.787 -1.1972  0.7370  3.0507
14790TIP3    H265786   6.004   4.516   1.673  1.9442 -3.2623 -1.5455
14791TIP3   OH265787   1.433   1.852   0.765  0.0416  0.5513  0.4707
14791TIP3    H165788   1.352   1.885   0.803  0.1347  1.3044  0.0382
14791TIP3    H265789   1.421   1.863   0.671  0.1602 -0.4743  0.3383
14792TIP3   OH265790   0.590   1.565  16.247 -0.2027  0.1373  0.0539
14792TIP3    H165791   0.594   1.641  16.305  0.0541 -0.6263  1.0481
14792TIP3    H265792   0.545   1.598  16.169  1.4455  1.7551 -0.2537
14793TIP3   OH265793   3.577   3.303   4.583  0.1317 -0.0118  1.0410
14793TIP3    H165794   3.630   3.272   4.509 -2.9661 -1.6318 -0.5719
14793TIP3    H265795   3.586   3.235   4.649 -0.8736 -0.8745  0.2990
14794TIP3   OH265796   6.305   4.820   0.616 -0.0953  1.0470  0.4468
14794TIP3    H165797   6.353   4.882   0.562  0.3688 -0.3377 -0.7771
14794TIP3    H265798   6.355   4.814   0.698  1.1150  0.5873 -0.3167
14795TIP3   OH265799   0.503   5.183   1.142 -0.1029  0.6004  0.1586
14795TIP3    H165800   0.458   5.267   1.153 -0.9683  0.4366 -1.9472
14795TIP3    H265801   0.433   5.120   1.127  0.4326 -0.8132  3.2321
14796TIP3   OH265802   1.273   5.925   5.022 -0.3418  0.1084  0.2632
14796TIP3    H165803   1.208   5.966   4.965  1.5036 -0.7400 -2.5349
14796TIP3    H265804   1.260   5.831   5.009  0.5753 -0.0839  0.7445
14797TIP3   OH265805   3.576   3.715   3.603 -0.3227 -0.1679  0.9502
14797TIP3    H165806   3.642   3.674   3.547 -2.3718 -1.4205 -0.6118
14797TIP3    H265807   3.543   3.643   3.657 -0.7462  0.3582  1.4012
14798TIP3   OH265808   1.507   5.930  13.815  0.5021  0.1810 -0.3907
14798TIP3    H165809   1.586   5.893  13.854  1.2707  2.1416 -0.0120
14798TIP3    H265810   1.436   5.873  13.845  1.5371 -0.4685  0.8748
14799TIP3   OH265811   2.036   0.978   4.044  0.3114  0.2670  0.0704
14799TIP3    H165812   1.949   1.017   4.036  0.1009 -0.4773 -1.5334
14799TIP3    H265813   2.049   0.933   3.960  2.1013  0.1048  0.4253
14800TIP3   OH265814   5.136   1.610   1.730 -0.1132  0.3788  0.0414
14800TIP3    H165815   5.219   1.616   1.682 -0.6833 -0.2376 -1.0370
14800TIP3    H265816   5.073   1.579   1.665 -0.6259 -1.7247  1.4784
14801TIP3   OH265817   1.810   5.788   5.377  0.5456 -0.2002 -0.2274
14801TIP3    H165818   1.807   5.696   5.403  1.3087 -0.1779 -0.0267
14801TIP3    H265819   1.785   5.788   5.284  1.7414 -0.7597 -0.5607
14802TIP3   OH265820   1.698   6.694   2.029 -0.2277  0.5498 -0.1517
14802TIP3    H165821   1.706   6.751   2.105 -3.3899 -0.6182  1.1469
14802TIP3    H265822   1.758   6.622   2.046 -1.0065  0.2364  1.3287
14803TIP3   OH265823   3.502   0.744   0.211  0.5031  0.2149 -0.2345
14803TIP3    H165824   3.506   0.805   0.137 -1.4694  0.6405  0.0005
14803TIP3    H265825   3.593   0.740   0.243  0.6231  3.2731 -0.0296
14804TIP3   OH265826   0.252   1.209  11.898  0.0716 -0.7731 -0.2195
14804TIP3    H165827   0.235   1.246  11.985  0.6698 -0.3045 -0.2959
14804TIP3    H265828   0.279   1.119  11.915 -0.0843 -0.7665  0.0636
14805TIP3   OH265829   5.209   6.537   2.388  0.6699 -0.0678 -0.5403
14805TIP3    H165830   5.157   6.572   2.461  2.2390 -1.7503  1.4583
14805TIP3    H265831   5.274   6.605   2.370 -0.8657  1.1478 -1.6563
14806TIP3   OH265832   2.415   5.273  12.253  0.6528 -0.3425 -0.2748
14806TIP3    H165833   2.443   5.363  12.272  1.1470 -0.5076 -0.2020
14806TIP3    H265834   2.362   5.281  12.174 -0.3504  0.1770  0.4482
14807TIP3   OH265835   0.814   0.035   2.053  0.3864 -0.0991  0.3166
14807TIP3    H165836   0.739   0.091   2.034  0.4444 -0.2923 -0.4935
14807TIP3    H265837   0.785  -0.053   2.027  0.9614 -0.1396 -0.1876
14808TIP3   OH265838   0.890   0.165   3.242 -0.4665 -0.1395  0.0619
14808TIP3    H165839   0.910   0.142   3.333  2.0946 -0.7287 -0.6155
14808TIP3    H265840   0.880   0.081   3.197 -1.4240  0.1471 -0.2799
14809TIP3   OH265841   2.312   4.929   5.734  0.1297  0.1142  0.2842
14809TIP3    H165842   2.381   4.962   5.676  0.7401 -1.0586  0.3497
14809TIP3    H265843   2.231   4.960   5.693  0.5340 -0.9908 -1.3977
14810TIP3   OH265844   4.029   1.338  14.701  0.1961 -0.6559  0.7170
14810TIP3    H165845   4.016   1.289  14.782 -0.2614 -1.7052  0.0066
14810TIP3    H265846   4.060   1.274  14.638  0.9102  0.2330  0.1472
14811TIP3   OH265847   4.844   6.240   4.463 -0.2027 -0.6947 -0.1449
14811TIP3    H165848   4.882   6.164   4.418  0.7725  0.1666 -0.7925
14811TIP3    H265849   4.822   6.301   4.392 -0.3989 -0.1157  0.4140
14812TIP3   OH265850   4.149   6.384   2.974 -0.6750 -0.2803  0.1231
14812TIP3    H165851   4.113   6.320   2.913 -0.8391  1.1525 -1.3355
14812TIP3    H265852   4.230   6.344   3.007  0.1315 -0.5297 -2.0716
14813TIP3   OH265853   0.979   0.349   2.147 -0.0181  0.3717 -0.1078
14813TIP3    H165854   0.893   0.312   2.125 -1.0070  1.6513  1.4811
14813TIP3    H265855   1.012   0.291   2.216  0.5876 -0.3417 -0.9799
14814TIP3   OH265856   0.433   5.935  11.655  0.2992 -0.5359 -0.6135
14814TIP3    H165857   0.373   5.980  11.596  1.3309  1.9346  0.1464
14814TIP3    H265858   0.520   5.957  11.623  0.8359 -0.8787  0.5613
14815TIP3   OH265859   2.151   3.110  15.546 -0.0186 -0.2039  0.3211
14815TIP3    H165860   2.161   3.079  15.456 -2.0757 -0.7044  0.2304
14815TIP3    H265861   2.181   3.201  15.544  0.2818 -0.3244 -0.7778
14816TIP3   OH265862   6.380   1.725   4.678 -0.9668 -0.0289  0.9429
14816TIP3    H165863   6.463   1.764   4.649  1.2213 -4.2103  1.2454
14816TIP3    H265864   6.368   1.759   4.767 -0.1464  1.4111  0.5264
14817TIP3   OH265865   0.231   0.564  11.769  0.2040 -0.7694 -0.1822
14817TIP3    H165866   0.156   0.558  11.828 -0.3419 -1.6113 -0.9520
14817TIP3    H265867   0.301   0.517  11.815  0.6062  0.9946  1.0469
14818TIP3   OH265868   5.081   1.586   1.287 -0.1481 -0.1544 -0.6707
14818TIP3    H165869   5.145   1.519   1.312 -1.3283 -1.1029 -0.1351
14818TIP3    H265870   5.009   1.536   1.249 -2.2298  0.5711  2.1947
14819TIP3   OH265871   6.258   1.736   0.601 -0.3367  0.1568  0.4333
14819TIP3    H165872   6.167   1.763   0.594 -0.4371 -0.1377  0.6005
14819TIP3    H265873   6.305   1.792   0.539 -0.6993 -0.0342 -0.0076
14820TIP3   OH265874   0.016   3.081  12.631  0.2837  0.0369  0.0602
14820TIP3    H165875   0.025   3.160  12.576 -1.6509 -0.1060 -0.5072
14820TIP3    H265876   0.008   3.009  12.569 -0.4573 -0.3085  0.5513
14821TIP3   OH265877   1.144   3.382  15.824 -0.6943  0.6580  0.2490
14821TIP3    H165878   1.226   3.406  15.867  0.0924 -1.8431  0.2001
14821TIP3    H265879   1.077   3.396  15.891  0.3229 -1.5677  1.8106
14822TIP3   OH265880   0.862   3.220  14.403  0.8903 -0.5336 -0.5349
14822TIP3    H165881   0.871   3.149  14.466  0.2380  0.7946  1.1118
14822TIP3    H265882   0.769   3.244  14.407  1.0376  0.1961 -1.3064
14823TIP3   OH265883   5.717   2.597   0.956 -0.5878 -0.2866 -0.3374
14823TIP3    H165884   5.776   2.521   0.960  1.2635  1.1513  0.6892
14823TIP3    H265885   5.651   2.573   0.891  0.4642 -2.4296 -0.6578
14824TIP3   OH265886   5.777   0.202   3.579 -0.8238  0.0641  0.5466
14824TIP3    H165887   5.717   0.268   3.545 -0.6629 -0.1850 -0.2256
14824TIP3    H265888   5.748   0.120   3.539  1.1653  0.2214 -1.3206
14825TIP3   OH265889   1.280   2.904   1.754  0.4166  0.0352  0.1768
14825TIP3    H165890   1.297   2.844   1.682  2.6916  2.3505 -1.2877
14825TIP3    H265891   1.193   2.939   1.736 -0.5983 -2.1856  0.6253
14826TIP3   OH265892   5.955   0.825   2.477  0.3688  0.0442 -0.1291
14826TIP3    H165893   5.908   0.743   2.489 -0.9367  0.8210  0.1144
14826TIP3    H265894   5.899   0.891   2.517  1.6137  0.9980  0.0521
14827TIP3   OH265895   4.464   4.814   5.034  0.1544 -0.7261  0.3509
14827TIP3    H165896   4.559   4.816   5.049  0.2496 -0.6717 -0.2402
14827TIP3    H265897   4.453   4.751   4.962 -0.1916 -0.1661 -0.0867
14828TIP3   OH265898   1.604   5.971  12.459 -0.1241  0.2744  0.1185
14828TIP3    H165899   1.521   5.982  12.505  0.2519 -0.6222  1.0491
14828TIP3    H265900   1.584   5.991  12.368 -1.2997  0.3294  0.3788
14829TIP3   OH265901   6.012   0.182  16.712 -0.1977 -0.0231  0.1302
14829TIP3    H165902   6.099   0.142  16.707 -0.9921 -1.8431  0.3354
14829TIP3    H265903   5.971   0.141  16.789 -1.8595 -0.5024 -0.9726
14830TIP3   OH265904   4.391   2.442  13.515 -0.2800  0.5207 -0.1279
14830TIP3    H165905   4.326   2.406  13.576 -0.1166  1.0093  0.3457
14830TIP3    H265906   4.436   2.509  13.566  2.4546 -1.6638  0.4122
14831TIP3   OH265907   1.287   6.058  12.300 -0.0713 -0.1002 -0.8720
14831TIP3    H165908   1.269   5.987  12.361  0.2262  1.5378  1.1923
14831TIP3    H265909   1.276   6.138  12.352 -2.8555  1.5012 -3.7238
14832TIP3   OH265910   4.444   3.278  13.484  0.9321 -0.1934 -0.3369
14832TIP3    H165911   4.514   3.291  13.420  0.9390 -0.1785 -0.3252
14832TIP3    H265912   4.383   3.218  13.441  0.0416  1.2010 -1.0532
14833TIP3   OH265913   4.206   1.470  16.000 -0.0039  0.4340 -0.2043
14833TIP3    H165914   4.195   1.379  15.973 -0.9524  0.4068  0.2477
14833TIP3    H265915   4.270   1.505  15.939  0.4058 -0.5521 -0.3514
14834TIP3   OH265916   1.766   3.345  12.333  0.1684  0.0861  0.3190
14834TIP3    H165917   1.701   3.281  12.303  0.0829  0.7981 -1.0526
14834TIP3    H265918   1.846   3.294  12.347 -0.2933 -0.5519  0.6519
14835TIP3   OH265919   6.475   3.478   3.784 -0.2545  0.3891 -0.0913
14835TIP3    H165920   6.539   3.411   3.760 -0.5410  0.0608  0.0567
14835TIP3    H265921   6.478   3.541   3.713  2.1914  1.7790  1.1694
14836TIP3   OH265922   3.708   3.597   3.407 -0.3031  0.0202 -0.1872
14836TIP3    H165923   3.665   3.550   3.336 -1.5115 -0.9020  1.1436
14836TIP3    H265924   3.799   3.566   3.405 -0.1262  0.5847 -1.8046
14837TIP3   OH265925   3.629   2.554   5.947  0.1513  0.3843  0.3694
14837TIP3    H165926   3.701   2.598   5.992 -0.2442 -0.8646  2.2930
14837TIP3    H265927   3.615   2.474   5.997 -0.5973 -0.8596 -1.7694
14838TIP3   OH265928   0.591   5.017  13.265 -0.2603 -0.2368 -0.3510
14838TIP3    H165929   0.520   4.983  13.211 -0.3993 -0.6941  0.1185
14838TIP3    H265930   0.611   5.103  13.227 -1.2974  0.0467 -0.2682
14839TIP3   OH265931   5.671   5.854   4.419 -0.0657 -0.5898  0.4228
14839TIP3    H165932   5.731   5.892   4.483 -0.2502  1.7242 -0.7471
14839TIP3    H265933   5.720   5.782   4.380  2.0041  1.3028 -0.5555
14840TIP3   OH265934   4.134   6.758  11.683 -0.4527 -0.0018 -0.0895
14840TIP3    H165935   4.170   6.709  11.609  0.0878 -0.3258  0.3809
14840TIP3    H265936   4.118   6.692  11.750  0.4349  0.4785  0.6077
14841TIP3   OH265937   3.033   3.504   5.984 -0.1709 -0.1568  0.1398
14841TIP3    H165938   3.127   3.502   6.001 -0.5452 -0.2724  2.3539
14841TIP3    H265939   3.026   3.522   5.890  2.0447  0.6067  0.0888
14842TIP3   OH265940   0.437   6.113   2.156  0.0670 -0.0367 -0.2399
14842TIP3    H165941   0.491   6.040   2.188  2.4431  1.0180 -1.6614
14842TIP3    H265942   0.455   6.116   2.062 -1.3541  1.2870 -0.4838
14843TIP3   OH265943   3.221   0.311  14.535  0.2756 -0.4432 -0.1301
14843TIP3    H165944   3.248   0.283  14.448 -2.1282  1.3847 -1.5136
14843TIP3    H265945   3.193   0.231  14.579 -0.7041 -1.0694 -1.8622
14844TIP3   OH265946   1.253   4.037  13.070  0.0618 -0.3285  0.5275
14844TIP3    H165947   1.195   4.001  13.003 -1.0025  0.8616  0.8106
14844TIP3    H265948   1.337   3.993  13.054  0.0548  0.5402 -2.0852
14845TIP3   OH265949   6.174   0.807  11.761 -0.0531 -0.3810 -0.7373
14845TIP3    H165950   6.152   0.833  11.851 -0.4724 -2.5605 -0.1903
14845TIP3    H265951   6.112   0.855  11.706 -0.2070  0.4821  0.1748
14846TIP3   OH265952   2.330   0.120   2.094 -0.4357  0.2003 -0.4476
14846TIP3    H165953   2.386   0.125   2.171  0.7938  0.9152 -1.3765
14846TIP3    H265954   2.245   0.091   2.128  0.7242 -1.7798  0.8388
14847TIP3   OH265955   1.758   0.827   4.846 -0.2680 -0.3293 -0.1332
14847TIP3    H165956   1.704   0.897   4.808 -1.1863  0.7645  3.0755
14847TIP3    H265957   1.714   0.746   4.818 -1.8491  0.4805 -0.0555
14848TIP3   OH265958   1.749   3.666   1.671 -0.1976 -0.2337 -0.7622
14848TIP3    H165959   1.728   3.597   1.734  3.2474 -0.2582  0.4222
14848TIP3    H265960   1.779   3.619   1.593 -0.4498 -0.0886 -0.9518
14849TIP3   OH265961   6.339   2.980  15.998 -0.2749 -0.6378 -0.6323
14849TIP3    H165962   6.423   2.964  16.041  0.1787  0.3616 -1.1217
14849TIP3    H265963   6.282   3.011  16.069 -0.0522 -0.7429 -0.4069
14850TIP3   OH265964   6.274   1.422   2.295 -0.4540  0.1622 -0.5196
14850TIP3    H165965   6.368   1.406   2.301 -0.9078 -2.3207  0.2154
14850TIP3    H265966   6.254   1.476   2.372  0.1403 -0.4850  0.0959
14851TIP3   OH265967   1.418   2.812  16.070  0.2605  0.0413  0.0144
14851TIP3    H165968   1.338   2.765  16.046  0.1755 -0.6729  1.6257
14851TIP3    H265969   1.483   2.782  16.006 -0.6960  0.4749 -1.1794
14852TIP3   OH265970   2.951   2.547  14.190  0.0634 -0.2885  0.1999
14852TIP3    H165971   3.002   2.467  14.204  1.2174  0.2201 -0.9106
14852TIP3    H265972   2.974   2.603  14.264  0.5678 -0.3438  0.0882
14853TIP3   OH265973   3.877   2.729   0.359  0.1382 -0.3913  0.6974
14853TIP3    H165974   3.912   2.655   0.310 -0.3805 -1.4597  1.9314
14853TIP3    H265975   3.953   2.765   0.405  0.3524 -0.2579  0.2481
14854TIP3   OH265976   2.634   4.444  16.679  1.2390 -0.1773  0.1152
14854TIP3    H165977   2.720   4.468  16.646  1.0154 -0.4705 -0.6860
14854TIP3    H265978   2.574   4.509  16.643  0.8439 -1.1000 -0.9135
14855TIP3   OH265979   6.747   2.160   1.427  0.0935  0.0099 -0.2393
14855TIP3    H165980   6.736   2.218   1.352 -0.4242  0.0181 -0.1609
14855TIP3    H265981   6.728   2.216   1.503 -0.9992 -0.4087 -0.1936
14856TIP3   OH265982   1.455   4.382   3.262 -0.6618 -0.6067 -0.8324
14856TIP3    H165983   1.442   4.476   3.248 -1.3525 -0.7630 -1.2552
14856TIP3    H265984   1.527   4.359   3.203  0.3008 -0.1148  0.1343
14857TIP3   OH265985   3.710   4.771  15.021  0.1301 -0.2056 -0.1366
14857TIP3    H165986   3.633   4.729  14.982 -0.7277 -0.0321  1.2926
14857TIP3    H265987   3.735   4.712  15.093  0.6557  0.3045  0.1022
14858TIP3   OH265988   1.911   5.955  16.418  0.1977 -0.5161  0.3084
14858TIP3    H165989   1.998   5.994  16.407  0.4325 -1.7656 -2.4462
14858TIP3    H265990   1.925   5.883  16.480  0.6294  0.8104  1.7945
14859TIP3   OH265991   2.325   2.293   2.386  0.0246  0.1176  0.1702
14859TIP3    H165992   2.398   2.337   2.342 -1.2563  0.4962 -1.5810
14859TIP3    H265993   2.363   2.209   2.415  1.0173  0.0679 -1.2028
14860TIP3   OH265994   1.471   3.659  14.472 -0.1953  0.1380  0.3586
14860TIP3    H165995   1.426   3.598  14.413  2.0179 -0.6560 -0.5730
14860TIP3    H265996   1.417   3.738  14.472 -2.3007 -1.2611  0.3784
14861TIP3   OH265997   0.962   0.882  15.088 -0.1040  0.0870  0.5294
14861TIP3    H165998   0.907   0.956  15.062  1.7563  2.3812  2.8088
14861TIP3    H265999   0.909   0.833  15.151 -0.8839  0.1894 -0.0420
14862TIP3   OH266000   2.121   6.427  15.250  0.0672  0.3930 -0.0346
14862TIP3    H166001   2.072   6.461  15.175 -1.3147  1.9505  1.5463
14862TIP3    H266002   2.201   6.479  15.252 -0.0270  0.5484 -0.2400
14863TIP3   OH266003   3.181   0.971  15.717  0.1006  0.2164  0.0885
14863TIP3    H166004   3.239   1.046  15.722  1.1775 -0.6586  1.2060
14863TIP3    H266005   3.209   0.923  15.639  0.6562 -0.0252  0.4366
14864TIP3   OH266006   4.620   3.494   3.487 -0.0485 -0.1157 -0.1593
14864TIP3    H166007   4.580   3.432   3.548 -2.7840  0.5647 -1.2123
14864TIP3    H266008   4.694   3.447   3.449 -0.7271 -1.9190  0.7262
14865TIP3   OH266009   1.965   0.870   5.844 -0.3032 -0.0072  0.4597
14865TIP3    H166010   2.019   0.825   5.909  0.7959  2.1020  1.0267
14865TIP3    H266011   1.915   0.934   5.894  0.7645  1.8386 -0.7893
14866TIP3   OH266012   2.728   3.868  10.448  0.4064 -0.3289  0.1907
14866TIP3    H166013   2.764   3.943  10.400 -1.0162 -0.0921 -0.5345
14866TIP3    H266014   2.635   3.887  10.456 -0.0506 -2.1826 -0.3310
14867TIP3   OH266015   0.133   2.124   5.066 -0.2004  0.0643 -0.2037
14867TIP3    H166016   0.124   2.147   5.158 -0.5871 -0.8138 -0.0088
14867TIP3    H266017   0.206   2.062   5.064  0.7548  1.1895 -0.6954
14868TIP3   OH266018   2.735   3.754   6.538  0.7197  0.6238 -0.0350
14868TIP3    H166019   2.730   3.829   6.597  0.2693 -0.0607  0.8026
14868TIP3    H266020   2.799   3.696   6.579  1.5412  0.8278 -1.0092
14869TIP3   OH266021   0.430   4.555  15.535 -0.1991 -0.1803 -0.8056
14869TIP3    H166022   0.519   4.528  15.559  0.1980  0.1221 -1.8769
14869TIP3    H266023   0.399   4.485  15.477 -0.2257  0.2606 -1.3339
14870TIP3   OH266024   1.414   1.206   6.560  0.1390  0.2622  0.2239
14870TIP3    H166025   1.430   1.144   6.488 -0.7664  0.6039 -0.2770
14870TIP3    H266026   1.447   1.160   6.638  1.2350 -0.0633 -0.4133
14871TIP3   OH266027   6.230   3.700   3.858  0.0822 -0.3184  0.6651
14871TIP3    H166028   6.154   3.742   3.816 -1.5410 -0.4774  3.3204
14871TIP3    H266029   6.297   3.768   3.858 -0.2575  0.0402 -1.1667
14872TIP3   OH266030   5.492   4.064   3.743 -0.3108 -0.7147 -0.8104
14872TIP3    H166031   5.495   3.981   3.696  1.3125  0.0949 -2.2009
14872TIP3    H266032   5.433   4.119   3.692 -1.2143 -0.9328 -0.0111
14873TIP3   OH266033   3.312   6.305   2.277 -0.2316  0.0523  0.4989
14873TIP3    H166034   3.231   6.349   2.303 -1.6631 -1.8585 -0.4879
14873TIP3    H266035   3.346   6.357   2.204 -1.1652  0.3102  0.2401
14874TIP3   OH266036   0.126   2.987   4.528 -0.2645  0.2028  0.6700
14874TIP3    H166037   0.136   2.947   4.441  0.7546 -1.3193  1.4580
14874TIP3    H266038   0.031   3.000   4.538 -0.6146 -1.9233  0.3246
14875TIP3   OH266039   0.724   5.205  14.252  0.2760 -0.1409  0.0535
14875TIP3    H166040   0.652   5.255  14.288  0.5615 -0.1215  0.6032
14875TIP3    H266041   0.797   5.267  14.247  0.6877 -0.5348  0.9224
14876TIP3   OH266042   2.112   5.724  11.759 -0.0423  0.2205  0.8335
14876TIP3    H166043   2.030   5.734  11.806  0.7873 -0.2361  2.3957
14876TIP3    H266044   2.176   5.774  11.810  0.5878  0.8879 -0.5687
14877TIP3   OH266045   3.489   5.509  11.274  0.1595 -0.1076 -0.1983
14877TIP3    H166046   3.564   5.459  11.305 -0.7496 -0.7865  0.9544
14877TIP3    H266047   3.420   5.444  11.260 -0.9369  0.7407  1.0333
14878TIP3   OH266048   5.929   1.981  14.497  0.5456 -0.1782  0.4138
14878TIP3    H166049   5.970   1.942  14.420 -0.7446 -1.9671  0.5941
14878TIP3    H266050   5.835   1.974  14.480  0.2176  3.3290  0.2461
14879TIP3   OH266051   2.089   1.578   2.230  0.0183  0.2883 -0.7097
14879TIP3    H166052   2.079   1.528   2.311  0.5060  0.3564 -0.6057
14879TIP3    H266053   2.147   1.650   2.253 -0.1382  0.5212 -1.0299
14880TIP3   OH266054   1.296   3.244  13.615 -0.3732 -0.1469  0.0230
14880TIP3    H166055   1.370   3.203  13.659 -0.2138 -1.3761 -1.3745
14880TIP3    H266056   1.222   3.187  13.633 -0.7488  0.4644  0.4419
14881TIP3   OH266057   2.478   1.373   5.065  0.6411 -0.3157 -0.8931
14881TIP3    H166058   2.450   1.283   5.050 -2.4285  0.5085 -0.4381
14881TIP3    H266059   2.482   1.383   5.160  1.6296 -0.1302 -0.9415
14882TIP3   OH266060   6.328   6.235  16.672 -0.0054  0.4067 -0.0329
14882TIP3    H166061   6.416   6.223  16.707 -0.6300 -0.9001  1.1674
14882TIP3    H266062   6.310   6.329  16.681  0.4801  0.3546  1.6652
14883TIP3   OH266063   6.332   2.000  11.873 -0.6759 -0.0542 -0.3123
14883TIP3    H166064   6.339   1.941  11.948 -0.9854  0.0874 -0.1709
14883TIP3    H266065   6.276   2.071  11.903  0.3610  0.7273 -0.2246
14884TIP3   OH266066   3.998   3.869  17.215 -0.1554  0.2220  0.3529
14884TIP3    H166067   4.044   3.809  17.274 -0.8384  1.1945  1.9093
14884TIP3    H266068   4.064   3.936  17.194 -0.8243  1.6406  2.6167
14885TIP3   OH266069   3.724   2.472  12.776 -0.1302  0.2866  0.2854
14885TIP3    H166070   3.690   2.383  12.783  1.4339 -0.3691 -0.2700
14885TIP3    H266071   3.708   2.510  12.862  1.8740 -1.5210  1.5046
14886TIP3   OH266072   6.650   4.778  15.115  0.2872 -0.0704  0.2894
14886TIP3    H166073   6.733   4.785  15.161  0.8450  1.8062 -0.9676
14886TIP3    H266074   6.585   4.766  15.184  1.4357 -0.2001  1.3526
14887TIP3   OH266075   3.417   1.400   2.713 -0.2388 -0.4456 -0.4435
14887TIP3    H166076   3.455   1.487   2.702  0.6629 -0.9738 -1.5831
14887TIP3    H266077   3.336   1.403   2.662  0.4427 -0.6846 -1.5369
14888TIP3   OH266078   4.039   1.972   5.696  0.2688  0.8526  0.2951
14888TIP3    H166079   4.053   1.924   5.777  1.0259  1.7134  0.6797
14888TIP3    H266080   4.102   2.043   5.698  0.9320  0.3499 -1.4900
14889TIP3   OH266081   2.826   5.490   5.950  0.4158  0.1079  0.0105
14889TIP3    H166082   2.881   5.520   5.878  0.4005  0.7168  0.2479
14889TIP3    H266083   2.826   5.395   5.942 -0.3490  0.2110 -1.3418
14890TIP3   OH266084   5.841   5.729  11.384 -0.4419 -0.8000 -0.3064
14890TIP3    H166085   5.912   5.671  11.410 -0.8454 -0.6408  1.2061
14890TIP3    H266086   5.883   5.816  11.379 -0.0817 -1.0332 -1.4821
14891TIP3   OH266087   1.857   5.168   2.407  0.1702 -0.0384 -0.3846
14891TIP3    H166088   1.774   5.200   2.372  0.5575  0.2149 -1.0760
14891TIP3    H266089   1.915   5.244   2.404  0.5885 -0.3564 -0.4175
14892TIP3   OH266090   2.768   3.974   6.740 -0.8487  0.1059  0.0459
14892TIP3    H166091   2.863   3.982   6.746 -0.7943  0.7908 -1.4218
14892TIP3    H266092   2.736   4.063   6.757 -1.2658 -0.2532  1.1647
14893TIP3   OH266093   5.386   3.633  14.421 -0.4020 -0.2569 -0.0626
14893TIP3    H166094   5.411   3.721  14.448 -0.5908 -0.0145 -0.6795
14893TIP3    H266095   5.467   3.583  14.423 -0.2328  0.0195 -0.0471
14894TIP3   OH266096   0.956   3.996  16.769  0.2992 -0.2129 -0.2432
14894TIP3    H166097   1.014   3.932  16.811  2.1254  2.5686  1.6486
14894TIP3    H266098   1.001   4.021  16.689 -0.0926 -0.7968 -0.6462
14895TIP3   OH266099   2.788   6.212   2.168  0.2371 -0.4064 -0.4932
14895TIP3    H166100   2.880   6.186   2.154  0.0406 -1.0871 -0.5483
14895TIP3    H266101   2.751   6.141   2.220 -0.6866 -0.9358 -1.8346
14896TIP3   OH266102   2.169   5.077   2.113  0.1415 -0.0695  0.0995
14896TIP3    H166103   2.169   5.161   2.159  0.1518 -0.6258  1.1364
14896TIP3    H266104   2.089   5.034   2.143  0.4303 -0.6664  0.0231
14897TIP3   OH266105   6.214   1.396   3.070  0.2404  0.5041 -0.4204
14897TIP3    H166106   6.140   1.342   3.041  0.7231 -0.3300 -0.1331
14897TIP3    H266107   6.260   1.420   2.990  0.4121 -0.0995 -0.5087
14898TIP3   OH266108   4.671   6.641  13.977  0.5884 -0.5423 -0.5200
14898TIP3    H166109   4.601   6.642  14.042 -0.2763  2.5803 -1.3928
14898TIP3    H266110   4.632   6.596  13.902  0.9628 -2.5110  0.4447
14899TIP3   OH266111   3.676   1.557   6.457 -0.0531 -0.5934  0.3697
14899TIP3    H166112   3.749   1.615   6.437 -0.6932  0.9143  2.1897
14899TIP3    H266113   3.716   1.479   6.495  0.8420 -1.5562 -2.4329
14900TIP3   OH266114   1.594   1.292  16.348  0.1608 -0.4226  0.5823
14900TIP3    H166115   1.635   1.351  16.411 -0.8216 -0.8071  1.5857
14900TIP3    H266116   1.625   1.205  16.373 -0.6572 -0.6326  0.8738
14901TIP3   OH266117   4.736   4.448   4.818 -0.4382 -0.1652  0.1671
14901TIP3    H166118   4.704   4.538   4.827 -0.7227 -0.1202 -1.1352
14901TIP3    H266119   4.686   4.398   4.883 -2.5799  0.0696 -1.2327
14902TIP3   OH266120   0.936   2.545   2.610  0.1180  0.0532  0.0300
14902TIP3    H166121   0.910   2.454   2.619  1.2339 -0.4485 -1.5153
14902TIP3    H266122   0.856   2.595   2.628 -1.0628 -1.3110 -1.2570
14903TIP3   OH266123   1.407   6.543   5.557 -0.2973  0.3613 -0.0174
14903TIP3    H166124   1.502   6.554   5.550 -0.2424 -0.4224 -0.6007
14903TIP3    H266125   1.396   6.454   5.589 -0.8138  0.9178  1.3928
14904TIP3   OH266126   3.273   4.650  11.365  0.5559 -0.3451 -0.0534
14904TIP3    H166127   3.292   4.588  11.436 -0.4639 -0.4270  0.1665
14904TIP3    H266128   3.232   4.725  11.410 -4.2455 -2.2334 -0.9430
14905TIP3   OH266129   3.076   0.557  11.621  0.4576 -0.1522  0.1201
14905TIP3    H166130   3.060   0.592  11.708  0.3516  0.2992 -0.0782
14905TIP3    H266131   3.048   0.465  11.626  0.7693 -0.2222  0.6524
14906TIP3   OH266132   5.096   1.378  16.244  0.0559 -0.0326  0.2709
14906TIP3    H166133   5.131   1.375  16.333  0.8710 -1.0889 -0.0762
14906TIP3    H266134   5.072   1.288  16.224  0.0104  0.1689 -0.6237
14907TIP3   OH266135   5.846   4.861  11.886 -0.1319 -0.0445  0.3263
14907TIP3    H166136   5.849   4.836  11.794 -0.1088 -1.4692  0.7121
14907TIP3    H266137   5.927   4.911  11.900 -1.4173  2.5130 -1.0752
14908TIP3   OH266138   5.441   6.068   2.596 -1.0222 -0.0778 -0.2886
14908TIP3    H166139   5.354   6.064   2.556 -1.9659  2.3687  1.3765
14908TIP3    H266140   5.463   6.161   2.594  0.2849 -0.3132  1.9786
14909TIP3   OH266141   4.308   6.402  12.350  0.2323 -0.5649 -0.3008
14909TIP3    H166142   4.366   6.381  12.423  2.1324 -1.3131 -1.9956
14909TIP3    H266143   4.358   6.380  12.272 -0.9079  2.4264 -1.9399
14910TIP3   OH266144   6.258   2.655  17.039  0.3951  0.0251  0.1678
14910TIP3    H166145   6.164   2.640  17.026  0.4939 -0.4798  0.0588
14910TIP3    H266146   6.262   2.741  17.083 -0.0893  0.2660 -0.2588
14911TIP3   OH266147   4.495   2.568  15.058  0.2135  0.3741 -0.3775
14911TIP3    H166148   4.402   2.580  15.038  0.1848  0.4405 -0.2019
14911TIP3    H266149   4.530   2.657  15.060  0.2189  0.3668 -0.1413
14912TIP3   OH266150   1.876   4.190   4.791  0.4339 -0.2121 -0.4649
14912TIP3    H166151   1.849   4.168   4.880  2.0404  0.7287  0.2896
14912TIP3    H266152   1.957   4.140   4.777  0.5782  0.1952 -1.1268
14913TIP3   OH266153   3.792   0.174  12.382  0.2546  0.2239  0.0540
14913TIP3    H166154   3.702   0.157  12.410 -0.0138  0.8824 -0.3952
14913TIP3    H266155   3.822   0.244  12.439  0.5584 -0.1482  0.3504
14914TIP3   OH266156   0.231   4.388   0.170  0.4068  0.3756 -0.1693
14914TIP3    H166157   0.139   4.379   0.143  0.4241 -1.9196  0.4993
14914TIP3    H266158   0.280   4.340   0.104  0.8382 -1.2667  1.3353
14915TIP3   OH266159   5.357   6.323   5.034 -0.3555  0.1900 -0.1652
14915TIP3    H166160   5.368   6.412   5.001 -0.8333  0.5790  0.6869
14915TIP3    H266161   5.427   6.312   5.098 -1.7227  0.8232  1.4785
14916TIP3   OH266162   4.175   1.526  12.993 -0.0735 -0.2494  0.3992
14916TIP3    H166163   4.241   1.464  13.023  0.4792 -0.8725 -2.0272
14916TIP3    H266164   4.211   1.612  13.014  0.9965 -0.6212  0.1267
14917TIP3   OH266165   4.813   3.130   0.928  0.1763 -0.5736 -0.0461
14917TIP3    H166166   4.863   3.067   0.876 -1.2222 -1.5029 -0.2887
14917TIP3    H266167   4.798   3.086   1.012 -2.4320 -1.3767 -0.8781
14918TIP3   OH266168   0.997   5.260  13.320  0.1750 -0.2081  0.1456
14918TIP3    H166169   1.018   5.247  13.227  2.3103 -0.2025  0.5851
14918TIP3    H266170   1.075   5.303  13.355 -0.9498  0.5057  1.7729
14919TIP3   OH266171   5.713   1.360  12.544  0.2494 -0.2929  0.2082
14919TIP3    H166172   5.725   1.420  12.618  1.4774 -0.5964  0.2763
14919TIP3    H266173   5.619   1.354  12.532  0.1120  1.9169 -0.0079
14920TIP3   OH266174   1.765   1.499  16.648 -0.3537  0.5413  0.1719
14920TIP3    H166175   1.671   1.509  16.658 -0.6537 -0.0525 -1.7452
14920TIP3    H266176   1.794   1.581  16.608 -0.5628 -0.4037 -2.0331
14921TIP3   OH266177   1.805   1.402   5.064  0.0750  0.0710  0.2481
14921TIP3    H166178   1.880   1.458   5.083  0.1706  0.1805 -0.4477
14921TIP3    H266179   1.732   1.462   5.051  0.2801  0.0766 -0.9848
14922TIP3   OH266180   1.377   0.533  14.347  0.1285 -0.0044  0.3219
14922TIP3    H166181   1.410   0.516  14.435  0.3864 -0.3229  0.1705
14922TIP3    H266182   1.307   0.597  14.358 -0.0904 -0.3264  0.7961
14923TIP3   OH266183   4.073   1.794   3.480 -0.2048 -0.9189  0.3305
14923TIP3    H166184   4.068   1.862   3.547 -1.9773 -1.2902  0.5866
14923TIP3    H266185   4.127   1.833   3.411 -0.9638  0.6413  0.5924
14924TIP3   OH266186   3.742   1.475  13.191  0.0681  0.0834  0.0112
14924TIP3    H166187   3.740   1.469  13.096  1.3966 -1.5621  0.0741
14924TIP3    H266188   3.834   1.464  13.214 -0.6215 -2.8057  1.6694
14925TIP3   OH266189   5.453   0.068  15.714  0.1372 -0.1793 -0.3745
14925TIP3    H166190   5.438   0.132  15.784 -0.9178 -0.5559 -0.2551
14925TIP3    H266191   5.405  -0.010  15.743 -1.7436  0.2124 -2.3380
14926TIP3   OH266192   4.875   2.194   1.508 -0.5158 -0.5191 -0.0965
14926TIP3    H166193   4.965   2.161   1.505 -0.4735 -0.3864 -0.3380
14926TIP3    H266194   4.877   2.274   1.455 -1.2855 -1.7643 -2.0585
14927TIP3   OH266195   2.682   4.126  15.538  0.3055 -0.0062  0.2115
14927TIP3    H166196   2.629   4.200  15.508  0.6228 -0.1036 -0.6048
14927TIP3    H266197   2.743   4.164  15.601 -0.4255  0.1872  0.8063
14928TIP3   OH266198   1.100   5.743  13.988 -0.3265  0.0823 -0.2289
14928TIP3    H166199   1.019   5.735  13.939 -0.5985 -0.3096  0.2784
14928TIP3    H266200   1.160   5.682  13.945 -0.6205 -0.3937  0.0257
14929TIP3   OH266201   2.846   6.348  11.414 -0.0969 -0.0163  0.0269
14929TIP3    H166202   2.776   6.381  11.358  1.1116  0.4345 -1.2338
14929TIP3    H266203   2.800   6.306  11.487 -1.6553  2.1007  0.2886
14930TIP3   OH266204   3.668   2.013   0.615  0.2522  0.6461  0.0936
14930TIP3    H166205   3.749   2.052   0.582  0.3693  1.0534  0.8485
14930TIP3    H266206   3.600   2.077   0.597 -0.1340 -0.2255 -1.6804
14931TIP3   OH266207   2.672   3.141   1.775 -0.4987  0.0596 -0.2348
14931TIP3    H166208   2.756   3.108   1.809 -1.5120 -0.7917  1.4777
14931TIP3    H266209   2.649   3.213   1.833 -1.5018 -0.4254 -0.0210
14932TIP3   OH266210   3.925   4.515  12.998 -0.3470 -0.4976  0.0185
14932TIP3    H166211   4.016   4.488  13.013  0.6118  1.9519 -1.2097
14932TIP3    H266212   3.892   4.536  13.086  0.4735 -0.7111  0.3833
14933TIP3   OH266213   0.950   1.695  12.589  0.4824 -0.1362 -0.6008
14933TIP3    H166214   1.018   1.761  12.597 -0.8887  1.4868 -1.8530
14933TIP3    H266215   0.975   1.644  12.512  0.1404  0.6488 -1.2379
14934TIP3   OH266216   0.920   5.863   2.222  1.0256  0.2012  0.3410
14934TIP3    H166217   0.851   5.857   2.157  0.4615 -1.0763  1.0291
14934TIP3    H266218   0.976   5.787   2.206  1.1948  0.1808  0.9912
14935TIP3   OH266219   3.050   0.237  13.297 -0.0060  0.1091 -0.4968
14935TIP3    H166220   3.072   0.309  13.237 -0.9525  0.0191 -0.9519
14935TIP3    H266221   2.956   0.246  13.312  0.0361 -0.5025  0.1565
14936TIP3   OH266222   1.809   6.295  17.172 -0.1923  0.0681  0.1863
14936TIP3    H166223   1.737   6.341  17.129 -0.5942  0.1862  0.9957
14936TIP3    H266224   1.790   6.202  17.159 -0.2985  0.1044  0.0846
14937TIP3   OH266225   1.917   2.003   4.570 -0.1786  0.4005  0.1862
14937TIP3    H166226   1.933   2.077   4.511 -0.8069  2.0679  2.0367
14937TIP3    H266227   1.988   2.008   4.634 -0.1484 -0.7049  0.2495
14938TIP3   OH266228   0.885   1.737  14.711  0.2892  0.0799  0.0592
14938TIP3    H166229   0.803   1.786  14.719 -0.3117 -0.6890 -1.2865
14938TIP3    H266230   0.952   1.797  14.743 -0.4207  1.8177 -1.6678
14939TIP3   OH266231   2.387   2.278  11.589  0.5982  0.0882  0.0111
14939TIP3    H166232   2.436   2.196  11.583  1.0908  0.4006 -0.3573
14939TIP3    H266233   2.306   2.262  11.541  1.4508  0.3506 -1.5790
14940TIP3   OH266234   6.544   3.868   2.973 -0.3226 -0.0875 -0.5837
14940TIP3    H166235   6.627   3.890   3.014 -0.0931 -1.4412 -0.2884
14940TIP3    H266236   6.556   3.888   2.880  0.0583  0.4683 -0.4131
14941TIP3   OH266237   0.991   4.124  11.804  0.5364  0.0880 -0.1261
14941TIP3    H166238   0.944   4.081  11.732  1.5790 -1.1250 -0.1129
14941TIP3    H266239   1.075   4.150  11.766  1.5027 -1.4539  0.8655
14942TIP3   OH266240   4.179   0.025   2.532 -0.1128  0.7049  0.1365
14942TIP3    H166241   4.243  -0.021   2.587 -1.1194 -0.1861  0.5905
14942TIP3    H266242   4.231   0.059   2.459  0.7239 -0.9398 -0.0727
14943TIP3   OH266243   5.863   1.198  11.091  0.0863  0.2644  0.5553
14943TIP3    H166244   5.885   1.258  11.161  1.0229  0.7919 -0.1857
14943TIP3    H266245   5.822   1.253  11.024  1.1615  0.1226 -0.2278
14944TIP3   OH266246   4.744   0.896  16.755 -0.0052  0.0900 -0.2259
14944TIP3    H166247   4.779   0.813  16.786 -1.4417 -0.0028  1.2767
14944TIP3    H266248   4.814   0.934  16.702  1.5016 -1.0591  0.8919
14945TIP3   OH266249   4.426   4.506  15.100  0.0357  0.0381  0.3348
14945TIP3    H166250   4.470   4.552  15.028  0.8152  1.0499  1.4301
14945TIP3    H266251   4.336   4.493  15.069  0.4901  0.0155 -1.0139
14946TIP3   OH266252   4.688   6.423   2.204 -0.1343  0.3005 -0.1764
14946TIP3    H166253   4.732   6.502   2.172  0.1326 -0.2192 -1.1052
14946TIP3    H266254   4.745   6.390   2.273 -1.0817  1.8424  1.3927
14947TIP3   OH266255   0.352   1.371  12.534  0.3608 -0.1877  0.2663
14947TIP3    H166256   0.322   1.281  12.516 -1.5863  0.6186 -0.7475
14947TIP3    H266257   0.399   1.396  12.455  0.6268 -0.2123  0.4188
14948TIP3   OH266258   2.650   5.332   0.600  0.0236 -0.1491  0.0390
14948TIP3    H166259   2.734   5.345   0.645  0.8415 -0.1967 -1.4302
14948TIP3    H266260   2.664   5.255   0.546  0.0150  1.5784 -2.4997
14949TIP3   OH266261   3.795   0.585  13.285  0.0321 -0.3154 -0.2849
14949TIP3    H166262   3.835   0.610  13.202 -0.1208  0.8061 -0.0245
14949TIP3    H266263   3.724   0.647  13.297  0.2310 -0.3012  0.8281
14950TIP3   OH266264   3.745   3.803   2.127 -0.5357  0.1329  0.1375
14950TIP3    H166265   3.718   3.789   2.036 -1.3185  1.0999  0.2139
14950TIP3    H266266   3.818   3.743   2.140 -0.2942  0.1291 -1.1912
14951TIP3   OH266267   5.127   3.272  14.380 -0.3816 -0.6407  0.1393
14951TIP3    H166268   5.071   3.252  14.455 -1.2127  1.1079  0.0116
14951TIP3    H266269   5.127   3.368  14.375  2.6649 -0.6069  0.1538
14952TIP3   OH266270   5.616   3.106  12.597  0.3878  0.4479  0.0665
14952TIP3    H166271   5.705   3.113  12.630 -0.4987 -1.7387  3.1252
14952TIP3    H266272   5.621   3.041  12.527  0.9611 -0.8983  1.3343
14953TIP3   OH266273   3.482   0.222  14.370  0.2654  0.5530 -0.3168
14953TIP3    H166274   3.486   0.130  14.395 -0.3816  0.1566 -1.6575
14953TIP3    H266275   3.572   0.245  14.348  0.2777 -0.0057 -0.8482
14954TIP3   OH266276   6.684   3.774   0.360 -0.5163  0.3825 -0.1255
14954TIP3    H166277   6.681   3.867   0.384 -0.6111  0.4374 -0.3428
14954TIP3    H266278   6.777   3.752   0.361 -0.3459  0.9409 -1.7927
14955TIP3   OH266279   4.431   6.758  11.905  0.3246  0.5943  0.2691
14955TIP3    H166280   4.362   6.818  11.934 -0.3120 -0.0893  0.1841
14955TIP3    H266281   4.489   6.750  11.981 -0.5434 -0.0447  0.8778
14956TIP3   OH266282   2.809   5.857   4.255 -0.6127 -0.5844  0.1302
14956TIP3    H166283   2.837   5.943   4.286  0.6100 -0.9348  0.0037
14956TIP3    H266284   2.767   5.875   4.170  0.8809 -0.2725 -0.5531
14957TIP3   OH266285   0.403   1.594  17.091  0.3996 -0.7374 -0.3713
14957TIP3    H166286   0.380   1.622  17.002  1.0811 -1.0714 -0.6537
14957TIP3    H266287   0.324   1.610  17.142  0.2782  0.2591 -0.8626
14958TIP3   OH266288   0.346   0.010   3.916  0.2486  0.2105 -0.5662
14958TIP3    H166289   0.325  -0.078   3.884 -1.5046  0.8064 -1.1192
14958TIP3    H266290   0.311   0.069   3.849 -0.4469  1.3974  0.8091
14959TIP3   OH266291   4.861   6.536  15.383  0.9463  0.1375  0.0123
14959TIP3    H166292   4.800   6.513  15.454 -0.0378 -1.1844 -1.2382
14959TIP3    H266293   4.867   6.457  15.330 -0.6622  1.9888 -3.0608
14960TIP3   OH266294   1.727   2.518   1.516  0.3282  0.3583 -0.6118
14960TIP3    H166295   1.648   2.570   1.503  0.9421  1.5371  0.2813
14960TIP3    H266296   1.798   2.573   1.485  1.2542  1.1106  2.6354
14961TIP3   OH266297   6.778   2.042  15.878  0.5389 -0.3911  0.4023
14961TIP3    H166298   6.768   2.127  15.836 -1.2484  1.2949  4.0332
14961TIP3    H266299   6.747   1.979  15.813 -0.8743  1.9704 -1.2764
14962TIP3   OH266300   1.604   0.599   4.825  0.8467  0.1225 -0.5349
14962TIP3    H166301   1.636   0.596   4.915  0.8556  2.3398 -0.4333
14962TIP3    H266302   1.601   0.507   4.797  1.4309 -0.5398  1.5053
14963TIP3   OH266303   4.739   5.828  16.841 -0.6275  0.2415  0.1083
14963TIP3    H166304   4.700   5.823  16.753  2.1204  0.4241 -1.1846
14963TIP3    H266305   4.800   5.754  16.844 -0.4595  0.4278  1.7625
14964TIP3   OH266306   1.168   1.486   3.909 -0.0266 -0.4842 -0.3250
14964TIP3    H166307   1.238   1.447   3.856  0.5445 -1.7485  1.3219
14964TIP3    H266308   1.165   1.577   3.881  1.3624 -0.7442 -1.3896
14965TIP3   OH266309   2.179   1.177   2.500  0.5629 -0.2744  0.5599
14965TIP3    H166310   2.213   1.093   2.470  0.1401 -0.7150  1.3060
14965TIP3    H266311   2.239   1.204   2.569  1.7233  0.8951 -0.8824
14966TIP3   OH266312   5.312   0.942   1.257  0.4162  0.5886 -0.7047
14966TIP3    H166313   5.337   1.029   1.226  1.5023  0.0400 -1.3621
14966TIP3    H266314   5.244   0.959   1.323 -1.6435  1.7786 -3.0451
14967TIP3   OH266315   5.423   3.305  14.533 -0.2058  0.6270  0.3017
14967TIP3    H166316   5.339   3.349  14.536  0.2722  1.5329  0.6137
14967TIP3    H266317   5.444   3.299  14.440  0.0037  1.5956  0.2860
14968TIP3   OH266318   6.437   1.905  16.908  0.1509 -0.2396 -0.7500
14968TIP3    H166319   6.511   1.859  16.948 -1.1362 -0.0055  2.0806
14968TIP3    H266320   6.438   1.879  16.816  3.2863 -0.8066 -0.5895
14969TIP3   OH266321   6.022   6.082  10.757 -0.7252  0.0266 -0.2999
14969TIP3    H166322   6.053   6.124  10.677  1.0330  0.4156  0.5515
14969TIP3    H266323   5.994   6.154  10.813  0.1715 -0.0694  0.2886
14970TIP3   OH266324   6.785   0.402  14.803  0.5075 -0.3182 -0.3206
14970TIP3    H166325   6.783   0.455  14.724  1.2191 -0.9763 -0.7885
14970TIP3    H266326   6.856   0.439  14.856  0.3327 -0.1673 -0.1893
14971TIP3   OH266327   5.158   2.136  11.938  0.2368 -0.5943  0.5342
14971TIP3    H166328   5.128   2.227  11.936  1.6045 -0.1411 -0.1370
14971TIP3    H266329   5.179   2.120  12.030  4.1012  1.1810  0.0392
14972TIP3   OH266330   0.220   4.653   0.110 -0.2522 -0.4217  0.1413
14972TIP3    H166331   0.199   4.562   0.128  1.1917 -1.1461 -1.7016
14972TIP3    H266332   0.315   4.658   0.116 -0.3005  0.9381  0.0800
14973TIP3   OH266333   4.518   0.569   5.745  0.4166  0.1997 -0.2505
14973TIP3    H166334   4.576   0.637   5.710  1.3193 -1.4984 -2.2006
14973TIP3    H266335   4.455   0.553   5.675  0.9796 -1.8089 -0.3289
14974TIP3   OH266336   6.753   6.274   2.738  0.3050 -0.7147  0.3012
14974TIP3    H166337   6.677   6.241   2.690  2.4617 -1.5997 -2.6125
14974TIP3    H266338   6.777   6.354   2.692  1.4291 -0.6850  0.9392
14975TIP3   OH266339   0.759   1.706   3.821  0.0026 -0.1582  0.7826
14975TIP3    H166340   0.670   1.679   3.842 -0.5965  1.7090  0.6937
14975TIP3    H266341   0.773   1.786   3.872  1.6033 -0.3913  0.7389
14976TIP3   OH266342   5.364   2.531   2.189 -0.2972  0.2561  0.1307
14976TIP3    H166343   5.307   2.470   2.141  0.7266 -0.0096 -0.7736
14976TIP3    H266344   5.451   2.491   2.184 -0.0531  0.5423  1.7004
14977TIP3   OH266345   3.551   5.970   1.995 -0.0937  0.6494 -0.1328
14977TIP3    H166346   3.489   5.898   1.985 -1.3044  1.4763  1.2945
14977TIP3    H266347   3.580   5.989   1.906  0.8138 -2.0862 -0.4612
14978TIP3   OH266348   1.045   3.037   4.474 -0.6132 -0.3033 -0.7375
14978TIP3    H166349   1.137   3.029   4.500 -0.9314 -1.1605  0.2062
14978TIP3    H266350   1.047   3.047   4.379  0.4512 -0.4190 -0.7323
14979TIP3   OH266351   4.167   1.562  11.029  0.0156 -0.1309  0.6870
14979TIP3    H166352   4.250   1.610  11.031 -0.9836  1.5978  1.2703
14979TIP3    H266353   4.174   1.498  11.099  0.0773  1.3491  2.0526
14980TIP3   OH266354   4.277   1.933   2.256 -0.2964  0.1923 -0.2553
14980TIP3    H166355   4.251   1.919   2.165  0.4887 -0.7195 -0.3550
14980TIP3    H266356   4.373   1.934   2.254 -0.1524 -2.9320  0.9383
14981TIP3   OH266357   2.404   4.053   4.115 -0.1995  0.1152 -0.0201
14981TIP3    H166358   2.426   3.971   4.160  0.5499  0.8151  0.9128
14981TIP3    H266359   2.397   4.029   4.023  2.2804 -0.5795 -0.0656
14982TIP3   OH266360   6.478   2.264   0.432  0.0421 -0.4905 -0.1000
14982TIP3    H166361   6.556   2.227   0.473  0.0770 -0.0231  0.2555
14982TIP3    H266362   6.452   2.199   0.367  1.1226 -0.3376 -0.6916
14983TIP3   OH266363   4.605   0.439   2.931 -0.5735 -0.2772  0.0004
14983TIP3    H166364   4.572   0.504   2.992 -1.9650 -0.7487 -0.2172
14983TIP3    H266365   4.555   0.360   2.951  1.8208 -1.6132  0.9820
14984TIP3   OH266366   3.766   4.237  16.683  0.4234  0.3238 -0.2455
14984TIP3    H166367   3.672   4.228  16.667  0.3242 -0.6284  0.8262
14984TIP3    H266368   3.805   4.241  16.595 -0.2681 -2.9774 -0.7633
14985TIP3   OH266369   0.222   2.009   1.161 -0.0215  0.0840 -0.1910
14985TIP3    H166370   0.260   2.030   1.246  0.0251  0.8741 -0.4035
14985TIP3    H266371   0.291   2.030   1.098 -0.1396 -0.2784 -0.4436
14986TIP3   OH266372   6.774   1.750  16.665  0.3733  0.1727  0.3972
14986TIP3    H166373   6.831   1.793  16.728  0.8474  0.0189  0.0747
14986TIP3    H266374   6.756   1.816  16.599 -0.1080  0.3280  0.6813
14987TIP3   OH266375   1.516   6.416   3.678 -0.2767 -0.7977 -0.7107
14987TIP3    H166376   1.512   6.462   3.762  1.5676  1.8238 -1.9749
14987TIP3    H266377   1.438   6.446   3.632  0.2662  0.1273 -1.0481
14988TIP3   OH266378   2.059   5.958  15.573  0.5679  0.1567  0.0073
14988TIP3    H166379   2.051   5.888  15.638 -0.4245 -0.0847 -0.3642
14988TIP3    H266380   2.055   5.912  15.489  0.1004  0.6407 -0.2346
14989TIP3   OH266381   0.036   3.709   2.268  0.1893 -0.8955  0.1335
14989TIP3    H166382   0.123   3.723   2.230  0.0934 -0.1236  0.1817
14989TIP3    H266383  -0.025   3.727   2.197  0.0240  0.0837  0.5069
14990TIP3   OH266384   3.258   4.193   2.360 -0.0819 -0.9359  0.5490
14990TIP3    H166385   3.293   4.224   2.443  1.4364  0.0262 -0.4278
14990TIP3    H266386   3.248   4.099   2.372  1.7717 -1.0608  1.2451
14991TIP3   OH266387   4.645   2.479   1.433  0.3103  0.2813 -0.1537
14991TIP3    H166388   4.674   2.484   1.524  1.0693  1.5125 -0.4454
14991TIP3    H266389   4.718   2.516   1.383 -0.5704  0.6904 -1.1519
14992TIP3   OH266390   0.610   0.154   1.343 -0.2038  0.0094 -0.1562
14992TIP3    H166391   0.618   0.059   1.352 -0.0654  0.2500  3.0798
14992TIP3    H266392   0.638   0.188   1.428  0.4233  3.0033 -1.4920
14993TIP3   OH266393   3.578   6.298  14.741 -0.0647 -0.4539  0.6347
14993TIP3    H166394   3.621   6.216  14.715  0.5057  0.3837 -1.1335
14993TIP3    H266395   3.641   6.340  14.800  0.4574 -0.4110  0.0545
14994TIP3   OH266396   6.315   5.064  12.693  0.0645 -0.2927 -0.0332
14994TIP3    H166397   6.277   4.992  12.643  0.7210  0.1897 -1.2613
14994TIP3    H266398   6.402   5.076  12.655  0.1480  0.8104  0.4969
14995TIP3   OH266399   0.645   0.857   4.462  0.2412  0.1726  0.7245
14995TIP3    H166400   0.705   0.790   4.495 -0.6152 -1.7122 -1.4132
14995TIP3    H266401   0.664   0.862   4.368 -3.0065 -0.5250  0.0051
14996TIP3   OH266402   0.902   5.652  13.115  0.2255  0.0887 -0.6379
14996TIP3    H166403   0.890   5.573  13.062  0.4229  1.0265 -2.0902
14996TIP3    H266404   0.827   5.652  13.174 -0.7053 -0.2741 -1.7958
14997TIP3   OH266405   1.632   2.816  11.392 -0.5154  0.8146 -0.2287
14997TIP3    H166406   1.692   2.844  11.323 -0.8108 -0.3094 -0.9512
14997TIP3    H266407   1.685   2.761  11.450 -0.5516  0.8299 -0.1803
14998TIP3   OH266408   3.275   6.671   1.854 -0.4934  0.3331 -0.0219
14998TIP3    H166409   3.368   6.682   1.874 -0.6524  1.5840  0.1129
14998TIP3    H266410   3.231   6.723   1.921 -1.3203 -0.6877  0.2377
14999TIP3   OH266411   0.912   1.536   0.915  0.3521 -0.1566  0.4958
14999TIP3    H166412   0.978   1.499   0.975  2.2789 -0.1153 -1.5473
14999TIP3    H266413   0.857   1.461   0.892  2.4098 -1.1970 -1.2476
15000TIP3   OH266414   5.019   2.014   2.758 -0.2397  0.1369 -0.6434
15000TIP3    H166415   4.941   2.068   2.744  1.1784  1.6841 -2.9407
15000TIP3    H266416   4.986   1.925   2.765 -2.1592  0.6727 -2.4973
15001TIP3   OH266417   2.958   1.854   4.140 -0.0260  0.2332 -0.3790
15001TIP3    H166418   3.008   1.802   4.202  0.3713 -0.9624 -1.6538
15001TIP3    H266419   3.012   1.931   4.122  0.2706  0.1228  0.0598
15002TIP3   OH266420   3.864   3.618  16.765  0.3542 -0.5059 -0.0590
15002TIP3    H166421   3.817   3.684  16.815  0.2142 -1.1815  0.7063
15002TIP3    H266422   3.896   3.665  16.688 -1.7388 -0.0640 -0.7009
15003TIP3   OH266423   3.306   2.866  14.006  0.2832 -0.0878 -0.4153
15003TIP3    H166424   3.307   2.892  14.099  0.0757  0.4661 -0.5679
15003TIP3    H266425   3.366   2.926  13.963 -0.3450  0.2762 -0.8007
15004TIP3   OH266426   5.218   3.712   5.966 -0.6598  0.5347  0.6063
15004TIP3    H166427   5.144   3.670   6.011  0.2601 -1.8542 -0.0614
15004TIP3    H266428   5.210   3.683   5.875  1.2577  0.0446  0.5833
15005TIP3   OH266429   6.045   6.713   5.628 -0.4033 -0.6196  0.1908
15005TIP3    H166430   6.140   6.718   5.636 -0.4032 -0.5347  0.1393
15005TIP3    H266431   6.019   6.645   5.690 -0.2827 -0.8230  0.0205
15006TIP3   OH266432   2.125   3.413  15.760  0.0461 -0.8738 -0.1126
15006TIP3    H166433   2.091   3.502  15.767  0.6378 -0.6641  0.1603
15006TIP3    H266434   2.186   3.416  15.687  0.8671 -0.7917  0.5700
15007TIP3   OH266435   0.766   3.738  10.412  0.1265  0.2079  0.3242
15007TIP3    H166436   0.712   3.792  10.469 -1.5896  0.6042 -1.6301
15007TIP3    H266437   0.711   3.662  10.392  0.7519  0.0133 -0.6871
15008TIP3   OH266438   3.220   3.979  14.821 -0.0743  0.4674 -0.2629
15008TIP3    H166439   3.296   3.980  14.879  0.2276  1.9457 -0.6711
15008TIP3    H266440   3.145   3.988  14.880 -0.0317 -1.9237  0.2345
15009TIP3   OH266441   3.700   6.042  11.950 -0.1482 -0.0504 -0.0709
15009TIP3    H166442   3.623   6.026  12.005 -0.3955  0.1170 -0.3642
15009TIP3    H266443   3.775   6.022  12.006 -0.3479  1.8064  0.8927
15010TIP3   OH266444   2.060   1.447  13.186  0.3270 -0.7174 -0.3647
15010TIP3    H166445   2.077   1.434  13.093 -0.8049 -0.0860 -0.6529
15010TIP3    H266446   1.966   1.432  13.197 -0.4745  3.8318 -0.1487
15011TIP3   OH266447   1.546   3.985  12.003  0.8802  0.6810 -0.1416
15011TIP3    H166448   1.480   4.005  11.937  1.1591  0.3190 -0.5380
15011TIP3    H266449   1.497   3.952  12.078  0.7952 -2.3800 -1.4922
15012TIP3   OH266450   2.934   0.138   0.551  0.9414  0.3758  0.1879
15012TIP3    H166451   2.857   0.146   0.607  0.6109  0.1357 -0.2323
15012TIP3    H266452   2.990   0.211   0.577  0.3866  0.8028  0.1933
15013TIP3   OH266453   4.573   5.881  16.324  0.4020  0.8131 -0.2352
15013TIP3    H166454   4.637   5.945  16.293  1.7282 -0.7913 -0.9093
15013TIP3    H266455   4.510   5.874  16.252  0.8844  0.5370 -0.6374
15014TIP3   OH266456   3.129   2.653  14.386 -0.1316  0.1142  0.0181
15014TIP3    H166457   3.084   2.596  14.449  1.0731  1.2069  1.9112
15014TIP3    H266458   3.210   2.608  14.366 -0.0800  0.2227 -0.0175
15015TIP3   OH266459   5.728   6.132   2.901  0.6531  0.1456 -0.7460
15015TIP3    H166460   5.643   6.100   2.869  1.5879  0.1145 -3.2845
15015TIP3    H266461   5.718   6.227   2.906  0.8124  0.2383 -2.1197
15016TIP3   OH266462   5.264   1.885   1.372 -0.1670 -0.0575  0.6063
15016TIP3    H166463   5.245   1.964   1.423 -1.0953  0.5689 -0.6854
15016TIP3    H266464   5.181   1.862   1.331  0.5885 -0.4883 -0.7059
15017TIP3   OH266465   1.796   2.361   5.011 -0.2143  0.5254 -0.0235
15017TIP3    H166466   1.762   2.418   5.079 -1.2385  1.2921 -1.1556
15017TIP3    H266467   1.819   2.420   4.939 -1.6030 -0.5008 -1.3498
15018TIP3   OH266468   5.225   0.931  13.122 -0.4129 -0.3671 -0.9594
15018TIP3    H166469   5.309   0.961  13.086 -0.2817  1.1222  0.5441
15018TIP3    H266470   5.246   0.902  13.211 -1.7808  1.6568  0.0422
15019TIP3   OH266471   0.008   3.350  16.233 -0.2216  0.3651  0.2965
15019TIP3    H166472   0.071   3.422  16.245  1.4940 -1.1916  0.8156
15019TIP3    H266473   0.013   3.329  16.140 -1.6300  1.7026 -0.1023
15020TIP3   OH266474   3.040   0.858  11.939 -0.5105  0.6742  0.3402
15020TIP3    H166475   3.133   0.835  11.938 -0.4516  0.7187  2.4136
15020TIP3    H266476   2.996   0.780  11.906  0.1767  0.1653  0.6120
15021TIP3   OH266477   1.411   3.221   5.890 -0.1541 -0.3361 -0.0831
15021TIP3    H166478   1.447   3.159   5.826  0.1818 -0.7388  0.4869
15021TIP3    H266479   1.467   3.210   5.967 -1.9793 -1.5374  1.1147
15022TIP3   OH266480   2.230   4.294   6.657 -0.2824 -0.7167 -0.4222
15022TIP3    H166481   2.225   4.362   6.724 -1.3593 -1.3439  0.1482
15022TIP3    H266482   2.306   4.242   6.682 -1.4976 -1.7981  1.1505
15023TIP3   OH266483   2.027   5.131  13.798  0.0790 -0.0130 -0.2234
15023TIP3    H166484   2.021   5.036  13.784  1.1052  0.0260 -0.9634
15023TIP3    H266485   2.078   5.163  13.723  1.1649  0.8968  0.8906
15024TIP3   OH266486   1.514   3.675  14.818 -0.0557 -0.0622 -0.2798
15024TIP3    H166487   1.581   3.617  14.856 -0.5043 -1.4397 -1.5572
15024TIP3    H266488   1.555   3.710  14.740 -0.6242 -0.4830 -0.7687
15025TIP3   OH266489   6.543   0.122  14.820  0.3138 -0.1049 -0.1816
15025TIP3    H166490   6.592   0.046  14.790  0.3091  0.3237 -1.3088
15025TIP3    H266491   6.560   0.189  14.754 -1.6366  0.1040 -0.5025
15026TIP3   OH266492   5.658   0.275  12.604  0.1358 -0.1476  0.2306
15026TIP3    H166493   5.672   0.363  12.567  1.0301 -0.4417 -0.1547
15026TIP3    H266494   5.619   0.225  12.533 -1.3198  0.2074  0.7693
15027TIP3   OH266495   1.764   6.044   2.461 -0.0353 -0.3838  0.2839
15027TIP3    H166496   1.791   6.056   2.370  1.9488 -0.6454  0.8024
15027TIP3    H266497   1.772   6.131   2.500 -0.5333 -0.3457  0.3043
15028TIP3   OH266498   1.261   0.870  15.861 -0.0087 -0.1496 -0.1371
15028TIP3    H166499   1.305   0.788  15.883 -0.9197 -0.5225  0.3347
15028TIP3    H266500   1.168   0.850  15.870 -0.2419  0.9054 -0.1544
15029TIP3   OH266501   3.390   1.939  15.922 -0.2062 -0.6736  0.5351
15029TIP3    H166502   3.355   1.976  16.004 -0.3301  2.2921 -0.7843
15029TIP3    H266503   3.476   1.905  15.946 -0.8312 -1.1198  2.1992
15030TIP3   OH266504   2.663   1.293  12.055  0.3815 -0.0295  0.7221
15030TIP3    H166505   2.670   1.239  12.134 -0.2560  0.0820  0.8611
15030TIP3    H266506   2.660   1.383  12.087  1.3252  0.0809  0.4959
15031TIP3   OH266507   5.674   3.371   1.372 -0.1934 -0.2001  0.4880
15031TIP3    H166508   5.740   3.425   1.416 -0.7702 -0.4747  1.7038
15031TIP3    H266509   5.640   3.427   1.302  1.7498 -0.2651 -0.5509
15032TIP3   OH266510   6.177   6.252   3.277 -0.0733 -0.0527  0.3017
15032TIP3    H166511   6.230   6.310   3.223 -0.5438  0.4288  0.3478
15032TIP3    H266512   6.133   6.311   3.338  1.3298 -0.6880  1.9745
15033TIP3   OH266513   2.980   3.004   0.980  0.7876  0.2174 -0.0730
15033TIP3    H166514   3.028   3.084   1.000  1.6321 -0.4757  0.7267
15033TIP3    H266515   2.889   3.032   0.968  0.6853  1.0143  2.3118
15034TIP3   OH266516   5.001   5.002  12.726 -0.2438  0.0028  0.1199
15034TIP3    H166517   4.914   5.007  12.766  0.6173 -0.4661  2.1604
15034TIP3    H266518   4.998   5.063  12.653 -2.6007 -0.7533 -0.4739
15035TIP3   OH266519   1.965   1.020   1.205  0.2461  0.3466  0.4307
15035TIP3    H166520   2.037   1.082   1.210  0.8896 -0.3014 -0.5473
15035TIP3    H266521   1.893   1.069   1.166 -0.5990  1.6467  3.5084
15036TIP3   OH266522   4.385   4.175  12.076  0.2652  0.1962  0.2193
15036TIP3    H166523   4.352   4.265  12.071  0.1894  0.0818 -2.6389
15036TIP3    H266524   4.465   4.176  12.024  1.6846 -0.8388  2.3295
15037TIP3   OH266525   6.506   0.777   3.826  0.2833 -0.0855  0.5245
15037TIP3    H166526   6.429   0.724   3.804 -0.9985  1.1813  1.8080
15037TIP3    H266527   6.565   0.766   3.752 -0.4480 -2.3632  0.2461
15038TIP3   OH266528   3.995   3.568   3.466  0.4452 -0.2650  0.3089
15038TIP3    H166529   4.061   3.630   3.499  0.8730 -0.7789  0.4281
15038TIP3    H266530   3.995   3.497   3.530 -0.8589  0.1438  0.7707
15039TIP3   OH266531   6.735   5.972   2.678  1.0820 -0.2652  0.0688
15039TIP3    H166532   6.674   6.030   2.633  0.7167 -1.1517 -0.5888
15039TIP3    H266533   6.681   5.926   2.743  0.8407 -1.7213 -1.1310
15040TIP3   OH266534   6.144   5.941  14.279  0.1085 -0.4226 -0.4555
15040TIP3    H166535   6.221   5.985  14.314  0.1754 -1.5543  0.8976
15040TIP3    H266536   6.073   5.964  14.340 -0.4651 -0.0015 -1.2626
15041TIP3   OH266537   0.506   4.044  11.245  0.4900  1.0794 -0.1814
15041TIP3    H166538   0.475   4.134  11.236 -0.9495  0.2914 -3.9050
15041TIP3    H266539   0.580   4.038  11.185  0.7396 -0.1977  0.2401
15042TIP3   OH266540   1.674   2.907  12.573 -0.0293  0.3186  0.6652
15042TIP3    H166541   1.697   2.948  12.489  1.1271 -0.9037  0.3689
15042TIP3    H266542   1.620   2.832  12.549 -0.6384  0.6142  1.0949
15043TIP3   OH266543   0.665   5.160  16.750 -0.2207  0.1924  0.6412
15043TIP3    H166544   0.598   5.199  16.695  0.1610  1.3409  0.9572
15043TIP3    H266545   0.746   5.170  16.700 -0.0221  0.4026  0.9923
15044TIP3   OH266546   0.989   2.158  17.096 -0.6108 -0.6587  0.0301
15044TIP3    H166547   0.930   2.154  17.020  0.1788  0.7460 -0.6671
15044TIP3    H266548   0.997   2.251  17.115  0.3749 -0.9292  0.9274
15045TIP3   OH266549   5.354   5.986   2.273  0.4590  0.4384  0.4780
15045TIP3    H166550   5.303   6.050   2.322  1.3318  0.4509  1.3870
15045TIP3    H266551   5.429   6.036   2.240 -0.9742  0.8440 -2.3639
15046TIP3   OH266552   3.209   2.205   4.343 -0.3162 -0.1638  0.0087
15046TIP3    H166553   3.260   2.124   4.336  2.8330  1.8616 -1.5667
15046TIP3    H266554   3.269   2.267   4.383 -1.5401  2.3120 -1.8840
15047TIP3   OH266555   1.590   0.874   5.664 -0.0970 -0.0521  0.1576
15047TIP3    H166556   1.510   0.850   5.617  0.2508 -1.2518  0.1581
15047TIP3    H266557   1.563   0.881   5.756 -0.6966  1.9206 -0.1527
15048TIP3   OH266558   5.932   2.105   2.663  0.3577  0.4332 -0.4368
15048TIP3    H166559   5.949   2.116   2.756 -0.3172  0.1537 -0.2831
15048TIP3    H266560   5.917   2.012   2.651 -0.4822  0.5916 -0.6669
15049TIP3   OH266561   1.100   1.241   1.586  0.3186  0.6724 -0.2964
15049TIP3    H166562   1.017   1.280   1.561  0.3805  0.4438 -0.8720
15049TIP3    H266563   1.132   1.199   1.506  1.2288  1.1909 -0.2114
15050TIP3   OH266564   1.135   5.458   0.145  0.3507  0.3327  0.6079
15050TIP3    H166565   1.202   5.524   0.164  0.0950  1.3432 -1.7728
15050TIP3    H266566   1.072   5.504   0.090 -0.0970 -1.7633 -0.6627
15051TIP3   OH266567   1.874   1.895   3.516 -0.1319 -0.1125 -0.5263
15051TIP3    H166568   1.922   1.816   3.543  0.0006  0.0645 -0.2387
15051TIP3    H266569   1.900   1.909   3.425  0.8053  0.3039 -0.2013
15052TIP3   OH266570   5.284   2.896   5.401 -0.0942  0.3982 -0.1335
15052TIP3    H166571   5.281   2.888   5.496  0.6987 -0.5736 -0.1834
15052TIP3    H266572   5.368   2.939   5.383  0.3838 -0.6586 -0.4642
15053TIP3   OH266573   1.959   0.558   4.134  0.0134  0.4093 -0.6344
15053TIP3    H166574   1.897   0.614   4.086 -0.8845 -0.9655 -1.0964
15053TIP3    H266575   1.904   0.493   4.178  1.0333  0.0023  0.0586
15054TIP3   OH266576   1.722   1.137  13.206  0.0999  0.2413  0.2147
15054TIP3    H166577   1.636   1.115  13.241  0.2876 -0.3685  0.3081
15054TIP3    H266578   1.770   1.054  13.208  0.9245  0.7288  0.8568
15055TIP3   OH266579   2.188   4.601  12.712  0.3269  0.4130 -0.2548
15055TIP3    H166580   2.213   4.571  12.624 -0.0688 -0.0480 -0.2150
15055TIP3    H266581   2.220   4.533  12.771  0.4587  0.6483 -0.0552
15056TIP3   OH266582   1.544   4.123  11.219 -0.0856  0.5864  0.1312
15056TIP3    H166583   1.612   4.165  11.165  1.2991  0.0198  1.4068
15056TIP3    H266584   1.497   4.195  11.259  0.3589  0.9679 -0.0317
15057TIP3   OH266585   4.847   6.668  13.750 -0.1645 -0.3700 -0.0582
15057TIP3    H166586   4.766   6.718  13.756 -0.5176 -0.6507 -2.0517
15057TIP3    H266587   4.914   6.733  13.727  0.0782 -0.2245  1.0498
15058TIP3   OH266588   2.385   5.499   5.232  0.8100  0.0207 -0.5626
15058TIP3    H166589   2.292   5.520   5.237  0.9110  0.8264 -2.0388
15058TIP3    H266590   2.421   5.559   5.167  2.3668 -0.2941 -0.0314
15059TIP3   OH266591   0.927   0.971   1.608  0.2043  0.5695  0.0434
15059TIP3    H166592   0.900   0.962   1.516 -1.3651  0.5667  0.4985
15059TIP3    H266593   1.004   1.028   1.604  0.9975 -0.5542 -1.4067
15060TIP3   OH266594   2.829   5.009   0.702 -0.3164 -0.1225  0.2201
15060TIP3    H166595   2.835   5.099   0.734 -1.2699  0.0039  0.0603
15060TIP3    H266596   2.917   4.990   0.668 -0.2842  0.9673 -0.3276
15061TIP3   OH266597   5.577   6.309  14.427  0.4171  0.2356 -0.7373
15061TIP3    H166598   5.597   6.314  14.334  0.3237 -0.4588 -0.8007
15061TIP3    H266599   5.481   6.301  14.431  0.1833  2.6326 -0.4738
15062TIP3   OH266600   1.675   1.050   6.277 -0.2269 -0.6705 -0.0621
15062TIP3    H166601   1.704   0.969   6.319 -2.5038 -3.5034 -3.7384
15062TIP3    H266602   1.580   1.044   6.277 -0.5024  2.6959  0.7577
15063TIP3   OH266603   5.406   0.860   0.347 -0.0854  0.1873  0.6454
15063TIP3    H166604   5.321   0.832   0.379 -0.5430  0.1056 -0.5972
15063TIP3    H266605   5.410   0.953   0.367 -1.5545  0.7583 -1.5627
15064TIP3   OH266606   2.958   4.935   4.817 -0.4567  0.0831 -0.0118
15064TIP3    H166607   3.049   4.953   4.792 -0.6177  0.2532 -0.4903
15064TIP3    H266608   2.942   4.846   4.785 -1.0912  0.8002 -1.7806
15065TIP3   OH266609   5.262   0.150  13.432  0.3345 -0.0081  0.3574
15065TIP3    H166610   5.214   0.079  13.475  0.2211  0.6397  1.2948
15065TIP3    H266611   5.286   0.113  13.347 -1.0493 -0.6530  0.2266
15066TIP3   OH266612   5.764   6.768   1.141  0.3453 -0.1980  0.4305
15066TIP3    H166613   5.827   6.839   1.125  0.4886 -1.0106 -2.8333
15066TIP3    H266614   5.817   6.689   1.148 -0.0797 -0.4743  0.5770
15067TIP3   OH266615   4.225   6.515   1.794 -0.2590 -0.2848  0.0840
15067TIP3    H166616   4.204   6.603   1.827 -2.9735 -0.6523 -0.4836
15067TIP3    H266617   4.262   6.469   1.870  1.0689  1.3055  0.4184
15068TIP3   OH266618   6.078   4.377   0.072 -0.8660 -0.2559 -0.1960
15068TIP3    H166619   5.983   4.371   0.058 -0.8928  0.0794 -0.1367
15068TIP3    H266620   6.090   4.454   0.127 -0.3326  1.3508 -2.4760
15069TIP3   OH266621   1.542   1.621  14.475  0.3740 -1.0542 -0.0260
15069TIP3    H166622   1.632   1.629  14.508 -0.3178 -0.5561  1.8151
15069TIP3    H266623   1.549   1.635  14.381  1.9740  0.8533  0.3568
15070TIP3   OH266624   3.516   6.260   0.215  0.3742  0.2457 -0.5298
15070TIP3    H166625   3.428   6.234   0.188  0.1898  1.5069 -1.1984
15070TIP3    H266626   3.516   6.248   0.310  0.2779 -2.0562 -0.7908
15071TIP3   OH266627   5.962   0.918   5.239  0.3580  0.6088  0.5579
15071TIP3    H166628   6.008   0.909   5.156  0.4254 -2.1648  0.8428
15071TIP3    H266629   5.886   0.973   5.218  0.3253 -0.1200 -1.3821
15072TIP3   OH266630   3.059   4.001   4.209 -0.9491 -0.0375  0.7670
15072TIP3    H166631   3.063   3.982   4.303 -1.4888 -1.1383  0.5635
15072TIP3    H266632   3.110   4.082   4.200 -0.7381 -0.0191  1.9801
15073TIP3   OH266633   3.475   1.699   4.639 -0.6124  0.3176 -0.2322
15073TIP3    H166634   3.501   1.676   4.728 -0.4053  1.6575  0.0542
15073TIP3    H266635   3.457   1.614   4.597  0.3835 -0.3857  0.7350
15074TIP3   OH266636   5.916   4.532  15.676 -0.0371  0.0621 -0.4352
15074TIP3    H166637   5.860   4.609  15.671  2.0993  1.6638 -0.6294
15074TIP3    H266638   5.961   4.541  15.760  0.8357 -0.5312 -0.8345
15075TIP3   OH266639   2.475   4.100  15.226  0.2925  0.3993  0.1500
15075TIP3    H166640   2.409   4.039  15.260  1.4143 -1.2469 -0.5682
15075TIP3    H266641   2.502   4.151  15.302 -0.4633 -0.1812  0.8130
15076TIP3   OH266642   3.547   0.628  13.978  0.0834 -0.2206  0.2031
15076TIP3    H166643   3.585   0.586  13.901  0.9462  0.4694  0.2338
15076TIP3    H266644   3.617   0.623  14.044  0.2411  1.3304  0.1697
15077TIP3   OH266645   2.616   2.203   2.383 -0.4683 -0.2438  0.1163
15077TIP3    H166646   2.658   2.164   2.459 -0.1933  1.2588  0.7702
15077TIP3    H266647   2.620   2.298   2.400  0.4120  0.1766 -2.1671
15078TIP3   OH266648   5.945   5.629  16.484  0.2025  0.1111 -0.6402
15078TIP3    H166649   5.941   5.666  16.396  1.0631 -0.3943 -0.9020
15078TIP3    H266650   6.036   5.643  16.512 -0.0560  0.2272  0.1460
15079TIP3   OH266651   2.067   3.570  14.308  0.6837  0.3229 -0.5515
15079TIP3    H166652   2.124   3.645  14.289 -0.3190  0.8224 -1.5886
15079TIP3    H266653   2.087   3.506  14.239  0.8531  0.0119 -0.2168
15080TIP3   OH266654   1.735   5.380  17.124  0.0869 -0.8176 -0.1136
15080TIP3    H166655   1.664   5.341  17.176 -1.5520 -0.7255 -2.2031
15080TIP3    H266656   1.731   5.473  17.145  1.1944 -1.1348  1.6084
15081TIP3   OH266657   4.757   1.202   4.955 -0.4309 -0.4138  0.2911
15081TIP3    H166658   4.836   1.152   4.976  0.1147  0.2642 -0.1342
15081TIP3    H266659   4.733   1.173   4.867 -0.5085 -0.4298  0.3170
15082TIP3   OH266660   3.163   2.689   3.129 -0.3473  0.3386  0.1940
15082TIP3    H166661   3.151   2.652   3.042  0.8876  2.3566 -0.8594
15082TIP3    H266662   3.247   2.655   3.159 -1.1838 -1.0784  1.0075
15083TIP3   OH266663   1.187   2.174  12.461  0.3924  0.5312 -0.1398
15083TIP3    H166664   1.282   2.164  12.461  0.4942  1.4181 -1.1456
15083TIP3    H266665   1.156   2.102  12.407  0.4272 -0.2150  0.8164
15084TIP3   OH266666   1.902   0.756   0.735  0.1214 -0.3934  0.0468
15084TIP3    H166667   1.954   0.688   0.693  0.8068 -0.2782  0.6941
15084TIP3    H266668   1.870   0.811   0.663 -0.8361 -1.6651 -0.5181
15085TIP3   OH266669   3.179   4.923  15.909  0.1788  0.1348  0.0814
15085TIP3    H166670   3.149   4.966  15.829  0.6757 -0.4477 -0.4224
15085TIP3    H266671   3.229   4.991  15.954 -0.0982  0.4651 -0.0953
15086TIP3   OH266672   6.520   2.598  13.210 -0.3104 -0.0127 -0.4093
15086TIP3    H166673   6.503   2.548  13.289 -0.0279  2.8332  1.5126
15086TIP3    H266674   6.439   2.646  13.193 -0.4273 -0.7043 -1.9699
15087TIP3   OH266675   3.339   2.489  14.378 -0.0158 -0.1441 -0.6553
15087TIP3    H166676   3.315   2.437  14.455 -1.4018  1.2134 -0.1525
15087TIP3    H266677   3.335   2.427  14.305 -0.2946 -1.0688  0.1357
15088TIP3   OH266678   5.198   3.003  15.159  0.0721  0.4568 -0.4364
15088TIP3    H166679   5.170   2.962  15.240  0.2450  2.5289  0.7219
15088TIP3    H266680   5.139   2.967  15.092 -0.3332 -0.9684  0.6599
15089TIP3   OH266681   2.946   0.643   0.103 -0.0060 -0.2756 -0.2242
15089TIP3    H166682   2.869   0.646   0.046 -0.8644  0.8889  0.9719
15089TIP3    H266683   2.913   0.670   0.188  0.7770 -4.0400  1.4019
15090TIP3   OH266684   3.760   0.108  11.013 -0.6939 -0.1067 -0.1150
15090TIP3    H166685   3.666   0.114  11.030 -0.4260  2.6459  0.5174
15090TIP3    H266686   3.767   0.045  10.941 -3.0803  0.3323 -0.7661
15091TIP3   OH266687   2.195   1.988   4.004 -0.3700 -0.4789 -0.0705
15091TIP3    H166688   2.248   1.933   3.946 -1.3658 -1.3641 -0.1519
15091TIP3    H266689   2.115   2.005   3.954 -0.7224 -0.2370  0.5689
15092TIP3   OH266690   0.824   4.284  16.830  0.2189 -0.1569 -0.4224
15092TIP3    H166691   0.864   4.203  16.799 -0.2979 -0.3669 -0.5488
15092TIP3    H266692   0.745   4.294  16.777 -0.0182  0.1296 -0.0208
15093TIP3   OH266693   2.724   1.398   2.428 -0.1918  0.0097 -0.5706
15093TIP3    H166694   2.703   1.356   2.345 -0.3356 -0.3563 -0.3494
15093TIP3    H266695   2.640   1.429   2.462 -0.0236  0.8877 -0.9564
15094TIP3   OH266696   5.748   0.706   2.989 -0.2918  0.0198 -0.1683
15094TIP3    H166697   5.654   0.721   2.976 -0.7965 -0.4493  2.6672
15094TIP3    H266698   5.759   0.612   2.977 -0.6199 -0.2878  1.7414
15095TIP3   OH266699   2.027   3.779  15.280 -0.2951  0.1131  0.3373
15095TIP3    H166700   1.973   3.798  15.203 -0.9073 -1.6469  0.3108
15095TIP3    H266701   1.974   3.718  15.331  0.7876  0.0306  1.3800
15096TIP3   OH266702   4.327   2.718  15.364 -0.1581  0.3482  0.6850
15096TIP3    H166703   4.298   2.716  15.455 -2.1347 -1.1947  0.0672
15096TIP3    H266704   4.278   2.791  15.325  0.7137  1.0301  0.8635
15097TIP3   OH266705   0.342   1.334  13.613  0.6875 -0.5088  0.0930
15097TIP3    H166706   0.351   1.356  13.706  1.0609 -2.3781  0.5202
15097TIP3    H266707   0.257   1.292  13.607  0.8480 -0.7691 -0.3477
15098TIP3   OH266708   1.863   1.733   2.972 -0.5202  0.2287  0.3859
15098TIP3    H166709   1.786   1.686   3.003 -0.6717  0.0396 -0.2607
15098TIP3    H266710   1.854   1.732   2.876  0.6935 -0.4741  0.2740
15099TIP3   OH266711   4.305   1.234  12.027 -0.2393  0.0646  0.3500
15099TIP3    H166712   4.358   1.286  11.966  0.8425 -0.8601  0.4635
15099TIP3    H266713   4.302   1.286  12.107 -1.2020  1.0362 -0.3014
15100TIP3   OH266714   4.397   5.941  14.345 -0.7557 -0.1019  0.4079
15100TIP3    H166715   4.362   5.952  14.433  0.4985  0.4151  0.8582
15100TIP3    H266716   4.492   5.946  14.356 -0.6169  1.0092 -1.0987
15101TIP3   OH266717   0.104   4.189  11.981 -0.7109 -0.1184  0.0577
15101TIP3    H166718   0.045   4.114  11.976 -1.5737  0.5711 -0.4647
15101TIP3    H266719   0.153   4.187  11.899 -0.2099 -0.5270  0.3662
15102TIP3   OH266720   4.494   0.133  16.495 -0.6070  0.2556 -0.0248
15102TIP3    H166721   4.414   0.081  16.487  0.0020 -0.6310 -0.4349
15102TIP3    H266722   4.546   0.086  16.561  1.2162 -1.3292 -2.5068
15103TIP3   OH266723   4.498   3.325   3.662  0.3475  0.1267 -0.1391
15103TIP3    H166724   4.569   3.262   3.649 -0.4501 -1.3004  2.0517
15103TIP3    H266725   4.422   3.284   3.620  0.5429  1.1372 -1.5069
15104TIP3   OH266726   6.139   4.337  12.778  0.0781  0.3118 -0.1073
15104TIP3    H166727   6.103   4.319  12.865  0.6220 -1.8122 -0.3142
15104TIP3    H266728   6.105   4.267  12.722 -0.7150  1.9580 -1.7620
15105TIP3   OH266729   1.698   5.856   4.708 -0.3664  0.0598  0.4121
15105TIP3    H166730   1.644   5.934   4.697  1.3989  1.1073 -1.1311
15105TIP3    H266731   1.646   5.785   4.671 -1.3607  0.7765  0.4195
15106TIP3   OH266732   1.013   0.582   2.733 -0.4010  0.0956 -0.3841
15106TIP3    H166733   1.058   0.553   2.654  1.3510  1.8486 -0.0894
15106TIP3    H266734   0.946   0.642   2.701 -0.7443 -0.4362 -0.6553
15107TIP3   OH266735   6.182   4.978   5.183 -0.1199  0.3898 -0.2406
15107TIP3    H166736   6.183   5.066   5.144 -1.9736  0.0701 -1.0583
15107TIP3    H266737   6.159   4.993   5.274 -1.0132  0.7272 -0.5107
15108TIP3   OH266738   5.563   1.875  16.082  0.1211  0.6515 -0.2417
15108TIP3    H166739   5.500   1.860  16.012  1.3025  0.7497 -1.3519
15108TIP3    H266740   5.609   1.955  16.055 -0.0243  1.1959  1.1005
15109TIP3   OH266741   2.651   0.908  14.962  0.4269 -0.4043  0.1609
15109TIP3    H166742   2.650   0.992  14.915 -1.4122 -0.4381  0.1194
15109TIP3    H266743   2.668   0.932  15.053 -0.8512  0.0842  0.2735
15110TIP3   OH266744   6.583   4.075  16.398  0.4270 -0.2233 -0.3426
15110TIP3    H166745   6.548   4.014  16.463  1.4914 -0.0252  0.4241
15110TIP3    H266746   6.543   4.047  16.316  1.1294 -2.1735 -0.0523
15111TIP3   OH266747   1.338   6.554  15.945  0.4446 -0.4993 -0.5181
15111TIP3    H166748   1.389   6.585  16.021  1.8031 -2.0045 -0.7903
15111TIP3    H266749   1.265   6.506  15.984  0.8001 -0.7482 -0.1435
15112TIP3   OH266750   2.132   5.605   5.232  0.4061 -0.4813 -0.7074
15112TIP3    H166751   2.065   5.657   5.187  0.6528 -0.0968 -0.6381
15112TIP3    H266752   2.152   5.656   5.311 -0.3085 -1.3474  0.0419
15113TIP3   OH266753   0.707   2.172   0.092  0.0235 -0.1892  0.4665
15113TIP3    H166754   0.796   2.205   0.103  0.0616  0.6538 -1.9045
15113TIP3    H266755   0.709   2.083   0.127  1.6553 -0.0013  0.8841
15114TIP3   OH266756   4.214   4.563   0.198  0.3863  0.4008  0.1949
15114TIP3    H166757   4.256   4.640   0.236  2.7623 -0.5203 -0.4298
15114TIP3    H266758   4.191   4.590   0.109  0.2679  0.7034  0.3167
15115TIP3   OH266759   4.107   0.550   0.126  0.2235  0.1340 -0.2876
15115TIP3    H166760   4.038   0.500   0.169 -0.9988  0.1030 -2.2404
15115TIP3    H266761   4.142   0.607   0.194 -2.7691  1.2610  0.3424
15116TIP3   OH266762   0.982   5.658   6.735  0.2168 -0.2751  0.4611
15116TIP3    H166763   1.061   5.672   6.786 -0.5681 -1.2905  2.0029
15116TIP3    H266764   0.976   5.562   6.725  0.0570 -0.1228 -1.0634
15117TIP3   OH266765   3.954   6.316  11.343  0.2858  0.3414  0.2873
15117TIP3    H166766   3.878   6.354  11.388  0.7584  0.4788  0.9898
15117TIP3    H266767   3.963   6.369  11.263 -0.6283  0.0255 -0.0271
15118TIP3   OH266768   2.627   5.008  12.445 -0.3410 -0.2962 -0.4263
15118TIP3    H166769   2.708   5.005  12.497 -0.4956  3.5074  0.2367
15118TIP3    H266770   2.571   4.940  12.483  1.2551 -0.6142  1.4352
15119TIP3   OH266771   2.819   2.166   4.664 -0.3296  0.1339  0.6399
15119TIP3    H166772   2.871   2.104   4.716  0.1000 -0.5095 -0.5542
15119TIP3    H266773   2.870   2.180   4.585 -1.1510  0.8518  0.2272
15120TIP3   OH266774   5.775   5.950  12.400 -0.0768 -0.0042 -0.6625
15120TIP3    H166775   5.758   6.036  12.438  0.2460  0.1690 -0.9022
15120TIP3    H266776   5.775   5.965  12.306 -0.0620 -0.2742 -0.7062
15121TIP3   OH266777   0.260   5.682  16.695  0.1094  0.0488  0.2770
15121TIP3    H166778   0.200   5.754  16.710 -1.1202 -1.2692  1.7780
15121TIP3    H266779   0.342   5.725  16.669 -0.1364  2.0535  2.6334
15122TIP3   OH266780   1.654   4.520   3.000  0.3386 -0.1221  0.4519
15122TIP3    H166781   1.566   4.551   2.976  1.2026  1.5713 -0.6155
15122TIP3    H266782   1.671   4.561   3.085  0.1204 -0.4057  0.6328
15123TIP3   OH266783   5.413   4.103  13.596  0.1737 -0.2496  0.8567
15123TIP3    H166784   5.445   4.068  13.679  0.8238 -1.6701  0.0276
15123TIP3    H266785   5.361   4.031  13.559  0.9777 -0.1054 -0.5573
15124TIP3   OH266786   6.363   1.483   1.556 -0.1315 -0.3054 -0.3792
15124TIP3    H166787   6.337   1.469   1.646  0.0179 -1.3946 -0.5035
15124TIP3    H266788   6.283   1.472   1.505  0.0213 -0.8685 -0.4953
15125TIP3   OH266789   3.530   4.343  11.565  0.3825  0.1841 -0.1801
15125TIP3    H166790   3.491   4.309  11.485  0.9600 -1.7931  0.3437
15125TIP3    H266791   3.624   4.322  11.557  0.8487  2.1534 -0.0791
15126TIP3   OH266792   4.101   3.868  14.813 -0.4307 -0.1382 -0.2967
15126TIP3    H166793   4.181   3.901  14.773 -0.8401  1.8922  0.4890
15126TIP3    H266794   4.131   3.802  14.876  0.7105  1.1802  0.5762
15127TIP3   OH266795   2.473   2.335  16.384  0.3832 -0.2953 -0.1216
15127TIP3    H166796   2.427   2.419  16.383  2.4993  0.9180  1.4396
15127TIP3    H266797   2.513   2.329  16.297  0.6436  0.5582 -0.0693
15128TIP3   OH266798   2.446   0.222  14.341 -0.3514  0.5454  0.1077
15128TIP3    H166799   2.484   0.310  14.342 -0.8159  0.7568 -0.7561
15128TIP3    H266800   2.383   0.224  14.414  1.3505  0.1477  1.6271
15129TIP3   OH266801   0.998   0.237  14.184 -0.2328 -0.5093 -0.2869
15129TIP3    H166802   1.067   0.259  14.247  0.9994  2.9042 -2.6673
15129TIP3    H266803   1.040   0.176  14.123  0.4918  1.0096 -1.3242
15130TIP3   OH266804   3.307   6.374  13.594  0.4088  0.1404  0.6075
15130TIP3    H166805   3.237   6.381  13.660 -0.0669  1.3811 -0.0140
15130TIP3    H266806   3.337   6.464  13.582  0.5791 -0.0945 -0.7817
15131TIP3   OH266807   4.348   6.251  15.700  0.2986  0.2073 -0.2326
15131TIP3    H166808   4.386   6.172  15.664 -1.5270 -0.9754  0.3812
15131TIP3    H266809   4.303   6.292  15.626 -1.1782 -0.8366  0.0580
15132TIP3   OH266810   6.267   2.262   1.013  0.0279  0.2737  0.3619
15132TIP3    H166811   6.224   2.345   1.031 -1.0574 -0.5078  1.3844
15132TIP3    H266812   6.269   2.257   0.917 -1.8550  0.4763  0.2915
15133TIP3   OH266813   6.716   0.136  12.238  0.2428 -0.2134 -0.1477
15133TIP3    H166814   6.716   0.191  12.159 -0.4942  0.2210  0.1501
15133TIP3    H266815   6.701   0.048  12.205  1.9527 -0.3372 -0.6838
15134TIP3   OH266816   2.228   1.143  13.960 -0.2355  0.2104  0.6610
15134TIP3    H166817   2.286   1.219  13.971 -1.3415  1.1879 -0.1723
15134TIP3    H266818   2.272   1.073  14.008  1.6148  0.9539  0.1164
15135TIP3   OH266819   2.046   4.400   3.167 -0.3002 -0.1607 -0.5790
15135TIP3    H166820   1.955   4.372   3.168 -0.4348  0.2974  0.0453
15135TIP3    H266821   2.043   4.493   3.190  0.4460 -0.5247  1.0614
15136TIP3   OH266822   0.291   4.624   3.117 -0.0721 -0.3673  0.3626
15136TIP3    H166823   0.264   4.610   3.026  1.4769 -1.3419  0.0301
15136TIP3    H266824   0.368   4.680   3.111  0.9375 -1.6707  0.9647
15137TIP3   OH266825   6.043   2.156  11.544  0.1709 -0.1648  0.3955
15137TIP3    H166826   5.984   2.137  11.617 -1.0833  1.4135 -0.1627
15137TIP3    H266827   5.988   2.205  11.482  1.6707 -0.0160 -0.8380
15138TIP3   OH266828   5.596   2.823   6.028 -0.0897 -0.1122 -0.0193
15138TIP3    H166829   5.584   2.917   6.025  1.3721  0.0938  0.2681
15138TIP3    H266830   5.598   2.796   5.936 -2.3521 -0.1297 -0.0909
15139TIP3   OH266831   6.068   3.932   6.261  0.0397 -0.0361 -0.1270
15139TIP3    H166832   6.133   3.910   6.193  0.1919 -0.8254  0.2676
15139TIP3    H266833   6.065   3.854   6.317  0.1658  0.7449  0.9774
15140TIP3   OH266834   1.744   5.728   2.871 -0.0533 -0.3519 -0.5187
15140TIP3    H166835   1.680   5.786   2.911  0.4590 -0.4062  0.4010
15140TIP3    H266836   1.819   5.785   2.852  0.1661 -0.5669 -0.2949
15141TIP3   OH266837   0.898   4.113   1.604 -0.6696  0.1339 -0.0773
15141TIP3    H166838   0.849   4.062   1.669 -0.4581  0.2725  0.1923
15141TIP3    H266839   0.875   4.204   1.623  0.3572  0.2654  0.6111
15142TIP3   OH266840   3.328   3.242  15.319 -0.2067 -0.6524 -1.0503
15142TIP3    H166841   3.392   3.184  15.360  0.5450  1.0913  0.2833
15142TIP3    H266842   3.245   3.196  15.328  0.0173 -0.5196  2.0189
15143TIP3   OH266843   2.768   3.733   2.440  0.4847 -0.2195  0.0486
15143TIP3    H166844   2.748   3.645   2.408 -1.4727 -0.0795  0.8230
15143TIP3    H266845   2.684   3.768   2.468  1.5371  1.1817  1.5630
15144TIP3   OH266846   3.183   4.756   2.664 -0.0769  0.4956  0.1237
15144TIP3    H166847   3.272   4.788   2.649  0.1613  0.0641  0.6342
15144TIP3    H266848   3.131   4.796   2.594  0.6506  0.1816 -0.5966
15145TIP3   OH266849   5.487   4.267   5.068  0.0217 -0.4914  0.2476
15145TIP3    H166850   5.423   4.293   5.002  0.8677  1.7690  0.2821
15145TIP3    H266851   5.440   4.273   5.151  0.5459  2.1953  0.3731
15146TIP3   OH266852   0.085   3.962   2.410 -0.6572  0.0888  0.5875
15146TIP3    H166853   0.023   3.896   2.380  1.4933 -1.5502 -0.4547
15146TIP3    H266854   0.141   3.915   2.473  1.9225  0.3777 -1.3780
15147TIP3   OH266855   2.176   0.268   0.766 -0.6204 -0.4047  0.4657
15147TIP3    H166856   2.128   0.221   0.698  2.1780 -1.8854 -0.5394
15147TIP3    H266857   2.257   0.296   0.724  0.2573  0.4289  2.6328
15148TIP3   OH266858   0.603   5.788  14.759  0.2739 -0.3284 -0.1114
15148TIP3    H166859   0.688   5.823  14.784  0.6087 -1.7789  0.8336
15148TIP3    H266860   0.540   5.856  14.783  1.2112  1.0286 -1.4245
15149TIP3   OH266861   4.076   0.074   3.754 -0.4320  0.0871  0.9273
15149TIP3    H166862   4.152   0.027   3.789  0.4415  0.8023  0.0211
15149TIP3    H266863   4.078   0.056   3.660 -0.3352  1.5945  0.6314
15150TIP3   OH266864   6.362   1.830   1.611  1.0449 -0.1370  0.6052
15150TIP3    H166865   6.413   1.911   1.606  1.2440 -0.3153 -0.4856
15150TIP3    H266866   6.399   1.782   1.684  2.2910 -0.1657 -0.0376
15151TIP3   OH266867   2.031   2.923  14.906 -0.1526  0.0203  0.2258
15151TIP3    H166868   2.021   2.964  14.820 -2.2510  1.2543  1.0362
15151TIP3    H266869   2.043   2.995  14.967  0.0921 -0.7823  1.1461
15152TIP3   OH266870   5.132   1.656  14.441 -0.7301 -0.0877 -0.3806
15152TIP3    H166871   5.144   1.608  14.523 -0.0352  1.1972  0.2959
15152TIP3    H266872   5.157   1.593  14.373  0.6377 -0.5498  0.5140
15153TIP3   OH266873   1.415   6.116   2.602 -0.3003 -0.1830 -0.2691
15153TIP3    H166874   1.462   6.039   2.572  0.9838  0.4786 -0.0259
15153TIP3    H266875   1.422   6.178   2.530  1.3368  0.7990  0.6935
15154TIP3   OH266876   1.347   3.909  11.239 -0.0277 -0.0038 -0.0962
15154TIP3    H166877   1.422   3.966  11.220 -0.9486  1.6960  1.2476
15154TIP3    H266878   1.271   3.959  11.211 -0.7021 -1.6214 -1.2179
15155TIP3   OH266879   3.974   5.542   1.807  0.2724  0.1295  0.3805
15155TIP3    H166880   3.970   5.455   1.848 -0.7864  0.1192  0.2713
15155TIP3    H266881   4.065   5.568   1.815  0.9031 -1.6106 -0.8649
15156TIP3   OH266882   4.474   2.994   1.429 -0.1953  0.4237 -0.0276
15156TIP3    H166883   4.437   3.010   1.342 -1.7562 -0.4453  0.4682
15156TIP3    H266884   4.537   2.923   1.415 -1.7847 -0.9952 -0.1455
15157TIP3   OH266885   3.465   2.224  12.098  0.1878  0.4554  0.2973
15157TIP3    H166886   3.424   2.286  12.037 -2.0014 -1.1478  0.0708
15157TIP3    H266887   3.559   2.242  12.091 -0.3001  2.9467 -0.6079
15158TIP3   OH266888   0.508   0.695  15.898  0.0646 -0.0680 -0.7871
15158TIP3    H166889   0.454   0.760  15.852  1.6878  3.0389  1.4963
15158TIP3    H266890   0.466   0.686  15.984  2.4366  1.5273  0.5934
15159TIP3   OH266891   4.001   1.468  13.209 -0.4364 -0.1481 -0.1948
15159TIP3    H166892   4.047   1.465  13.125 -0.0174 -1.1710  0.0642
15159TIP3    H266893   4.039   1.396  13.260 -2.1168 -0.8289  0.1358
15160TIP3   OH266894   3.368   1.731   5.678 -0.0558 -0.3477 -0.0973
15160TIP3    H166895   3.318   1.747   5.758 -1.4511 -0.6411 -0.8929
15160TIP3    H266896   3.306   1.745   5.607  1.0526 -0.4996 -1.1271
15161TIP3   OH266897   0.957   0.891  15.849 -0.1628  0.0953  0.5735
15161TIP3    H166898   0.957   0.982  15.818  0.7390 -0.0479  0.1426
15161TIP3    H266899   0.887   0.849  15.798 -0.8767  0.6415  1.0860
15162TIP3   OH266900   6.678   4.236  14.297 -0.2545  0.0686  0.0782
15162TIP3    H166901   6.739   4.174  14.337  1.5839  1.6303 -0.2119
15162TIP3    H266902   6.672   4.210  14.206 -1.1802 -0.9655  0.4235
15163TIP3   OH266903   1.858   3.465  17.231 -0.4796  0.3031 -0.0432
15163TIP3    H166904   1.824   3.466  17.141 -1.8115  0.2453  0.4595
15163TIP3    H266905   1.809   3.534  17.276 -0.9424 -0.7429  1.0656
15164TIP3   OH266906   0.688   0.139  12.501  0.4454 -0.3788  0.0826
15164TIP3    H166907   0.761   0.200  12.508 -0.7399  1.0783  0.0780
15164TIP3    H266908   0.685   0.095  12.586  1.2116 -0.3364  0.1337
15165TIP3   OH266909   4.203   6.511   0.234 -0.7252 -0.0437 -0.1836
15165TIP3    H166910   4.282   6.510   0.287 -2.1121 -0.9002  1.9469
15165TIP3    H266911   4.231   6.485   0.147  1.5103  0.7933  0.2648
15166TIP3   OH266912   1.605   0.404  13.653 -0.2160 -0.1785 -0.4815
15166TIP3    H166913   1.659   0.362  13.719  0.2906  1.9772  0.5324
15166TIP3    H266914   1.556   0.333  13.612  1.2247 -1.8092  0.5879
15167TIP3   OH266915   3.046   2.580  16.891 -0.4360  0.3695 -0.1889
15167TIP3    H166916   3.095   2.622  16.962  0.4269 -0.1971 -0.4335
15167TIP3    H266917   2.973   2.639  16.873  0.0295  1.1149  0.3442
15168TIP3   OH266918   5.153   0.970   2.863 -0.2462 -0.1377 -0.1432
15168TIP3    H166919   5.235   0.986   2.816 -0.1702  2.0722  0.6547
15168TIP3    H266920   5.180   0.934   2.947 -0.1096  0.1665 -0.0546
15169TIP3   OH266921   1.807   3.975   3.558 -0.0390 -0.0741  0.2209
15169TIP3    H166922   1.883   3.951   3.611 -0.5706 -0.0716  0.9873
15169TIP3    H266923   1.733   3.967   3.617 -0.9193 -2.3371 -1.1225
15170TIP3   OH266924   0.003   0.811  15.110  1.0674  0.3277  0.6859
15170TIP3    H166925   0.006   0.781  15.201  1.1217  0.3469  0.6914
15170TIP3    H266926  -0.014   0.905  15.117  2.1858  0.5332  0.7188
15171TIP3   OH266927   2.855   2.663   1.486  0.1812 -0.3305  0.3009
15171TIP3    H166928   2.896   2.582   1.516  0.6831 -0.3963 -0.5237
15171TIP3    H266929   2.878   2.668   1.393 -1.3886 -0.1907 -0.1033
15172TIP3   OH266930   4.633   6.290   4.966 -0.1860 -0.3602 -0.1940
15172TIP3    H166931   4.651   6.272   4.873 -1.0438  0.9572 -0.6314
15172TIP3    H266932   4.700   6.353   4.991  1.5112 -2.4535  0.7623
15173TIP3   OH266933   1.106   6.411   4.220 -0.6722  0.4206 -0.1289
15173TIP3    H166934   1.037   6.380   4.278  0.5107  0.9316  1.5860
15173TIP3    H266935   1.135   6.494   4.259  0.0579  0.8284 -1.5002
15174TIP3   OH266936   2.987   6.504  15.466 -0.5246 -0.5810  0.2640
15174TIP3    H166937   3.017   6.536  15.550 -0.0201  0.6960 -0.3864
15174TIP3    H266938   2.944   6.421  15.485 -0.2383 -0.3918  1.7409
15175TIP3   OH266939   0.810   5.535  10.548 -0.3618  0.2885  0.2444
15175TIP3    H166940   0.829   5.500  10.635  1.1169  0.3533 -0.0397
15175TIP3    H266941   0.896   5.548  10.508 -1.0123  0.8099 -1.0108
15176TIP3   OH266942   2.264   6.259  16.011  0.7522 -0.2466 -0.0109
15176TIP3    H166943   2.352   6.251  16.048  0.6791  2.5638  0.8704
15176TIP3    H266944   2.206   6.230  16.081  0.8012  1.5268  0.7795
15177TIP3   OH266945   2.297   4.458  14.869 -0.4088 -0.3094  0.2751
15177TIP3    H166946   2.244   4.469  14.790  0.1651  1.7968  0.1737
15177TIP3    H266947   2.235   4.474  14.941 -0.3472  0.2913  0.1960
15178TIP3   OH266948   6.651   3.104   5.269 -0.6634  0.5356 -0.2800
15178TIP3    H166949   6.621   3.016   5.290 -1.3951  0.6344 -0.8796
15178TIP3    H266950   6.664   3.146   5.354  0.5182 -0.4204  0.0264
15179TIP3   OH266951   2.251   2.213  13.770  0.1486  0.5737  0.0530
15179TIP3    H166952   2.181   2.279  13.777  2.4979  3.0875  0.6361
15179TIP3    H266953   2.332   2.263  13.776  2.0374 -2.3219 -0.2985
15180TIP3   OH266954   2.039   6.294   4.334 -0.2430  0.4065  0.2376
15180TIP3    H166955   2.082   6.324   4.254 -0.6331 -2.3672 -1.0832
15180TIP3    H266956   2.086   6.338   4.405  2.7404 -0.1143 -1.3323
15181TIP3   OH266957   6.583   2.445  12.193  0.5421 -0.3369  0.3670
15181TIP3    H166958   6.592   2.376  12.127  0.0558  0.4583 -0.5342
15181TIP3    H266959   6.539   2.401  12.266 -0.2983 -0.8501 -0.4255
15182TIP3   OH266960   3.062   4.227  16.179 -0.0076  0.2194 -0.5198
15182TIP3    H166961   3.001   4.294  16.211 -0.7330 -0.1276 -1.1570
15182TIP3    H266962   3.007   4.149  16.166  0.9820 -0.7604  1.0473
15183TIP3   OH266963   6.070   3.995   2.136 -0.1283  0.6542  0.3986
15183TIP3    H166964   6.121   4.076   2.127  0.3617  0.0129 -3.3000
15183TIP3    H266965   6.135   3.930   2.161  0.5059  0.3310 -1.9749
15184TIP3   OH266966   3.327   5.124   1.770  0.4863  0.1943 -0.2672
15184TIP3    H166967   3.338   5.189   1.700  0.1966  1.0728  0.4985
15184TIP3    H266968   3.233   5.119   1.784  0.4888 -0.5670 -0.4710
15185TIP3   OH266969   3.225   2.971  10.782  0.0626 -0.4180 -0.0578
15185TIP3    H166970   3.195   3.060  10.764  0.4240 -0.2680  0.0698
15185TIP3    H266971   3.187   2.918  10.712 -1.1679 -0.3727  0.5577
15186TIP3   OH266972   3.475   0.872  16.540  0.3916  0.9393  0.3245
15186TIP3    H166973   3.551   0.925  16.515  0.3629  0.1432 -1.5567
15186TIP3    H266974   3.426   0.860  16.458 -0.5131 -0.5397  1.0528
15187TIP3   OH266975   0.491   0.253  12.135 -0.0469  0.0341 -0.4412
15187TIP3    H166976   0.540   0.284  12.059 -0.9571 -0.5510 -1.2803
15187TIP3    H266977   0.548   0.270  12.209  0.2753  1.9326 -1.0918
15188TIP3   OH266978   0.281   5.638  15.336 -0.5655  0.6006 -0.4347
15188TIP3    H166979   0.366   5.678  15.355 -1.5516  1.1123  3.2869
15188TIP3    H266980   0.302   5.561  15.284  2.0312  1.6685 -1.0590
15189TIP3   OH266981   5.144   5.660  14.230 -0.2915 -0.3106  0.1103
15189TIP3    H166982   5.099   5.588  14.275 -0.6656 -0.4417 -0.4626
15189TIP3    H266983   5.194   5.704  14.299  0.5277 -1.5679  0.3308
15190TIP3   OH266984   2.589   3.402   4.273 -0.2706 -0.1792  0.0365
15190TIP3    H166985   2.610   3.368   4.186 -1.9693  0.0255 -0.4657
15190TIP3    H266986   2.523   3.343   4.307  0.5079 -0.3522  1.2737
15191TIP3   OH266987   0.731   3.113  13.997  0.3817  0.2728  0.1268
15191TIP3    H166988   0.773   3.179  14.051 -1.1495  0.5773  0.9634
15191TIP3    H266989   0.801   3.081  13.940  1.3482  1.9644  0.3218
15192TIP3   OH266990   1.863   1.740  17.038  0.4123 -0.3355  0.0478
15192TIP3    H166991   1.924   1.684  17.085  0.8330 -0.3045 -0.4533
15192TIP3    H266992   1.805   1.679  16.992  0.0587 -0.3647  0.5212
15193TIP3   OH266993   1.614   2.897   2.411 -0.0875  0.1524  0.1623
15193TIP3    H166994   1.606   2.875   2.318  1.6302  1.0745 -0.2201
15193TIP3    H266995   1.616   2.812   2.456  1.2174 -0.3530 -0.8324
15194TIP3   OH266996   3.288   2.330  12.863 -0.5986 -0.1300  0.0353
15194TIP3    H166997   3.341   2.293  12.933  2.0435  0.5343 -1.5555
15194TIP3    H266998   3.341   2.320  12.784 -2.8687  0.5030 -1.6391
15195TIP3   OH266999   5.580   5.821  15.872 -0.5687  0.4966 -0.2340
15195TIP3    H167000   5.637   5.891  15.840  0.2110 -0.8040 -1.7516
15195TIP3    H267001   5.554   5.773  15.793 -1.4721 -0.6420  0.7371
15196TIP3   OH267002   6.203   0.174   3.180 -0.6430  0.6305  0.0970
15196TIP3    H167003   6.139   0.232   3.139  1.1854  3.2861  0.8931
15196TIP3    H267004   6.283   0.226   3.184  1.5608 -2.5709 -0.7932
15197TIP3   OH267005   3.192   6.089   1.115 -0.3559  0.2625 -0.6791
15197TIP3    H167006   3.113   6.132   1.081  0.4042  1.7611 -0.6009
15197TIP3    H267007   3.253   6.087   1.041  0.8895  2.5129  0.2421
15198TIP3   OH267008   1.165   5.777   3.574  0.1716 -0.5158  0.4898
15198TIP3    H167009   1.260   5.789   3.561  0.1203 -0.4760  0.1421
15198TIP3    H267010   1.135   5.738   3.492 -0.0804 -0.7253  0.6811
15199TIP3   OH267011   6.500   0.288  14.607 -0.7707  0.1922 -0.1447
15199TIP3    H167012   6.510   0.379  14.581 -0.8046  0.0928 -0.5087
15199TIP3    H267013   6.553   0.238  14.544  0.9011  0.1255  1.3058
15200TIP3   OH267014   1.842   4.700  13.782 -0.0035 -0.5315  0.1041
15200TIP3    H167015   1.848   4.678  13.689  0.0502  0.5066 -0.1452
15200TIP3    H267016   1.904   4.641  13.824  1.0377 -0.0342 -0.6974
15201TIP3   OH267017   0.201   0.598   0.475  0.2523 -0.7402  0.0877
15201TIP3    H167018   0.125   0.551   0.440 -0.9136  0.0905  1.4613
15201TIP3    H267019   0.257   0.530   0.513 -0.4463 -1.2058  0.2793
15202TIP3   OH267020   6.181   3.648   3.233  0.4849 -0.1028  0.1494
15202TIP3    H167021   6.163   3.737   3.201 -0.3051 -0.8142 -1.4133
15202TIP3    H267022   6.252   3.617   3.177  0.3519 -0.6864  0.3040
15203TIP3   OH267023   0.558   1.336   6.509 -0.0294 -0.2287  0.3716
15203TIP3    H167024   0.478   1.382   6.483  0.3463  0.2196  0.0036
15203TIP3    H267025   0.628   1.384   6.466  0.7460  1.3564  3.2524
15204TIP3   OH267026   5.845   3.079  16.751  0.0625  0.3106 -0.4088
15204TIP3    H167027   5.917   3.048  16.804 -0.5643  1.3686  1.1070
15204TIP3    H267028   5.872   3.063  16.660  0.1990 -3.5633  0.2646
15205TIP3   OH267029   0.077   0.408   2.062 -0.1035 -0.0671  0.6451
15205TIP3    H167030   0.001   0.396   2.005 -0.3354 -0.2223  0.9848
15205TIP3    H267031   0.086   0.503   2.071  0.1592 -0.0359  0.0490
15206TIP3   OH267032   3.201   2.592   2.398  0.4279  0.2673 -0.6553
15206TIP3    H167033   3.115   2.630   2.379  0.2185 -0.8570 -2.0636
15206TIP3    H267034   3.182   2.512   2.446  0.6210 -0.4967 -1.8281
15207TIP3   OH267035   6.417   5.743   2.467  0.0919 -0.0967 -0.0395
15207TIP3    H167036   6.360   5.817   2.447 -0.9730 -0.6609  0.8576
15207TIP3    H267037   6.505   5.776   2.449 -0.3037  1.6088  0.9504
15208TIP3   OH267038   0.412   5.628   1.718  0.2976  0.0074 -0.0747
15208TIP3    H167039   0.332   5.664   1.756 -0.2262 -1.1156 -0.0594
15208TIP3    H267040   0.402   5.641   1.624  0.6137  0.8688  0.0083
15209TIP3   OH267041   6.514   1.290   5.432 -0.7441  0.1600 -0.4124
15209TIP3    H167042   6.550   1.271   5.346 -0.8638  1.0277 -0.6535
15209TIP3    H267043   6.425   1.254   5.430 -0.1199 -1.4450 -0.0218
15210TIP3   OH267044   3.074   3.025  13.226 -0.3813  0.2422 -0.0323
15210TIP3    H167045   3.073   3.121  13.225 -1.9512  0.2527  1.0834
15210TIP3    H267046   3.164   3.003  13.248  0.5002  1.4137 -2.2513
15211TIP3   OH267047   0.574   5.133   2.684 -0.3332 -0.1978  0.0829
15211TIP3    H167048   0.624   5.200   2.731 -0.1180 -0.2073 -0.1270
15211TIP3    H267049   0.486   5.137   2.721 -0.0500 -0.5033  0.7843
15212TIP3   OH267050   3.092   5.808   6.044  0.2620  0.0948  0.4162
15212TIP3    H167051   3.017   5.776   6.094 -2.1503 -0.1984 -3.2015
15212TIP3    H267052   3.100   5.900   6.069 -1.2138  0.0997  0.9418
15213TIP3   OH267053   1.372   4.052   1.708  0.1529 -0.3824 -0.6141
15213TIP3    H167054   1.309   4.103   1.760  1.4810  0.6150  0.0326
15213TIP3    H267055   1.451   4.049   1.761  1.3833  0.2545 -2.3589
15214TIP3   OH267056   4.775   6.045   5.143  0.1927  0.0515  0.2602
15214TIP3    H167057   4.733   5.985   5.082 -0.4937 -0.8816  1.6310
15214TIP3    H267058   4.721   6.041   5.222  0.1936  2.4110  0.4061
15215TIP3   OH267059   5.121   4.964   2.968 -0.1604  0.4491 -0.5167
15215TIP3    H167060   5.060   4.979   2.896  0.6275 -0.3908 -1.3634
15215TIP3    H267061   5.181   5.039   2.964 -1.4338  1.5691  0.6590
15216TIP3   OH267062   5.606   1.620  13.445 -0.6078 -0.1508 -0.0730
15216TIP3    H167063   5.592   1.610  13.351 -1.7375  0.1068  0.0593
15216TIP3    H267064   5.700   1.607  13.457 -0.3306  0.6371 -1.3357
15217TIP3   OH267065   5.960   5.690   3.524 -0.6825 -0.2801  0.6572
15217TIP3    H167066   6.015   5.730   3.591 -0.0213 -0.3302  0.1515
15217TIP3    H267067   5.880   5.742   3.524  0.8364  2.2089 -1.2087
15218TIP3   OH267068   2.938   0.398   5.272  0.0339 -0.3654 -0.2859
15218TIP3    H167069   2.897   0.415   5.357 -1.0788  0.1752 -0.9074
15218TIP3    H267070   2.930   0.303   5.260 -0.4495 -0.3522 -0.0914
15219TIP3   OH267071   5.843   2.321   5.854  0.0002  0.1441 -0.0179
15219TIP3    H167072   5.764   2.281   5.819  1.1776 -1.5739 -0.7342
15219TIP3    H267073   5.879   2.372   5.781  0.0917  0.1184  0.0092
15220TIP3   OH267074   3.191   5.900   4.089  0.5940 -0.3985  0.1314
15220TIP3    H167075   3.237   5.842   4.149  1.7427  0.1811 -0.1824
15220TIP3    H267076   3.220   5.872   4.002  0.6893  0.2541 -0.0449
15221TIP3   OH267077   1.119   5.368  12.084  0.1118  0.2863 -0.0773
15221TIP3    H167078   1.174   5.447  12.073  0.9435 -0.2305  0.3407
15221TIP3    H267079   1.038   5.401  12.122 -1.7106  1.7569 -4.7471
15222TIP3   OH267080   2.302   6.453   5.642 -0.1147  0.3322  0.0208
15222TIP3    H167081   2.332   6.363   5.646  0.6337  0.6012  0.6690
15222TIP3    H267082   2.207   6.447   5.632 -0.0327 -0.5207 -0.2347
15223TIP3   OH267083   3.356   0.916  12.547  0.5674 -0.0212  0.4039
15223TIP3    H167084   3.352   0.872  12.462  0.4199  2.4352 -0.9130
15223TIP3    H267085   3.281   0.881  12.595 -0.0091 -0.6390 -0.9061
15224TIP3   OH267086   2.492   3.055   3.684 -0.5846 -0.2917 -0.2904
15224TIP3    H167087   2.463   2.980   3.736 -2.9713  0.1757 -0.8881
15224TIP3    H267088   2.543   3.017   3.613 -1.9634 -1.4012 -0.7231
15225TIP3   OH267089   4.318   4.224  14.898 -0.1093 -0.8002 -0.4684
15225TIP3    H167090   4.413   4.232  14.906 -0.1475  0.9580 -1.5470
15225TIP3    H267091   4.298   4.139  14.936  2.0124 -1.6106 -1.0905
15226TIP3   OH267092   1.009   3.767   4.431 -0.3730  0.0882 -0.6859
15226TIP3    H167093   0.965   3.748   4.514 -0.6029  0.8743 -0.6231
15226TIP3    H267094   0.956   3.724   4.365 -0.5785  0.0381 -0.4899
15227TIP3   OH267095   2.337   5.313   6.249  1.0012  0.2488  0.6064
15227TIP3    H167096   2.379   5.236   6.287  1.2964  0.0866 -0.0326
15227TIP3    H267097   2.410   5.374   6.234  0.6162  1.1094  2.1777
15228TIP3   OH267098   2.846   5.759  11.885 -0.0588  0.4865  0.4590
15228TIP3    H167099   2.898   5.688  11.922 -2.3762 -0.9404  1.0764
15228TIP3    H267100   2.891   5.782  11.804  0.4741 -1.9923  0.0156
15229TIP3   OH267101   6.321   4.431   3.935 -0.1912 -0.5644  0.0764
15229TIP3    H167102   6.310   4.525   3.948 -1.0051 -0.6477  0.0333
15229TIP3    H267103   6.370   4.402   4.012  2.2357  0.2908 -1.1022
15230TIP3   OH267104   4.262   1.751   0.104  0.5126 -0.1436  0.7033
15230TIP3    H167105   4.195   1.734   0.170 -0.0243 -0.0238  0.1940
15230TIP3    H267106   4.261   1.673   0.047 -1.2110  1.0868 -1.0060
15231TIP3   OH267107   5.114   4.792   4.037  0.0623 -0.1905  0.3140
15231TIP3    H167108   5.056   4.838   3.977  0.9497  1.2726  0.5667
15231TIP3    H267109   5.089   4.700   4.028 -2.2620  0.4050  0.3923
15232TIP3   OH267110   4.262   2.552  17.218  0.5852  0.4891  0.3432
15232TIP3    H167111   4.211   2.611  17.274  2.5902 -0.3325  3.1915
15232TIP3    H267112   4.199   2.487  17.188 -0.3364  0.2370  2.7168
15233TIP3   OH267113   6.352   1.243   1.397 -0.5787  0.3937 -0.6851
15233TIP3    H167114   6.399   1.322   1.424  0.1136  0.4064 -1.9000
15233TIP3    H267115   6.293   1.225   1.470  1.6965  0.0514  1.1395
15234TIP3   OH267116   3.501   5.129   0.293 -0.0113  0.0432  0.0218
15234TIP3    H167117   3.591   5.102   0.315  0.1745 -0.3406 -1.1753
15234TIP3    H267118   3.492   5.107   0.201 -1.9480 -1.5512  0.5798
15235TIP3   OH267119   4.076   2.315  11.674 -0.2814  0.7189 -0.4291
15235TIP3    H167120   4.156   2.269  11.700  1.4760  1.9406 -3.4830
15235TIP3    H267121   4.031   2.255  11.616 -1.3257  0.2496  0.8545
15236TIP3   OH267122   6.172   2.456  12.483 -0.2526 -0.3330 -0.2894
15236TIP3    H167123   6.228   2.520  12.440  1.7172 -1.1690  0.9528
15236TIP3    H267124   6.147   2.395  12.413  1.9582 -1.0143 -0.5349
15237TIP3   OH267125   1.561   0.761  16.587  0.4946 -0.0182  0.1443
15237TIP3    H167126   1.519   0.739  16.504  1.3079 -1.3053  0.0600
15237TIP3    H267127   1.600   0.847  16.572 -0.0434  0.1079 -0.5509
15238TIP3   OH267128   6.645   5.930  12.020  0.6115 -0.0611  0.2165
15238TIP3    H167129   6.693   5.979  11.953  0.0992  0.9806  0.5881
15238TIP3    H267130   6.575   5.990  12.047 -1.8868 -2.1547 -1.4358
15239TIP3   OH267131   4.790   2.872   4.753 -0.5978  0.8163 -0.1022
15239TIP3    H167132   4.872   2.840   4.791  0.6007  1.5715 -1.9577
15239TIP3    H267133   4.777   2.818   4.675 -1.3635  1.3285 -0.3278
15240TIP3   OH267134   0.896   5.455  10.795 -0.4514 -0.4818  0.0804
15240TIP3    H167135   0.860   5.401  10.865  0.2361  0.9171  1.5406
15240TIP3    H267136   0.991   5.443  10.801 -0.3759 -0.2360 -0.5286
15241TIP3   OH267137   2.279   0.555  11.078  0.1702 -0.2225 -0.4290
15241TIP3    H167138   2.199   0.539  11.029 -0.1271 -1.0717  0.3345
15241TIP3    H267139   2.259   0.528  11.168  0.9123  0.7107  0.0321
15242TIP3   OH267140   5.484   0.025   2.653 -0.7140 -1.4870 -0.4621
15242TIP3    H167141   5.404   0.022   2.706 -1.5066 -1.6032 -1.6547
15242TIP3    H267142   5.554   0.005   2.715 -1.2814  1.5896  1.2601
15243TIP3   OH267143   2.399   5.684   1.242 -0.2626 -0.2071  0.1766
15243TIP3    H167144   2.421   5.725   1.326 -1.4456 -2.4279  1.6004
15243TIP3    H267145   2.382   5.593   1.263 -1.6233 -0.5809 -2.3380
15244TIP3   OH267146   3.467   3.396   1.447  0.2910  0.0537  0.5054
15244TIP3    H167147   3.436   3.453   1.377  1.6376 -0.0141 -0.1517
15244TIP3    H267148   3.405   3.410   1.519 -0.3860  1.0307 -0.2667
15245TIP3   OH267149   6.151   5.240   3.417  0.1996 -0.1063 -0.6160
15245TIP3    H167150   6.153   5.334   3.401  0.8720  0.0808  0.4880
15245TIP3    H267151   6.166   5.231   3.511 -1.4586 -1.2473 -0.4346
15246TIP3   OH267152   2.584   4.368  15.933  0.3812  0.1232 -0.0395
15246TIP3    H167153   2.514   4.346  15.872  0.9395 -0.8008 -0.3536
15246TIP3    H267154   2.654   4.306  15.914 -0.3831 -1.8965  3.2301
15247TIP3   OH267155   3.790   0.048   2.868  0.2274 -0.2670  0.3153
15247TIP3    H167156   3.850   0.091   2.807  1.0860 -2.8131 -0.6862
15247TIP3    H267157   3.814   0.084   2.954  2.6709 -0.6487 -0.1614
15248TIP3   OH267158   2.446   3.769   1.474  0.4995  0.9294  0.0719
15248TIP3    H167159   2.398   3.712   1.534  0.6737 -0.8402 -1.4268
15248TIP3    H267160   2.467   3.846   1.526 -0.0165 -0.2442  2.0731
15249TIP3   OH267161   4.838   3.311  14.609 -0.1687 -0.3934  0.5640
15249TIP3    H167162   4.923   3.293  14.649  0.5941  1.3605 -0.2130
15249TIP3    H267163   4.776   3.310  14.682  0.4814 -1.7477  1.1226
15250TIP3   OH267164   0.676   5.620   1.721  0.5187 -0.3832  0.6153
15250TIP3    H167165   0.582   5.605   1.723  0.5129 -0.2805  1.2257
15250TIP3    H267166   0.692   5.682   1.792  0.6101  2.2412 -1.6164
15251TIP3   OH267167   3.930   6.182   3.513  0.1202 -0.0950 -0.4885
15251TIP3    H167168   3.992   6.166   3.442 -0.1584 -0.4107 -0.6604
15251TIP3    H267169   3.855   6.223   3.470  0.0163 -0.1431 -0.3504
15252TIP3   OH267170   3.740   6.073  17.194 -0.1250  0.7298  0.0470
15252TIP3    H167171   3.769   6.134  17.262 -0.4490  0.7059  0.2072
15252TIP3    H267172   3.797   5.997  17.204 -0.3397  0.6213  0.4606
15253TIP3   OH267173   0.793   6.222   3.004  0.4032 -0.1483 -0.3107
15253TIP3    H167174   0.753   6.263   2.927 -0.0605 -0.1465 -0.0747
15253TIP3    H267175   0.806   6.294   3.066  1.4838 -0.0225 -0.6763
15254TIP3   OH267176   5.829   4.766  10.589  0.5932  0.0013 -0.1716
15254TIP3    H167177   5.769   4.705  10.547  0.9569  0.4028 -1.2959
15254TIP3    H267178   5.912   4.754  10.542  1.6920 -1.2364  1.9683
15255TIP3   OH267179   0.489   2.031  14.110 -0.1943  0.5134  0.8358
15255TIP3    H167180   0.486   2.124  14.088  1.7891  0.6524  1.1226
15255TIP3    H267181   0.561   1.995  14.057  0.2674 -0.4823  2.1070
15256TIP3   OH267182   0.912   5.387  13.005 -0.0828  0.5558  0.4994
15256TIP3    H167183   0.857   5.356  12.933  1.3577 -0.1056 -0.3333
15256TIP3    H267184   0.956   5.309  13.038 -0.5959  0.8804  2.0028
15257TIP3   OH267185   0.680   0.726   0.624 -0.1513  0.0342  0.0408
15257TIP3    H167186   0.610   0.762   0.570 -1.9115 -0.7996  1.7480
15257TIP3    H267187   0.722   0.661   0.568 -0.1942  1.0903 -1.2567
15258TIP3   OH267188   2.853   6.153  16.284  0.0666  0.2804  0.2659
15258TIP3    H167189   2.845   6.080  16.345  1.0372 -0.4235 -0.4403
15258TIP3    H267190   2.779   6.211  16.306 -1.3731 -1.4490  0.0919
15259TIP3   OH267191   2.846   5.244   1.248 -0.0106 -0.7576  0.0118
15259TIP3    H167192   2.760   5.204   1.262 -0.2777  0.5073  2.2413
15259TIP3    H267193   2.875   5.269   1.336  2.6834 -1.2215 -0.7065
15260TIP3   OH267194   0.829   4.629  14.321  0.2772 -0.0177 -0.9126
15260TIP3    H167195   0.856   4.596  14.407 -0.4838 -0.4370 -0.8348
15260TIP3    H267196   0.807   4.721  14.337  0.6623  0.0516 -0.7710
15261TIP3   OH267197   6.203   3.426  11.070 -0.0263 -0.2704 -0.2803
15261TIP3    H167198   6.143   3.352  11.076  0.6102 -0.9200 -1.6674
15261TIP3    H267199   6.256   3.407  10.992 -1.2225  2.6527 -1.8861
15262TIP3   OH267200   5.918   6.232  13.397 -0.1368 -0.5529  0.2894
15262TIP3    H167201   5.950   6.142  13.384 -2.5645 -1.1620 -2.0410
15262TIP3    H267202   5.898   6.237  13.490 -0.3170 -2.5841  0.3889
15263TIP3   OH267203   2.283   4.815   6.428  0.0225 -0.3284 -0.3289
15263TIP3    H167204   2.349   4.752   6.458 -1.3936 -0.6816  2.1597
15263TIP3    H267205   2.212   4.761   6.393 -0.1007 -0.0147 -0.5744
15264TIP3   OH267206   4.242   5.203  14.894 -0.1694 -0.0051 -0.0290
15264TIP3    H167207   4.191   5.162  14.963  1.2441  0.4811  1.3176
15264TIP3    H267208   4.273   5.130  14.841 -1.1597 -0.3790 -0.1111
15265TIP3   OH267209   6.168   6.166  11.261 -0.3488 -0.1081  0.0737
15265TIP3    H167210   6.141   6.185  11.171 -1.5771 -0.3645  0.3779
15265TIP3    H267211   6.195   6.250  11.297 -3.9840  0.8216  0.8242
15266TIP3   OH267212   0.492   0.675  14.694  0.1231  0.0609 -0.0975
15266TIP3    H167213   0.425   0.638  14.637  1.8435 -1.3996 -1.2220
15266TIP3    H267214   0.565   0.697  14.635  0.9966  0.7830  1.2201
15267TIP3   OH267215   1.634   2.393   1.939 -0.0147  0.4042  0.6998
15267TIP3    H167216   1.707   2.410   1.880  0.0685 -0.3422  0.5933
15267TIP3    H267217   1.560   2.374   1.881 -0.1018  0.3572  0.8261
15268TIP3   OH267218   5.276   0.597  15.034 -0.5227  1.0237  0.1397
15268TIP3    H167219   5.305   0.525  14.978 -0.1572  0.2717  1.2659
15268TIP3    H267220   5.342   0.601  15.104 -1.2411  1.6031  0.8018
15269TIP3   OH267221   1.240   3.741  15.671  0.0844  0.4513 -0.8119
15269TIP3    H167222   1.296   3.705  15.740 -1.1009 -1.3846 -0.7758
15269TIP3    H267223   1.170   3.787  15.718 -0.9475 -1.1403 -0.7414
15270TIP3   OH267224   5.135   4.288  15.997 -0.2669 -0.2720 -0.6102
15270TIP3    H167225   5.057   4.235  16.013 -0.1104 -0.4984 -0.5987
15270TIP3    H267226   5.208   4.225  16.001 -0.0621 -0.0179 -0.3727
15271TIP3   OH267227   2.336   5.583   3.332  0.1451 -0.1810  0.2563
15271TIP3    H167228   2.395   5.651   3.300  1.7955 -1.3660  0.7249
15271TIP3    H267229   2.326   5.602   3.425  0.6323 -0.5915  0.3941
15272TIP3   OH267230   3.188   6.372  16.535 -0.0020 -0.0449 -0.7734
15272TIP3    H167231   3.262   6.417  16.576 -0.0513  0.1755 -0.9196
15272TIP3    H267232   3.221   6.285  16.514  0.1055 -0.0673 -0.5122
15273TIP3   OH267233   6.752   5.744  11.108 -0.0966 -0.1560 -0.1067
15273TIP3    H167234   6.683   5.804  11.081 -0.2080 -0.1608  0.1702
15273TIP3    H267235   6.831   5.779  11.068 -0.3214 -0.3615 -0.7366
15274TIP3   OH267236   6.528   0.214  13.601  0.0395 -0.3507  0.1406
15274TIP3    H167237   6.447   0.226  13.651 -0.2752  0.5879 -0.5779
15274TIP3    H267238   6.536   0.119  13.591 -1.6094 -0.4090 -0.7904
15275TIP3   OH267239   4.802   0.302   1.840 -0.1871 -0.0050 -0.2681
15275TIP3    H167240   4.708   0.302   1.859 -0.3164 -1.2052 -0.8461
15275TIP3    H267241   4.810   0.254   1.757  1.0634 -1.0979  0.4696
15276TIP3   OH267242   4.405   6.119  11.795 -0.1200  0.2945  0.4482
15276TIP3    H167243   4.344   6.168  11.850  0.0734 -1.7258  2.5542
15276TIP3    H267244   4.471   6.183  11.769 -1.4102  1.7858  0.7552
15277TIP3   OH267245   3.227   4.107  11.756 -0.1309  0.2268 -0.3597
15277TIP3    H167246   3.208   4.160  11.833  0.8409  1.0868 -0.6933
15277TIP3    H267247   3.321   4.090  11.762 -0.0223  0.4136 -1.4179
15278TIP3   OH267248   4.059   0.369  14.871 -0.0781  0.2926 -0.0020
15278TIP3    H167249   4.086   0.335  14.786  1.9031 -1.3037  1.2114
15278TIP3    H267250   4.033   0.291  14.920 -0.5737  1.1241  1.0677
15279TIP3   OH267251   1.304   2.875   3.443 -0.3558 -1.0785 -0.1379
15279TIP3    H167252   1.213   2.862   3.472 -0.0563 -1.7813  0.5124
15279TIP3    H267253   1.303   2.848   3.351 -1.1317  0.3668 -0.5648
15280TIP3   OH267254   1.330   0.312   4.932  0.3791 -0.0539  0.2241
15280TIP3    H167255   1.305   0.378   4.868 -0.0370 -0.0664  0.3756
15280TIP3    H267256   1.265   0.319   5.002 -0.1239 -1.1539 -0.1246
15281TIP3   OH267257   2.854   0.589  15.936 -0.6547  0.0208 -0.5035
15281TIP3    H167258   2.844   0.643  15.857 -0.3940 -1.3295 -1.4716
15281TIP3    H267259   2.940   0.614  15.970 -1.2195  1.3885 -0.0282
15282TIP3   OH267260   3.682   2.999   1.983  0.3300  0.1653 -0.3166
15282TIP3    H167261   3.713   2.943   1.912  0.2647  0.4318 -0.5528
15282TIP3    H267262   3.625   3.063   1.941 -1.0608 -0.7039  0.1965
15283TIP3   OH267263   4.047   4.866   2.591 -0.6018  0.0757  0.2086
15283TIP3    H167264   4.025   4.796   2.530 -0.5109 -1.3898  1.8158
15283TIP3    H267265   4.048   4.823   2.677 -0.7119  2.0826  1.2383
15284TIP3   OH267266   6.204   4.751  16.015 -0.3566 -0.5853  0.0733
15284TIP3    H167267   6.291   4.729  16.049  0.1230 -1.4921 -1.7025
15284TIP3    H267268   6.190   4.841  16.042  0.1059 -1.1764  2.4671
15285TIP3   OH267269   3.435   2.099   2.238 -0.5238 -0.0172  0.3534
15285TIP3    H167270   3.464   2.024   2.290  1.6510 -1.2890 -2.5694
15285TIP3    H267271   3.515   2.144   2.212 -1.4934  0.3968 -2.1258
15286TIP3   OH267272   2.183   2.873  14.526 -0.0337 -0.7216 -0.2554
15286TIP3    H167273   2.275   2.888  14.545  0.5651 -2.8645 -1.3275
15286TIP3    H267274   2.136   2.928  14.589  1.9542 -0.4154  0.9950
15287TIP3   OH267275   5.420   1.874  15.852  0.6897  0.5192 -0.2730
15287TIP3    H167276   5.451   1.924  15.776  2.2552 -1.2611 -0.8326
15287TIP3    H267277   5.448   1.784  15.834  0.2213 -0.0852  1.9691
15288TIP3   OH267278   5.759   0.209  13.134  0.2316  0.1019  0.2860
15288TIP3    H167279   5.686   0.167  13.179  0.4818  0.0338  0.6266
15288TIP3    H267280   5.803   0.137  13.088  0.1233  0.1326  0.1344
15289TIP3   OH267281   1.265   1.761  11.390 -0.0399 -0.6974  0.1300
15289TIP3    H167282   1.349   1.732  11.355  1.1590  1.5798  1.0488
15289TIP3    H267283   1.205   1.755  11.315  1.6740  0.7002 -1.3944
15290TIP3   OH267284   5.531   2.373   2.487  0.4851 -0.4881  0.1882
15290TIP3    H167285   5.554   2.438   2.553  0.2369  0.0698 -0.2788
15290TIP3    H267286   5.574   2.404   2.407 -0.4203 -0.3972 -0.2592
15291TIP3   OH267287   0.441   2.811   4.534 -0.0602 -0.6869  0.2072
15291TIP3    H167288   0.511   2.829   4.470 -1.4057 -1.3236 -1.4921
15291TIP3    H267289   0.403   2.897   4.551  0.3888 -0.4929  0.2437
15292TIP3   OH267290   3.651   1.781  12.579 -0.4719 -0.4457 -0.1929
15292TIP3    H167291   3.681   1.692  12.560 -0.1591 -0.6108  1.0341
15292TIP3    H267292   3.562   1.770  12.613  0.2154 -0.4719  1.6835
15293TIP3   OH267293   1.324   4.716  10.436 -0.3247 -0.1771  0.3007
15293TIP3    H167294   1.301   4.634  10.481 -0.9235 -0.0228  0.2728
15293TIP3    H267295   1.396   4.691  10.378 -0.7772 -0.7834 -0.0155
15294TIP3   OH267296   1.595   3.385   2.595  0.4363 -0.3173 -0.1414
15294TIP3    H167297   1.557   3.297   2.586  0.1973 -0.2221 -0.0613
15294TIP3    H267298   1.690   3.369   2.601  0.2570 -0.7742  2.2560
15295TIP3   OH267299   0.022   4.595  12.785 -0.3484  0.1098 -0.3928
15295TIP3    H167300   0.087   4.598  12.715 -0.1628 -1.4621 -0.3114
15295TIP3    H267301  -0.042   4.662  12.761  0.4128  0.5039 -1.3610
15296TIP3   OH267302   1.077   3.406   2.844  0.1687 -0.3588 -0.2274
15296TIP3    H167303   1.017   3.351   2.793 -0.3942  0.0225  0.0157
15296TIP3    H267304   1.159   3.357   2.845 -0.0859 -0.8075 -0.7143
15297TIP3   OH267305   1.013   4.200   3.637 -0.2909  0.9307  0.2522
15297TIP3    H167306   1.088   4.166   3.685 -0.5578  1.2639  0.9138
15297TIP3    H267307   0.941   4.142   3.662  0.0799 -0.3951 -1.6443
15298TIP3   OH267308   2.053   0.105   1.654 -0.1408  0.7057  0.2590
15298TIP3    H167309   2.030   0.153   1.733  1.4007  1.8774  0.0278
15298TIP3    H267310   1.976   0.113   1.597 -0.2679  2.0763  0.6168
15299TIP3   OH267311   4.461   4.875  14.060 -0.1817  0.3920 -0.0597
15299TIP3    H167312   4.384   4.818  14.047  0.2088 -0.1469 -0.0435
15299TIP3    H267313   4.460   4.934  13.986  0.0536 -0.3844 -0.6882
15300TIP3   OH267314   4.080   3.135   0.680  0.6291 -0.2265  0.2104
15300TIP3    H167315   4.060   3.150   0.773  1.1754 -0.3476  0.3500
15300TIP3    H267316   4.074   3.040   0.669 -0.5829 -0.1139 -0.1492
15301TIP3   OH267317   6.409   5.598   5.690  0.0625  0.6252 -0.3101
15301TIP3    H167318   6.363   5.517   5.714 -1.9538  1.1061 -2.3652
15301TIP3    H267319   6.339   5.660   5.671  1.5986  2.7562  0.8322
15302TIP3   OH267320   4.474   3.438   4.487  0.0537 -0.0978  0.2405
15302TIP3    H167321   4.486   3.413   4.579  2.4814  2.2162  0.5835
15302TIP3    H267322   4.490   3.532   4.485  0.1229 -0.1367 -2.5891
15303TIP3   OH267323   1.950   5.617   3.059 -0.0081  0.1230  0.5297
15303TIP3    H167324   1.916   5.705   3.042  0.1154  0.2085  0.7183
15303TIP3    H267325   1.874   5.560   3.052 -0.2469  0.3504  1.2569
15304TIP3   OH267326   5.768   0.430   0.194 -0.5194 -0.2265  0.0359
15304TIP3    H167327   5.683   0.471   0.207 -0.0584  1.0466 -0.8429
15304TIP3    H267328   5.793   0.454   0.105  1.8567  1.5180  1.1174
15305TIP3   OH267329   1.324   0.932  15.612 -0.0364  0.5138 -0.2974
15305TIP3    H167330   1.396   0.994  15.609 -1.2022  1.9153  0.0615
15305TIP3    H267331   1.303   0.923  15.706  0.1240 -0.4230 -0.3422
15306TIP3   OH267332   0.092   3.976  10.588  0.7060 -0.0308 -0.5184
15306TIP3    H167333   0.013   4.014  10.550  0.6977 -0.9581 -1.4527
15306TIP3    H267334   0.063   3.895  10.629  0.7102  0.9591  1.5409
15307TIP3   OH267335   5.005   0.461  14.623 -0.4863  0.3769 -0.1690
15307TIP3    H167336   5.069   0.530  14.637  0.2286 -0.3297  0.0598
15307TIP3    H267337   5.015   0.437  14.531 -0.8302  0.6684 -0.2839
15308TIP3   OH267338   1.915   2.295  13.970  0.6584  0.1780  0.5700
15308TIP3    H167339   1.997   2.296  14.018  2.0498  0.0618 -1.7207
15308TIP3    H267340   1.932   2.349  13.892 -1.1701 -0.4790 -0.3147
15309TIP3   OH267341   0.048   1.337  14.617  0.3958  0.0158  0.8266
15309TIP3    H167342   0.117   1.300  14.561  1.5111  1.2141  1.3999
15309TIP3    H267343  -0.033   1.321  14.567  1.0049 -1.8114  0.3567
15310TIP3   OH267344   3.573   3.109   6.755  0.6333 -0.9016 -0.4956
15310TIP3    H167345   3.550   3.200   6.734 -0.4222 -1.3354 -1.2916
15310TIP3    H267346   3.664   3.113   6.783  0.9479  0.2480 -1.6310
15311TIP3   OH267347   1.290   5.215   4.878  0.0548  0.4473 -0.3988
15311TIP3    H167348   1.248   5.140   4.835  0.7123  1.0545 -2.1543
15311TIP3    H267349   1.222   5.251   4.934  0.1150 -2.2523  1.5236
15312TIP3   OH267350   1.581   2.817   0.608  0.1816  0.0343 -0.6426
15312TIP3    H167351   1.581   2.860   0.523 -1.4709  1.7881  0.1915
15312TIP3    H267352   1.510   2.753   0.602 -0.7041  0.9663 -0.2136
15313TIP3   OH267353   2.451   3.203  13.861 -0.3882  0.1459 -0.6253
15313TIP3    H167354   2.371   3.252  13.841 -0.3040 -0.1343 -1.6849
15313TIP3    H267355   2.469   3.154  13.781  0.7282  0.0462 -0.3168
15314TIP3   OH267356   4.397   3.213  12.533 -0.5072  0.7530  0.2766
15314TIP3    H167357   4.315   3.208  12.485 -0.1700  2.6340 -0.5515
15314TIP3    H267358   4.438   3.127  12.521 -2.3633 -0.2155  0.7534
15315TIP3   OH267359   2.178   4.003   3.439 -0.4968  0.2324 -0.9560
15315TIP3    H167360   2.194   4.058   3.516  0.3098 -1.4230  0.0861
15315TIP3    H267361   2.097   4.038   3.401 -0.8483  1.1344  0.5733
15316TIP3   OH267362   6.775   6.106  12.840 -0.0717 -0.3993  0.6299
15316TIP3    H167363   6.801   6.063  12.921  2.0622  0.8019  0.6334
15316TIP3    H267364   6.778   6.037  12.774  1.3293 -0.7202  1.0053
15317TIP3   OH267365   2.907   0.804  14.626  0.0569  0.5254  0.2594
15317TIP3    H167366   2.930   0.807  14.719 -1.0291  1.0722  0.5241
15317TIP3    H267367   2.874   0.892  14.607 -1.4952 -0.1291 -0.1651
15318TIP3   OH267368   1.000   4.239  13.559  0.3469  0.0419  0.1950
15318TIP3    H167369   1.025   4.147  13.544  1.4141  0.4717 -0.7792
15318TIP3    H267370   1.010   4.251  13.653  1.6212 -0.4565  0.1388
15319TIP3   OH267371   4.630   2.932   1.980 -0.2499 -0.3410  0.4914
15319TIP3    H167372   4.706   2.937   2.037  1.0041  0.0247 -1.1887
15319TIP3    H267373   4.609   3.023   1.959  0.5971 -0.5201 -1.2803
15320TIP3   OH267374   1.038   3.793   0.624  0.5199  0.0624 -0.4584
15320TIP3    H167375   1.000   3.813   0.538 -0.9852  1.0509  0.4033
15320TIP3    H267376   0.967   3.749   0.670  1.9948 -2.3217 -0.4110
15321TIP3   OH267377   1.419   1.927   1.158 -0.0013  0.5154 -0.2339
15321TIP3    H167378   1.349   1.867   1.185 -0.6639  1.0856 -0.6645
15321TIP3    H267379   1.448   1.968   1.240  0.0730  0.0078 -0.0074
15322TIP3   OH267380   6.611   2.229   6.140  0.3109 -0.2256 -0.2058
15322TIP3    H167381   6.661   2.274   6.208  0.5323 -1.6131  0.5731
15322TIP3    H267382   6.523   2.268   6.144  0.5351  0.2219  0.3690
15323TIP3   OH267383   5.357   4.273   1.872  0.6681  0.6450 -0.2137
15323TIP3    H167384   5.405   4.351   1.897 -1.3372  1.9047 -0.1904
15323TIP3    H267385   5.378   4.209   1.940  0.3856  1.9604  1.1350
15324TIP3   OH267386   5.755   3.259  12.026 -0.2492  0.2362  0.2049
15324TIP3    H167387   5.843   3.269  11.991  0.3541  1.1489  1.9205
15324TIP3    H267388   5.698   3.264  11.949  1.1161  0.8837 -0.7796
15325TIP3   OH267389   2.116   5.539  13.560  0.6640  0.3524  0.0404
15325TIP3    H167390   2.190   5.599  13.568 -0.3082  1.7496 -1.2055
15325TIP3    H267391   2.075   5.539  13.647  0.9659  1.1151  0.1831
15326TIP3   OH267392   3.778   1.537   2.941  0.0464 -0.3072 -0.2212
15326TIP3    H167393   3.699   1.484   2.952  0.1271 -0.8350 -2.0766
15326TIP3    H267394   3.747   1.623   2.914  0.1536 -1.1789 -3.3447
15327TIP3   OH267395   0.904   5.471   6.350  0.3665 -0.2139  0.1014
15327TIP3    H167396   0.861   5.448   6.268 -0.0927 -0.3165  0.3716
15327TIP3    H267397   0.851   5.543   6.386  0.9868  0.3269 -0.0540
15328TIP3   OH267398   1.231   3.324  11.305 -0.2610 -0.0746 -0.2899
15328TIP3    H167399   1.239   3.353  11.396 -0.4550 -0.3421 -0.1858
15328TIP3    H267400   1.246   3.404  11.254  0.9241 -0.1412 -0.0598
15329TIP3   OH267401   2.627   0.595   5.691 -0.4697  0.1746  0.1637
15329TIP3    H167402   2.646   0.563   5.779 -0.2560 -2.9932 -0.9708
15329TIP3    H267403   2.659   0.685   5.691 -0.3021  0.1709  3.2582
15330TIP3   OH267404   6.537   3.948   5.781  0.0043 -0.6969 -0.2731
15330TIP3    H167405   6.572   4.037   5.772 -2.0518  0.1111 -0.6547
15330TIP3    H267406   6.571   3.917   5.865  0.1114  0.7613  0.2413
15331TIP3   OH267407   2.563   1.537  13.778  1.1609  0.2605 -0.0222
15331TIP3    H167408   2.522   1.451  13.784  1.0670  0.4181  1.9872
15331TIP3    H267409   2.597   1.553  13.866 -1.1394  3.4445  0.3516
15332TIP3   OH267410   1.566   3.622  13.963 -0.2428 -0.0628 -0.4268
15332TIP3    H167411   1.480   3.586  13.981 -0.7084  0.8716 -0.7855
15332TIP3    H267412   1.566   3.708  14.004  0.3200  0.1825 -0.9304
15333TIP3   OH267413   5.350   1.747   2.825  0.1487  0.0515 -0.2626
15333TIP3    H167414   5.285   1.691   2.782  1.2913 -0.5142 -1.2758
15333TIP3    H267415   5.371   1.701   2.907 -1.0041  0.4336  0.2580
15334TIP3   OH267416   6.507   2.703   5.171  0.6969  0.0613  0.5265
15334TIP3    H167417   6.550   2.623   5.201  0.0976  0.6419  3.0158
15334TIP3    H267418   6.427   2.673   5.128  2.0365 -0.8365 -1.4040
15335TIP3   OH267419   0.381   2.183   1.768  0.3600 -0.1774 -0.3917
15335TIP3    H167420   0.444   2.190   1.697  1.5497 -2.3590  0.3877
15335TIP3    H267421   0.412   2.244   1.835  1.8978 -1.4573  0.1200
15336TIP3   OH267422   6.557   0.653  11.155  0.1946 -0.2215  0.1413
15336TIP3    H167423   6.567   0.567  11.114 -0.2219  0.2756 -1.0461
15336TIP3    H267424   6.627   0.706  11.117 -0.9526  0.5898 -0.8831
15337TIP3   OH267425   4.381   5.536  16.348 -0.2485  0.3436  0.1599
15337TIP3    H167426   4.318   5.598  16.312  0.2608 -0.4859 -2.2312
15337TIP3    H267427   4.364   5.454  16.300  1.4091 -0.3843  0.7947
15338TIP3   OH267428   1.649   0.970   3.340 -0.2859 -0.3554 -0.0687
15338TIP3    H167429   1.657   0.933   3.252 -0.3998  1.1366 -0.7200
15338TIP3    H267430   1.574   1.030   3.333  0.1367  0.2798  0.8558
15339TIP3   OH267431   4.658   4.494  17.218  0.2859  0.0739  0.7489
15339TIP3    H167432   4.574   4.448  17.227  1.0794 -1.9836 -1.6840
15339TIP3    H267433   4.704   4.476  17.300 -0.0060 -2.3294  0.4157
15340TIP3   OH267434   1.535   2.743  13.600  0.2450 -0.1820  0.4933
15340TIP3    H167435   1.515   2.697  13.519  0.2095 -1.7304  1.3623
15340TIP3    H267436   1.628   2.723  13.617  0.3875  0.5392  0.5761
15341TIP3   OH267437   5.175   0.698   1.982 -0.4849  0.9763  0.9035
15341TIP3    H167438   5.131   0.773   2.021 -0.1251  1.7689 -0.2250
15341TIP3    H267439   5.122   0.676   1.905  1.2110  2.0723 -0.5829
15342TIP3   OH267440   5.838   4.799  15.813  0.1817 -0.2482 -0.2207
15342TIP3    H167441   5.750   4.794  15.852  0.2989 -2.7510 -0.2251
15342TIP3    H267442   5.823   4.835  15.726 -1.1040 -2.4533 -0.9530
15343TIP3   OH267443   3.046   2.406   3.243 -0.2208  0.1702  0.5072
15343TIP3    H167444   3.071   2.489   3.283  0.8895  0.4251 -0.6745
15343TIP3    H267445   2.960   2.386   3.280 -0.4521  1.7961  0.8741
15344TIP3   OH267446   2.149   4.675   4.050  0.2203  0.4186  0.1377
15344TIP3    H167447   2.118   4.664   4.140  0.0646  1.6019  0.2298
15344TIP3    H267448   2.243   4.654   4.055  0.0059 -0.5406  0.3634
15345TIP3   OH267449   3.348   1.424  12.130 -0.5290 -1.0402 -0.0550
15345TIP3    H167450   3.292   1.494  12.096 -0.6877 -0.9447  0.3871
15345TIP3    H267451   3.424   1.424  12.073 -1.7312 -2.3036 -1.7153
15346TIP3   OH267452   3.392   0.001  15.048  0.9005 -0.2443 -0.6372
15346TIP3    H167453   3.361   0.066  14.985 -0.2934 -0.2505 -0.0762
15346TIP3    H267454   3.330  -0.072  15.040  1.4991 -0.7905 -0.3739
15347TIP3   OH267455   2.145   1.025  12.140  0.7216  0.5447 -0.5188
15347TIP3    H167456   2.052   1.016  12.163  1.0129 -0.9507  0.1181
15347TIP3    H267457   2.174   1.103  12.188  0.7208 -1.1577  2.3270
15348TIP3   OH267458   1.907   0.267   1.922  0.7511 -0.1504  0.0184
15348TIP3    H167459   1.821   0.251   1.960  1.1630 -1.5069  0.3921
15348TIP3    H267460   1.893   0.260   1.827  0.1989  0.9204  0.0125
15349TIP3   OH267461   5.246   4.057  15.472  0.0877  0.5570  0.1856
15349TIP3    H167462   5.270   3.965  15.484 -0.6395  0.3875  0.4233
15349TIP3    H267463   5.175   4.055  15.408 -1.5203  0.7175  1.8927
15350TIP3   OH267464   3.367   1.439   1.826 -0.0210 -0.6473 -0.1742
15350TIP3    H167465   3.275   1.428   1.849  0.8704 -3.4611  2.3009
15350TIP3    H267466   3.390   1.358   1.781  1.7079 -0.7029  0.7923
15351TIP3   OH267467   3.168   1.291  11.763  0.4472  0.3923  0.0171
15351TIP3    H167468   3.105   1.362  11.782 -0.1689 -0.2275  0.3080
15351TIP3    H267469   3.245   1.337  11.729  0.5316  1.3210  1.3913
15352TIP3   OH267470   4.854   0.684  15.439 -0.2005  0.1499  0.0874
15352TIP3    H167471   4.822   0.724  15.358  3.2094  1.3676 -0.7303
15352TIP3    H267472   4.939   0.648  15.416  0.1245 -0.8840  2.7554
15353TIP3   OH267473   1.981   0.841  15.150  0.4350  0.0835 -0.2335
15353TIP3    H167474   1.974   0.885  15.234  0.2189 -1.3618  0.5353
15353TIP3    H267475   2.065   0.794  15.154  0.7843  0.6226 -1.1248
15354TIP3   OH267476   1.335   3.148   4.791 -0.5951 -0.0824  0.4757
15354TIP3    H167477   1.254   3.194   4.766 -1.3578 -1.3320  0.6188
15354TIP3    H267478   1.315   3.056   4.777  1.6128 -0.2626 -1.7577
15355TIP3   OH267479   3.143   2.912   6.050  0.2110  0.1280 -0.3641
15355TIP3    H167480   3.094   2.985   6.087  0.6277  1.5514 -2.5357
15355TIP3    H267481   3.171   2.860   6.125 -0.9626  1.6404  1.1323
15356TIP3   OH267482   3.532   3.267   2.889 -0.1414 -0.3288  0.2128
15356TIP3    H167483   3.621   3.237   2.910  1.3732  2.4903 -1.9598
15356TIP3    H267484   3.509   3.221   2.808  0.5871  1.2835 -0.9215
15357TIP3   OH267485   0.680   4.003   4.667  0.4929 -0.2102  0.6198
15357TIP3    H167486   0.748   4.063   4.700  0.4616 -0.9733  2.1058
15357TIP3    H267487   0.607   4.014   4.728 -0.0729 -0.6615  0.0256
15358TIP3   OH267488   2.949   3.163   4.252 -0.0053  0.4284 -0.1212
15358TIP3    H167489   3.020   3.198   4.199 -0.4120 -0.7221 -1.4470
15358TIP3    H267490   2.967   3.070   4.259 -1.8530 -0.0480 -1.2562
15359TIP3   OH267491   0.916   5.888  13.596 -0.3147  0.0911  0.6751
15359TIP3    H167492   1.000   5.850  13.624  0.6554  1.4313 -0.3399
15359TIP3    H267493   0.872   5.816  13.551  0.2215 -0.6781  1.3650
15360TIP3   OH267494   6.045   0.558  12.545  0.4120 -0.2811 -0.3376
15360TIP3    H167495   6.011   0.480  12.588  1.3609 -0.7577 -0.4550
15360TIP3    H267496   5.977   0.625  12.560  1.1283 -0.1734  2.7008
15361TIP3   OH267497   5.343   2.994  11.872 -0.2446  1.0986 -0.7825
15361TIP3    H167498   5.416   3.032  11.824 -0.0882 -1.0269 -2.3206
15361TIP3    H267499   5.364   3.010  11.964  1.8924  1.0175 -1.2286
15362TIP3   OH267500   3.668   4.823   3.897 -0.3748 -0.2498  0.4691
15362TIP3    H167501   3.652   4.853   3.986 -0.9730 -1.7127  0.8587
15362TIP3    H267502   3.756   4.854   3.877 -0.6760  1.0792  1.1447
15363TIP3   OH267503   5.669   4.704   1.054  0.3072  0.7082  0.2542
15363TIP3    H167504   5.727   4.755   0.997  0.5275 -1.4360 -1.5077
15363TIP3    H267505   5.581   4.732   1.029  0.4287  0.3076 -0.6577
15364TIP3   OH267506   6.602   1.233  16.537  0.0336 -0.4208  0.6272
15364TIP3    H167507   6.507   1.240  16.521 -0.1149 -0.7781  1.3182
15364TIP3    H267508   6.632   1.167  16.475 -0.0122  0.3339 -0.2023
15365TIP3   OH267509   4.180   0.169   2.127 -0.6423 -0.4663  0.0243
15365TIP3    H167510   4.211   0.258   2.115 -2.2781  0.0684 -0.3410
15365TIP3    H267511   4.151   0.141   2.040  2.0134 -2.2081 -0.3467
15366TIP3   OH267512   2.009   5.988  16.077 -0.1786 -0.0527 -0.4136
15366TIP3    H167513   1.926   5.956  16.041 -1.1999  1.2789  0.7144
15366TIP3    H267514   1.984   6.062  16.132  1.4909 -1.1682  1.9311
15367TIP3   OH267515   1.252   4.692   3.047 -0.8541  0.0129  0.4099
15367TIP3    H167516   1.164   4.698   3.084 -0.7972  1.2405  0.3519
15367TIP3    H267517   1.309   4.679   3.123 -1.0216 -0.2099  0.4982
15368TIP3   OH267518   4.683   3.889   1.484  0.2582 -0.0110  0.3918
15368TIP3    H167519   4.669   3.799   1.456  0.0040  0.0925  0.1823
15368TIP3    H267520   4.765   3.915   1.441 -0.9843  0.6883 -1.6172
15369TIP3   OH267521   2.972   4.061   0.309 -0.3733 -0.3158 -0.4757
15369TIP3    H167522   2.968   4.151   0.279  0.5499  0.3150  1.2046
15369TIP3    H267523   2.969   4.008   0.229 -0.3478  1.2161 -1.4989
15370TIP3   OH267524   4.859   1.048   5.667  0.1739  0.0126  0.5092
15370TIP3    H167525   4.807   1.095   5.602  2.1315  0.9466 -0.3983
15370TIP3    H267526   4.861   1.105   5.743  1.3167  0.7609 -0.0731
15371TIP3   OH267527   3.315   0.717  11.295 -0.3531 -0.0994  0.0368
15371TIP3    H167528   3.396   0.678  11.329  0.3069  1.7919  0.7147
15371TIP3    H267529   3.308   0.684  11.206  2.2894  1.2992 -0.7456
15372TIP3   OH267530   3.340   3.689   5.572  0.2010  0.1692  0.4034
15372TIP3    H167531   3.385   3.657   5.494 -0.2338 -0.6110  0.4680
15372TIP3    H267532   3.281   3.757   5.540 -0.0597 -0.2302  0.0463
15373TIP3   OH267533   3.229   5.880  15.918 -0.6308 -0.4091 -0.1927
15373TIP3    H167534   3.161   5.886  15.851  0.5478 -1.6679 -1.5149
15373TIP3    H267535   3.234   5.786  15.938  0.0431 -0.2080  0.6014
15374TIP3   OH267536   1.616   3.913   1.727  0.2128  0.1235 -0.3988
15374TIP3    H167537   1.608   3.958   1.642 -1.5167 -0.3101 -0.4919
15374TIP3    H267538   1.626   3.820   1.704 -0.3116 -0.0004 -0.1392
15375TIP3   OH267539   3.228   5.126  16.822  0.5472  0.0511 -0.6604
15375TIP3    H167540   3.251   5.083  16.739 -3.4417  0.6727 -2.2006
15375TIP3    H267541   3.277   5.208  16.821  0.0528  0.3441 -2.7413
15376TIP3   OH267542   2.941   5.760  14.492 -0.5209  0.0050 -0.1349
15376TIP3    H167543   3.017   5.702  14.487 -0.9528 -0.6589  0.7775
15376TIP3    H267544   2.865   5.702  14.483 -0.9794  0.3050  1.5397
15377TIP3   OH267545   3.766   2.354   0.711  0.0927  0.2285  0.3329
15377TIP3    H167546   3.707   2.310   0.773 -0.2577  0.3276  0.0753
15377TIP3    H267547   3.803   2.427   0.762 -0.5412  0.5828  0.3017
15378TIP3   OH267548   4.907   2.427  12.682  0.5757  0.5183 -0.2054
15378TIP3    H167549   4.934   2.442  12.592 -2.0209 -0.1039 -1.1281
15378TIP3    H267550   4.862   2.508  12.707  0.8835  0.5117  0.4001
15379TIP3   OH267551   3.171   5.564   4.960 -0.1963 -0.4334 -0.3676
15379TIP3    H167552   3.261   5.568   4.927 -0.2349  1.3509 -0.2895
15379TIP3    H267553   3.181   5.541   5.052  0.2541  0.8439 -0.0865
15380TIP3   OH267554   4.260   4.621  11.713 -0.5257  0.2440  0.5693
15380TIP3    H167555   4.298   4.647  11.630  0.2489  0.7148  1.0627
15380TIP3    H267556   4.236   4.529  11.701 -1.2627  0.5594 -0.4645
15381TIP3   OH267557   0.320   5.074  12.055 -0.6540 -0.5289 -0.1081
15381TIP3    H167558   0.255   5.032  12.110 -0.9021  0.1455  0.1226
15381TIP3    H267559   0.302   5.043  11.966 -1.1358 -0.5328 -0.0069
15382TIP3   OH267560   0.369   2.595   0.535  0.0957 -0.2784 -0.5955
15382TIP3    H167561   0.368   2.680   0.579 -0.1540 -0.1348 -0.8759
15382TIP3    H267562   0.291   2.596   0.480 -0.7475 -1.2966  0.5558
15383TIP3   OH267563   3.848   4.370   1.782 -0.1928  0.0112  0.0840
15383TIP3    H167564   3.810   4.303   1.725 -2.4575  1.8330 -0.6539
15383TIP3    H267565   3.810   4.352   1.869 -0.5388  0.1338 -0.0409
15384TIP3   OH267566   1.921   3.049   2.711 -0.5012  0.0372  0.1563
15384TIP3    H167567   1.927   3.131   2.761  3.3663  0.3772 -0.7220
15384TIP3    H267568   1.931   2.980   2.776 -2.0297  0.3040  0.6792
15385TIP3   OH267569   1.701   0.979  13.466  0.0789  0.5122  0.0194
15385TIP3    H167570   1.759   0.903  13.466 -2.2974 -1.3378  1.1535
15385TIP3    H267571   1.613   0.943  13.478 -1.4068  3.2218 -2.1645
15386TIP3   OH267572   3.785   5.920  12.663 -0.2036 -0.0124  0.1242
15386TIP3    H167573   3.801   5.905  12.570 -0.3232  1.3416 -0.1365
15386TIP3    H267574   3.788   5.834  12.703 -2.2741 -0.8654 -1.4622
15387TIP3   OH267575   4.852   5.753  13.063 -0.1126  0.1342 -0.3576
15387TIP3    H167576   4.870   5.795  12.979 -3.0431 -0.6200 -1.4371
15387TIP3    H267577   4.784   5.688  13.043 -0.7613 -0.1661  2.5799
15388TIP3   OH267578   6.508   0.761   4.091 -0.0293  0.2384 -0.2043
15388TIP3    H167579   6.452   0.686   4.114  1.5082 -0.5864  0.9459
15388TIP3    H267580   6.503   0.766   3.995 -1.3815 -0.3420 -0.1805
15389TIP3   OH267581   1.206   1.393   0.785  0.6763 -0.3240 -0.0703
15389TIP3    H167582   1.225   1.401   0.878  0.0070  2.7746 -0.1531
15389TIP3    H267583   1.137   1.326   0.781  0.8814 -0.6685  1.6129
15390TIP3   OH267584   1.351   6.513   2.186 -0.5334 -0.2242  0.0113
15390TIP3    H167585   1.390   6.464   2.113 -2.1255 -0.6722 -0.5724
15390TIP3    H267586   1.381   6.604   2.172  2.9180 -1.0612  1.4435
15391TIP3   OH267587   3.298   2.766  10.570  0.4228  0.1183  0.0333
15391TIP3    H167588   3.354   2.820  10.514  2.3067 -1.3538  0.4018
15391TIP3    H267589   3.285   2.685  10.520  1.5445 -0.9285  1.3945
15392TIP3   OH267590   5.894   3.427  14.394 -0.2473  0.6041 -0.5596
15392TIP3    H167591   5.971   3.452  14.445 -0.5247  2.6039 -1.0672
15392TIP3    H267592   5.927   3.363  14.330  0.3627 -0.8825  1.2071
15393TIP3   OH267593   4.961   0.537   3.668  0.0415 -0.1121 -0.3852
15393TIP3    H167594   4.947   0.490   3.750  1.9497  1.2990  0.8000
15393TIP3    H267595   4.886   0.515   3.614 -1.0424 -1.3923  1.6043
15394TIP3   OH267596   5.359   6.317   6.252 -0.8506  0.3849 -0.3875
15394TIP3    H167597   5.414   6.239   6.251 -0.4136  0.6764  0.4041
15394TIP3    H267598   5.422   6.390   6.254 -1.2747  0.7025  1.9672
15395TIP3   OH267599   4.358   5.908   3.644  0.1435 -0.0724  0.0175
15395TIP3    H167600   4.279   5.962   3.649  1.1281  1.3678  0.6871
15395TIP3    H267601   4.333   5.824   3.682 -0.8668  0.6255  0.9220
15396TIP3   OH267602   1.323   0.730  14.832  0.2685 -0.0143 -0.7895
15396TIP3    H167603   1.292   0.710  14.920  1.7924 -0.1202 -0.2785
15396TIP3    H267604   1.326   0.645  14.788  2.0711 -0.3195 -0.1101
15397TIP3   OH267605   5.738   1.389   1.116  0.0569 -0.2026 -0.2341
15397TIP3    H167606   5.690   1.443   1.053 -0.4642 -0.3778  0.0025
15397TIP3    H267607   5.683   1.391   1.195  0.5083 -0.3023  0.0841
15398TIP3   OH267608   1.812   3.944   0.774  0.0920  0.0980 -0.1410
15398TIP3    H167609   1.882   3.922   0.835 -0.7740 -0.7595  0.5634
15398TIP3    H267610   1.822   3.882   0.702 -1.7781 -2.0765  1.4026
15399TIP3   OH267611   1.998   0.049   3.628  0.4349  0.2461  0.2409
15399TIP3    H167612   2.060   0.113   3.594 -0.9105  1.2585 -0.3636
15399TIP3    H267613   2.021  -0.033   3.585  1.9603  0.3835  0.7672
15400TIP3   OH267614   3.560   2.360  13.201 -0.3529 -0.1227 -0.2450
15400TIP3    H167615   3.507   2.371  13.281  1.3639  0.3470  0.8518
15400TIP3    H267616   3.543   2.440  13.151 -1.1322 -0.2392 -0.1756
15401TIP3   OH267617   1.785   1.060   5.593 -0.0932  0.0566 -0.5147
15401TIP3    H167618   1.753   1.013   5.670 -0.1434 -0.3457 -0.7826
15401TIP3    H267619   1.807   1.148   5.626 -0.7814  0.1053 -0.1878
15402TIP3   OH267620   3.738   2.243   6.621 -0.0048 -0.4087 -0.0668
15402TIP3    H167621   3.812   2.189   6.649  0.2795  1.0695  2.1868
15402TIP3    H267622   3.774   2.300   6.553  1.4897  1.5566  2.2602
15403TIP3   OH267623   3.389   5.791   4.304  0.4186  0.1815 -0.1152
15403TIP3    H167624   3.425   5.849   4.237  0.9728  0.7206  0.6388
15403TIP3    H267625   3.339   5.850   4.361  0.3994 -0.1922  0.2533
15404TIP3   OH267626   0.254   3.032  16.005  0.0056  0.0656  0.3282
15404TIP3    H167627   0.301   3.070  15.931 -0.4051 -1.2104 -0.6020
15404TIP3    H267628   0.312   3.047  16.080  1.1931 -0.1380 -0.5284
15405TIP3   OH267629   4.138   0.517   5.273 -0.2171 -0.3719 -0.0970
15405TIP3    H167630   4.223   0.503   5.231 -0.2343  0.1533 -0.3111
15405TIP3    H267631   4.083   0.445   5.239  0.1962 -0.8268  0.1993
15406TIP3   OH267632   3.755   1.879  16.585 -0.2381  0.0615  0.5087
15406TIP3    H167633   3.748   1.972  16.564 -0.1587 -0.5034 -2.2661
15406TIP3    H267634   3.848   1.865  16.600 -0.0503  0.1755 -0.4934
15407TIP3   OH267635   0.256   1.677  13.686  1.0244  0.7085 -0.2559
15407TIP3    H167636   0.264   1.740  13.758  1.9715 -0.7035  0.8990
15407TIP3    H267637   0.163   1.656  13.683  0.7172  2.0175 -0.5470
15408TIP3   OH267638   5.967   1.603  12.183 -0.0619 -0.6621 -0.5745
15408TIP3    H167639   5.885   1.554  12.194 -1.2057  1.3308  0.0910
15408TIP3    H267640   6.021   1.547  12.127 -3.1101 -0.5924 -3.7833
15409TIP3   OH267641   2.269   0.688   6.041  0.1415  0.0656  0.1604
15409TIP3    H167642   2.200   0.620   6.045 -1.5159  1.8450  3.7954
15409TIP3    H267643   2.348   0.643   6.071 -0.4470 -0.8630  0.3607
15410TIP3   OH267644   4.038   4.135   4.979  0.9966 -0.0065 -0.0712
15410TIP3    H167645   4.010   4.219   5.015 -0.2537 -0.9557  1.2170
15410TIP3    H267646   4.130   4.127   5.006  1.0507  0.8311  0.0085
15411TIP3   OH267647   1.896   4.210   6.400  0.2227 -0.0440  0.2115
15411TIP3    H167648   1.853   4.194   6.484  0.2998  1.7494  0.6068
15411TIP3    H267649   1.825   4.236   6.341  0.6020  2.0492  0.6339
15412TIP3   OH267650   0.100   2.085  14.221  0.0859  0.0500 -0.5452
15412TIP3    H167651   0.098   2.180  14.235 -0.4747 -0.1917  1.1283
15412TIP3    H267652   0.153   2.051  14.293  0.6398 -0.8784 -1.3758
15413TIP3   OH267653   4.772   6.678   3.222 -0.3426 -0.1832  0.2371
15413TIP3    H167654   4.765   6.659   3.315  1.1471  1.3116  0.6916
15413TIP3    H267655   4.821   6.605   3.185 -2.1249 -1.4605  0.3562
15414TIP3   OH267656   1.311   4.044  16.910 -0.1711  0.2803 -0.3720
15414TIP3    H167657   1.312   4.129  16.952  1.7656 -1.0460  2.4163
15414TIP3    H267658   1.340   4.061  16.820 -0.0099  2.5689  0.0953
15415TIP3   OH267659   0.257   6.426  14.779 -0.1149  0.2394 -0.4294
15415TIP3    H167660   0.353   6.420  14.777 -0.1035 -0.2771  1.0716
15415TIP3    H267661   0.238   6.516  14.751  0.7993  0.2261 -1.0868
15416TIP3   OH267662   3.796   2.327   2.611  0.3927  0.1055 -0.2489
15416TIP3    H167663   3.704   2.348   2.599  0.0402 -1.7902 -0.9862
15416TIP3    H267664   3.816   2.358   2.700 -1.2354 -0.3757  0.3096
15417TIP3   OH267665   2.365   2.455  11.220  0.3711 -0.5498 -0.1298
15417TIP3    H167666   2.296   2.458  11.286 -1.7633  0.0392 -2.3307
15417TIP3    H267667   2.369   2.544  11.185  0.0012 -1.3301 -2.2337
15418TIP3   OH267668   3.557   5.127  10.892  0.0122  0.2115  0.0682
15418TIP3    H167669   3.531   5.078  10.815  0.8512  0.0055 -0.0931
15418TIP3    H267670   3.516   5.213  10.881  1.8381  0.9104 -1.6806
15419TIP3   OH267671   5.638   5.151  11.183 -0.4484 -0.8401  0.4387
15419TIP3    H167672   5.649   5.075  11.126 -1.3690 -0.5411 -0.1518
15419TIP3    H267673   5.608   5.221  11.124 -1.0952 -0.4403  1.2235
15420TIP3   OH267674   5.448   3.412   3.754 -0.0317  0.2597  0.0898
15420TIP3    H167675   5.438   3.380   3.664 -0.7189  0.1401  0.2018
15420TIP3    H267676   5.490   3.497   3.744 -3.7821  2.1581 -0.6970
15421TIP3   OH267677   1.137   2.866   1.154 -0.0777  0.3896  0.2245
15421TIP3    H167678   1.179   2.797   1.102  0.3390  1.3537 -0.7516
15421TIP3    H267679   1.057   2.888   1.106 -1.7462 -1.4350  2.0799
15422TIP3   OH267680   0.461   3.033   5.628  0.2254 -0.2830  0.1460
15422TIP3    H167681   0.507   2.956   5.664 -1.0414 -0.1869  2.0456
15422TIP3    H267682   0.368   3.011   5.637 -0.1489  1.4972  0.8108
15423TIP3   OH267683   4.213   1.225   3.095 -0.1333  0.2373 -0.1643
15423TIP3    H167684   4.269   1.147   3.096  1.2629  1.1753 -2.0267
15423TIP3    H267685   4.155   1.213   3.170  2.2559 -0.9924  1.5783
15424TIP3   OH267686   6.238   2.770  12.562  0.4023  0.2472 -0.1300
15424TIP3    H167687   6.252   2.711  12.637  1.1166  1.3532  0.6301
15424TIP3    H267688   6.168   2.829  12.591 -1.1732 -0.9989 -1.3579
15425TIP3   OH267689   4.114   3.093  15.637 -0.1253 -1.0637  0.3421
15425TIP3    H167690   4.190   3.141  15.606 -0.3651 -0.2083  1.0424
15425TIP3    H267691   4.144   3.050  15.717 -0.0689 -1.6042  0.0247
15426TIP3   OH267692   6.386   3.698  15.483  0.3936 -0.2483  0.2952
15426TIP3    H167693   6.466   3.727  15.440  0.8502 -1.0279  0.6167
15426TIP3    H267694   6.371   3.763  15.552 -1.0934  1.7896 -1.8600
15427TIP3   OH267695   3.834   5.681   1.119  0.2254  0.4119  0.4295
15427TIP3    H167696   3.793   5.718   1.041  3.9296  2.9379 -0.4584
15427TIP3    H267697   3.772   5.700   1.190 -0.7147  3.0052 -1.0360
15428TIP3   OH267698   3.556   3.124  12.231 -0.4664 -0.0536  0.0549
15428TIP3    H167699   3.609   3.140  12.309  1.2389  0.2482 -1.1458
15428TIP3    H267700   3.602   3.168  12.161 -2.4570  0.4234 -0.9996
15429TIP3   OH267701   3.476   0.122  10.987  0.4432 -0.3933  0.1774
15429TIP3    H167702   3.457   0.055  10.921 -0.6474  0.3974 -0.3311
15429TIP3    H267703   3.402   0.116  11.047 -0.1417  0.9819 -0.3876
15430TIP3   OH267704   2.823   1.291   3.384  0.0577  0.1918  0.3909
15430TIP3    H167705   2.914   1.264   3.402  0.4679  0.5331 -1.1087
15430TIP3    H267706   2.809   1.269   3.292 -0.9687  1.2931  0.2707
15431TIP3   OH267707   1.437   3.223   4.496  0.0896  0.5534  0.4564
15431TIP3    H167708   1.408   3.252   4.410  0.0857 -0.0648  0.2508
15431TIP3    H267709   1.395   3.284   4.557 -0.3340  0.6567  0.0590
15432TIP3   OH267710   0.245   1.536  11.413 -0.1349 -0.4019  0.2751
15432TIP3    H167711   0.304   1.500  11.347  0.8280  1.1309  0.2678
15432TIP3    H267712   0.158   1.527  11.374  0.0689 -2.6392  0.2635
15433TIP3   OH267713   3.050   0.051   6.478  0.9414  0.0649  0.7514
15433TIP3    H167714   3.100  -0.023   6.513  1.0117 -0.0822  0.3398
15433TIP3    H267715   2.964   0.043   6.520  0.4212 -1.1971 -0.5185
15434TIP3   OH267716   2.363   4.991  12.289 -0.4755  0.3334  0.2928
15434TIP3    H167717   2.373   4.952  12.203  1.4073 -0.4543  0.8400
15434TIP3    H267718   2.408   5.075  12.283  1.1049 -0.4567  0.9780
15435TIP3   OH267719   2.542   5.863   3.616 -0.0428 -0.9790 -0.7906
15435TIP3    H167720   2.615   5.860   3.554 -1.1846 -0.5066 -2.1901
15435TIP3    H267721   2.494   5.942   3.592 -0.9246 -1.2024  0.2266
15436TIP3   OH267722   4.141   6.332  16.038  0.4383  0.1053 -0.0250
15436TIP3    H167723   4.152   6.265  15.971  0.9250 -0.7639  0.8948
15436TIP3    H267724   4.075   6.392  16.003 -1.8417 -2.1862  0.1231
15437TIP3   OH267725   3.370   5.356  16.799 -1.0446 -0.1439  0.8229
15437TIP3    H167726   3.344   5.413  16.726  0.9003  1.8582  1.6416
15437TIP3    H267727   3.393   5.417  16.869  0.7842 -1.9735  1.8376
15438TIP3   OH267728   3.171   6.348  11.923 -0.1295 -0.1534  0.1686
15438TIP3    H167729   3.175   6.253  11.916 -0.7985 -0.2171  0.6165
15438TIP3    H267730   3.114   6.375  11.851 -0.2369 -0.1211  0.2659
15439TIP3   OH267731   0.131   5.984   4.105 -0.3270  0.0864 -0.2352
15439TIP3    H167732   0.166   6.067   4.071 -1.0177  0.4619 -0.0434
15439TIP3    H267733   0.149   5.988   4.199  1.5211 -0.9198 -0.5314
15440TIP3   OH267734   3.245   5.620   1.358  0.0478  0.3696  0.3303
15440TIP3    H167735   3.242   5.713   1.333  0.0750 -0.5167 -3.2039
15440TIP3    H267736   3.153   5.594   1.366  0.0287  1.0913  3.1841
15441TIP3   OH267737   1.299   4.686  17.197 -0.5082  0.7762  0.3937
15441TIP3    H167738   1.380   4.642  17.169 -0.7271  1.4512 -1.3247
15441TIP3    H267739   1.234   4.616  17.200 -0.2702  0.5398  0.0915
15442TIP3   OH267740   0.522   4.332  11.531  0.4817  0.1070 -0.0720
15442TIP3    H167741   0.553   4.414  11.568  0.7038 -0.1117  0.2226
15442TIP3    H267742   0.556   4.332  11.441 -0.4525  0.8528 -0.4328
15443TIP3   OH267743   4.231   4.084   2.537  0.0611  0.0580 -0.0448
15443TIP3    H167744   4.190   4.002   2.506 -0.4203 -0.0498  0.8558
15443TIP3    H267745   4.320   4.058   2.561 -0.7279 -0.6502  2.2019
15444TIP3   OH267746   2.513   5.843   3.947  0.4108  0.0039 -0.1470
15444TIP3    H167747   2.525   5.891   3.865  1.4705 -0.1284 -0.0666
15444TIP3    H267748   2.512   5.911   4.014  0.0406  0.0679 -0.2135
15445TIP3   OH267749   2.145   1.680   6.018 -0.2664 -0.0869  0.0539
15445TIP3    H167750   2.110   1.645   5.936 -1.7165  0.0348  0.6053
15445TIP3    H267751   2.086   1.751   6.041 -0.1758 -0.4508  1.4679
15446TIP3   OH267752   1.812   0.509  13.335  0.5336  0.0363 -0.7984
15446TIP3    H167753   1.851   0.445  13.394 -0.0681 -0.8562 -1.3695
15446TIP3    H267754   1.887   0.557  13.299  1.0177 -0.7218 -0.8090
15447TIP3   OH267755   0.222   4.472   5.524  0.0741  0.0165  0.2330
15447TIP3    H167756   0.287   4.526   5.568  0.3349 -0.9570  1.0733
15447TIP3    H267757   0.187   4.415   5.593 -3.0924  1.8473  0.2226
15448TIP3   OH267758   4.882   4.257   0.509 -0.0085  0.2984 -0.2511
15448TIP3    H167759   4.805   4.283   0.458  0.4192  0.9175 -0.5916
15448TIP3    H267760   4.940   4.215   0.445 -0.3804 -0.8559  0.1535
15449TIP3   OH267761   0.845   0.693  13.250  0.5646 -0.5532  0.0080
15449TIP3    H167762   0.820   0.727  13.335  0.2185 -1.1107  0.1363
15449TIP3    H267763   0.940   0.683  13.254  0.4491 -1.4873  0.6725
15450TIP3   OH267764   6.100   3.755   0.801 -0.1278 -0.0870 -0.1600
15450TIP3    H167765   6.187   3.733   0.768 -0.3227 -0.9254 -0.1308
15450TIP3    H267766   6.050   3.674   0.791 -0.9179  0.4089 -0.2268
15451TIP3   OH267767   5.598   6.274  11.495 -0.9722  0.7926 -0.5106
15451TIP3    H167768   5.509   6.274  11.461 -0.9080  0.6304 -0.6777
15451TIP3    H267769   5.588   6.271  11.590 -1.1588  1.5482 -0.5001
15452TIP3   OH267770   6.745   4.583  17.010 -0.0469  0.2430 -0.1120
15452TIP3    H167771   6.832   4.598  17.048  0.2133 -0.0363 -0.5941
15452TIP3    H267772   6.692   4.552  17.083  0.5148 -0.5104 -0.0209
15453TIP3   OH267773   1.620   2.991   5.171 -0.2745  0.3173  0.0776
15453TIP3    H167774   1.544   2.959   5.123 -1.0331  2.1365  0.0323
15453TIP3    H267775   1.589   3.070   5.216  0.8070 -0.5135  2.3908
15454TIP3   OH267776   5.945   4.978  11.082 -0.3729 -0.1811 -0.2426
15454TIP3    H167777   6.003   4.953  11.154  2.7141 -0.5226 -2.7768
15454TIP3    H267778   5.891   4.900  11.067 -1.5753  0.1463  2.1460
15455TIP3   OH267779   2.536   2.622  16.863 -0.2392  0.7397  0.4059
15455TIP3    H167780   2.446   2.610  16.834 -0.0078  1.3184 -0.5778
15455TIP3    H267781   2.586   2.559  16.810 -0.3221 -1.0872  2.4349
15456TIP3   OH267782   6.474   1.288  11.808  0.2060 -0.4123 -0.2115
15456TIP3    H167783   6.537   1.334  11.753 -0.0350  0.1993  0.0190
15456TIP3    H267784   6.438   1.219  11.751 -0.2478  0.3941 -0.9175
15457TIP3   OH267785   5.370   3.252   1.154  0.6985 -0.2580 -0.1711
15457TIP3    H167786   5.398   3.167   1.189  0.1108 -0.3624  0.0473
15457TIP3    H267787   5.451   3.294   1.127  1.1776 -0.1864  1.3045
15458TIP3   OH267788   4.809   2.762   2.362  0.0078 -0.4689 -0.5784
15458TIP3    H167789   4.718   2.732   2.372  0.4577 -1.5777  0.1940
15458TIP3    H267790   4.855   2.725   2.437  0.9698  0.6409 -0.6129
15459TIP3   OH267791   4.188   1.683  16.211 -0.4745  0.3418 -0.1653
15459TIP3    H167792   4.224   1.606  16.166 -1.7021 -0.6246  0.4798
15459TIP3    H267793   4.264   1.730  16.243  0.2379 -2.0157  1.7624
15460TIP3   OH267794   6.015   1.620  12.478  0.1009  0.2628  0.5946
15460TIP3    H167795   6.080   1.676  12.435 -0.9109  2.8551  2.3724
15460TIP3    H267796   5.970   1.576  12.406  3.3800 -1.1401 -0.7069
15461TIP3   OH267797   0.484   4.033   4.861  0.0264  0.3662  0.6539
15461TIP3    H167798   0.502   3.961   4.921  1.2019 -0.5629 -0.7639
15461TIP3    H267799   0.399   4.011   4.823  0.7120 -0.6724 -0.3099
15462TIP3   OH267800   4.527   2.648   0.533 -0.2936 -0.2238  0.2100
15462TIP3    H167801   4.573   2.618   0.454 -0.5853 -1.6612  0.5804
15462TIP3    H267802   4.595   2.691   0.584  0.5168 -1.7091  0.4259
15463TIP3   OH267803   3.204   2.116   3.311  0.4247  0.7261 -0.4694
15463TIP3    H167804   3.204   2.036   3.363  0.6667  0.5786 -0.6936
15463TIP3    H267805   3.230   2.185   3.372 -0.5490  0.7674 -0.0799
15464TIP3   OH267806   0.711   3.500   4.610 -0.2225  0.1258  0.3911
15464TIP3    H167807   0.655   3.497   4.532 -0.6360  2.6304  0.5521
15464TIP3    H267808   0.799   3.477   4.577 -0.9286 -1.7998 -0.2283
15465TIP3   OH267809   4.305   2.346  12.804  0.4885 -0.0190  0.2716
15465TIP3    H167810   4.300   2.265  12.753  0.1435  0.8107 -1.0036
15465TIP3    H267811   4.399   2.363  12.812  0.4892  1.3886 -2.5244
15466TIP3   OH267812   3.272   0.868  14.989 -0.2079 -0.3042  0.4023
15466TIP3    H167813   3.324   0.862  14.908 -1.1850 -0.8851 -0.2026
15466TIP3    H267814   3.214   0.792  14.985 -1.2746  0.4780  0.9433
15467TIP3   OH267815   4.158   0.964  15.446  0.4903 -0.1228  0.4076
15467TIP3    H167816   4.240   0.921  15.471  1.2963  2.7223  2.9237
15467TIP3    H267817   4.090   0.905  15.478  1.5348 -1.5000  0.1582
15468TIP3   OH267818   4.088   3.112   1.217  0.2457  0.5567 -0.9293
15468TIP3    H167819   4.032   3.035   1.219 -0.0222  0.7611  2.8138
15468TIP3    H267820   4.026   3.186   1.212  0.2907  0.6434 -0.3295
15469TIP3   OH267821   4.487   4.507  14.455 -0.2229  0.2433  0.0524
15469TIP3    H167822   4.436   4.452  14.514  1.5357 -2.2501 -0.6815
15469TIP3    H267823   4.488   4.460  14.372 -0.5495  2.4963 -1.2840
15470TIP3   OH267824   3.891   1.441   5.505 -0.2805  0.0490  0.1640
15470TIP3    H167825   3.861   1.353   5.527 -0.8398  0.2197  0.1093
15470TIP3    H267826   3.906   1.439   5.410 -0.5118  0.0686  0.1243
15471TIP3   OH267827   2.397   5.230   0.362 -0.0897  0.1269  0.1898
15471TIP3    H167828   2.431   5.160   0.417  1.5294  0.0689 -0.8493
15471TIP3    H267829   2.395   5.193   0.274  1.3485  1.5651 -0.4689
15472TIP3   OH267830   3.072   1.077  13.915 -0.1961 -0.3383  0.0916
15472TIP3    H167831   2.992   1.098  13.868  2.1053  1.1710 -3.3610
15472TIP3    H267832   3.084   0.983  13.900 -1.3255 -0.5931  0.7129
15473TIP3   OH267833   2.997   2.644  11.291 -0.1187  0.2459 -0.1132
15473TIP3    H167834   3.001   2.563  11.241  1.8391 -0.5421  1.2424
15473TIP3    H267835   2.911   2.681  11.271  0.6244  0.0167 -4.0617
15474TIP3   OH267836   1.442   1.688   3.184 -0.5226  0.1748 -0.1525
15474TIP3    H167837   1.528   1.652   3.204 -1.3960 -0.9596  1.6397
15474TIP3    H267838   1.456   1.741   3.105  1.6517 -0.5785 -0.2968
15475TIP3   OH267839   3.028   2.604  10.985 -0.3950 -0.0455 -0.1528
15475TIP3    H167840   3.107   2.628  10.937  0.8090 -1.7006  0.9538
15475TIP3    H267841   2.972   2.682  10.979  2.0463  1.8434  0.6318
15476TIP3   OH267842   0.296   4.501   4.626  0.7550  0.5852 -0.2303
15476TIP3    H167843   0.385   4.464   4.622  0.4503 -0.0459 -1.2829
15476TIP3    H267844   0.302   4.582   4.576  0.5997  0.2620 -0.7701
15477TIP3   OH267845   3.696   3.890  16.415  0.0548 -0.2228 -0.0708
15477TIP3    H167846   3.700   3.813  16.358 -1.3981 -0.1469 -0.2860
15477TIP3    H267847   3.611   3.883  16.458 -0.6534  1.9803 -1.0764
15478TIP3   OH267848   5.260   4.346  13.296  0.0271 -0.2493 -0.0598
15478TIP3    H167849   5.222   4.422  13.252 -0.4747 -1.4578 -1.7650
15478TIP3    H267850   5.304   4.297  13.226  1.1883 -1.0239  1.1848
15479TIP3   OH267851   6.722   3.682  11.771  0.1376 -0.0060  0.1945
15479TIP3    H167852   6.657   3.652  11.834 -1.1397  1.2434 -0.5082
15479TIP3    H267853   6.685   3.661  11.685  0.8256  0.3660 -0.1983
15480TIP3   OH267854   6.413   2.989  16.861  0.5974 -0.0121  0.4603
15480TIP3    H167855   6.318   2.977  16.860  0.3989  1.2613  1.6621
15480TIP3    H267856   6.444   2.929  16.929  0.4316  0.8271  1.3005
15481TIP3   OH267857   3.392   4.380   0.061 -0.4738  0.8962 -0.6117
15481TIP3    H167858   3.373   4.360   0.153  1.4030 -4.0919 -1.1298
15481TIP3    H267859   3.309   4.412   0.026 -1.8227  0.7722  2.2855
15482TIP3   OH267860   4.985   2.381  16.768 -0.1138 -0.4914 -0.0565
15482TIP3    H167861   4.907   2.332  16.744  0.0050 -0.6718 -0.0781
15482TIP3    H267862   4.954   2.470  16.785 -0.0481 -0.0660 -1.9961
15483TIP3   OH267863   4.794   2.433   4.088 -0.6713 -0.2925  0.2064
15483TIP3    H167864   4.804   2.342   4.061 -0.1640 -0.3110  0.4520
15483TIP3    H267865   4.755   2.429   4.175  1.0031 -0.3323  0.9808
15484TIP3   OH267866   0.963   3.569  14.230  0.4502 -0.3482 -0.0768
15484TIP3    H167867   0.877   3.602  14.255  0.3102 -0.1408 -0.8248
15484TIP3    H267868   0.971   3.591  14.137  0.6146 -1.8472 -0.4244
15485TIP3   OH267869   4.244   5.543   1.893 -0.4650  0.4312 -0.1483
15485TIP3    H167870   4.234   5.472   1.830  0.5006  0.1111  0.0462
15485TIP3    H267871   4.338   5.562   1.893 -0.5089  0.7027  0.8919
15486TIP3   OH267872   6.641   5.829  12.646 -0.0700 -0.1128 -0.5575
15486TIP3    H167873   6.670   5.810  12.557 -1.7267 -0.8937 -0.9488
15486TIP3    H267874   6.615   5.921  12.643 -0.3720 -0.2104 -0.9445
15487TIP3   OH267875   0.807   2.595   1.644  0.1931  0.0689  0.3802
15487TIP3    H167876   0.870   2.618   1.576  1.1006  0.7754  1.4648
15487TIP3    H267877   0.814   2.500   1.651 -0.1105 -0.0472 -0.7001
15488TIP3   OH267878   3.841   5.278  13.855  0.1025  0.6619 -0.6713
15488TIP3    H167879   3.893   5.348  13.895 -0.1958  1.1121 -1.0669
15488TIP3    H267880   3.791   5.321  13.786  1.0925 -0.2381 -1.9729
15489TIP3   OH267881   1.071   1.852  13.300 -0.2172  0.6458  0.1809
15489TIP3    H167882   0.982   1.846  13.267 -0.4835 -0.0025  0.9919
15489TIP3    H267883   1.074   1.933  13.350  0.1836  1.6244 -1.3901
15490TIP3   OH267884   4.809   2.537   2.593  0.5184 -0.0924 -0.4512
15490TIP3    H167885   4.786   2.475   2.524  0.9843 -1.0878  0.2728
15490TIP3    H267886   4.905   2.537   2.595  0.5088 -0.1538  0.2618
15491TIP3   OH267887   3.260   1.905  13.477 -0.6026 -0.5311 -0.5517
15491TIP3    H167888   3.239   1.986  13.431  0.1552  0.4876  0.8656
15491TIP3    H267889   3.192   1.898  13.544 -1.5570 -1.8767 -1.6343
15492TIP3   OH267890   2.884   6.483   4.544  0.0733 -0.0818  0.2535
15492TIP3    H167891   2.891   6.549   4.476  0.2637 -0.2811  0.0770
15492TIP3    H267892   2.909   6.528   4.625  0.3398  0.0258  0.1118
15493TIP3   OH267893   4.101   5.686   0.871  0.0939 -0.6773  0.0860
15493TIP3    H167894   4.194   5.680   0.889 -0.1299 -3.1737  0.5362
15493TIP3    H267895   4.065   5.734   0.946  0.7407 -1.4258  0.8785
15494TIP3   OH267896   6.110   0.768  13.954  0.2586  0.0070 -0.3576
15494TIP3    H167897   6.187   0.802  13.999 -0.5194  0.1545  0.9011
15494TIP3    H267898   6.046   0.840  13.959 -1.9772 -2.0510  3.7627
15495TIP3   OH267899   2.996   6.736   2.271 -0.3336  0.4202  0.0716
15495TIP3    H167900   2.915   6.704   2.230 -0.6737  1.1737  0.1384
15495TIP3    H267901   3.018   6.669   2.336 -1.5885  0.7946  0.9022
15496TIP3   OH267902   5.891   0.008   3.101 -0.1223  0.0970  0.1820
15496TIP3    H167903   5.837   0.079   3.134 -1.0407  0.8069 -2.6581
15496TIP3    H267904   5.892   0.021   3.006  1.2281 -2.6129 -0.2326
15497TIP3   OH267905   5.666   3.127  13.409 -0.0960  0.3906 -0.6165
15497TIP3    H167906   5.697   3.207  13.366 -1.4841  1.5255  0.4586
15497TIP3    H267907   5.602   3.157  13.473  0.7013 -1.4206  1.1028
15498TIP3   OH267908   3.249   3.553   4.695  0.0478  0.2224  0.2169
15498TIP3    H167909   3.283   3.512   4.774  2.0297  0.6803 -0.3654
15498TIP3    H267910   3.218   3.480   4.641  1.5339 -0.3583  0.1177
15499TIP3   OH267911   0.898   0.429  13.099  0.3429 -0.7183 -0.4899
15499TIP3    H167912   0.951   0.471  13.031 -0.6218  0.6445 -0.4302
15499TIP3    H267913   0.832   0.379  13.052 -0.4963  0.4469 -0.5810
15500TIP3   OH267914   6.680   1.615   1.122  0.2409 -0.4267  0.2385
15500TIP3    H167915   6.675   1.649   1.032 -2.8112  0.7716  0.7921
15500TIP3    H267916   6.735   1.678   1.168 -0.2779  0.3706 -0.2123
15501TIP3   OH267917   0.091   4.452  10.140  0.5887 -0.2316  0.1279
15501TIP3    H167918   0.173   4.404  10.129  0.1117 -1.2833  0.9902
15501TIP3    H267919   0.027   4.384  10.163 -0.1618  0.7860  1.1013
15502TIP3   OH267920   4.309   3.952   5.532  0.0542 -0.2828 -0.1137
15502TIP3    H167921   4.355   3.956   5.616 -1.0923  2.5583  0.4177
15502TIP3    H267922   4.291   3.859   5.520  3.2030 -1.1418  1.1163
15503TIP3   OH267923   1.398   0.457   1.875 -0.1439 -0.0495 -0.3023
15503TIP3    H167924   1.484   0.460   1.834  0.0350  1.2653  0.1663
15503TIP3    H267925   1.346   0.401   1.817  1.2457 -1.5247 -0.1432
15504TIP3   OH267926   4.126   5.767  14.466  0.4263 -0.2769  0.0990
15504TIP3    H167927   4.135   5.859  14.490  0.1230  0.3209 -1.9839
15504TIP3    H267928   4.205   5.725  14.500  0.6363  0.7744  0.9397
15505TIP3   OH267929   1.806   0.652   1.567 -0.2376  0.8163 -0.2024
15505TIP3    H167930   1.807   0.739   1.606  0.4611  1.2898 -1.2601
15505TIP3    H267931   1.798   0.668   1.473 -2.9458 -0.3387 -0.1966
15506TIP3   OH267932   3.149   0.003   3.342  0.3699 -0.2044 -0.6060
15506TIP3    H167933   3.092  -0.046   3.402  0.5073 -1.0215 -1.1456
15506TIP3    H267934   3.122  -0.025   3.255  2.7668 -1.9333 -0.8304
15507TIP3   OH267935   5.456   3.747  14.166 -0.3020 -0.0973  0.2902
15507TIP3    H167936   5.420   3.658  14.170  0.8159 -0.6225 -0.9146
15507TIP3    H267937   5.400   3.792  14.103 -0.3965 -0.1856  0.3106
15508TIP3   OH267938   2.258   5.449  15.535 -0.0983  0.1598 -0.4592
15508TIP3    H167939   2.211   5.366  15.530  1.3465 -0.5696 -2.8502
15508TIP3    H267940   2.346   5.425  15.564 -0.2855  1.1289  0.9390
15509TIP3   OH267941   2.593   5.265   1.750  0.1756  0.1236 -0.4710
15509TIP3    H167942   2.614   5.345   1.798  0.4942  1.0373 -2.0940
15509TIP3    H267943   2.632   5.195   1.801  3.3303  1.3688 -1.0510
15510TIP3   OH267944   3.826   3.906  13.479 -0.4250 -0.2562  0.5494
15510TIP3    H167945   3.866   3.940  13.398 -1.3644 -1.2044 -0.3307
15510TIP3    H267946   3.747   3.960  13.490 -0.7800 -0.7272  0.3267
15511TIP3   OH267947   6.591   1.908  15.342 -0.4365 -0.2216 -0.6897
15511TIP3    H167948   6.591   1.941  15.253  0.5200  0.2743 -0.5156
15511TIP3    H267949   6.596   1.987  15.397 -0.6747 -0.5360 -0.2094
15512TIP3   OH267950   4.561   1.024   0.359 -0.2334 -0.0931 -0.1003
15512TIP3    H167951   4.564   0.936   0.397 -1.4084  0.2182  0.7354
15512TIP3    H267952   4.581   1.010   0.266  0.3428 -1.1496  0.1766
15513TIP3   OH267953   0.588   3.239  12.374  0.4389 -0.2539  0.0827
15513TIP3    H167954   0.675   3.215  12.405  0.0366 -0.4084  1.1364
15513TIP3    H267955   0.563   3.167  12.316  1.3551  0.2182 -0.9031
15514TIP3   OH267956   4.072   1.468   4.069  0.4159 -0.5542  0.1028
15514TIP3    H167957   4.108   1.514   3.993  0.3631 -0.5125  0.1025
15514TIP3    H267958   4.115   1.508   4.144  1.6607 -1.6844  0.0090
15515TIP3   OH267959   2.352   6.189   5.698 -0.1835  0.3664 -0.0396
15515TIP3    H167960   2.285   6.127   5.727 -0.0720  0.1420 -0.2547
15515TIP3    H267961   2.355   6.179   5.603  0.2366  0.2891 -0.0200
15516TIP3   OH267962   5.838   5.512   4.976 -0.7832  0.2135 -0.2949
15516TIP3    H167963   5.859   5.570   4.903 -0.1394  0.2987 -0.0404
15516TIP3    H267964   5.912   5.520   5.036 -0.9772 -0.3984  0.0325
15517TIP3   OH267965   1.980   1.674  14.986  0.2751  0.1156 -0.1129
15517TIP3    H167966   1.927   1.615  14.932  1.9344 -0.5914 -1.0159
15517TIP3    H267967   1.988   1.628  15.070  0.3627 -0.2797 -0.3349
15518TIP3   OH267968   1.444   2.359  14.721  0.1396 -0.4136  0.0091
15518TIP3    H167969   1.368   2.418  14.722  0.1135 -0.4397 -0.3825
15518TIP3    H267970   1.483   2.369  14.807 -0.6524 -0.8358  0.4217
15519TIP3   OH267971   4.995   2.237   0.694  0.0279 -0.1453  0.2847
15519TIP3    H167972   5.059   2.227   0.765 -1.9473  2.4034  2.5630
15519TIP3    H267973   4.927   2.173   0.715 -0.8187  0.9788  1.0677
15520TIP3   OH267974   5.701   1.192  14.490 -0.8738  0.4593 -0.2634
15520TIP3    H167975   5.667   1.280  14.504 -3.0557 -0.2703 -0.7569
15520TIP3    H267976   5.701   1.181  14.395 -0.0016  0.1467 -0.2365
15521TIP3   OH267977   4.375   4.617  11.280 -0.0978  0.6412  0.2323
15521TIP3    H167978   4.407   4.652  11.197 -0.7380 -0.7025 -0.5815
15521TIP3    H267979   4.399   4.525  11.279 -0.2727  0.5679  1.4607
15522TIP3   OH267980   4.686   4.754   1.504  1.1336 -0.5973 -0.0768
15522TIP3    H167981   4.779   4.776   1.509  1.2939 -1.0875 -0.7947
15522TIP3    H267982   4.683   4.675   1.450  0.3129 -0.6646  0.0654
15523TIP3   OH267983   1.158   5.656  13.314  0.3656  0.8494  0.3264
15523TIP3    H167984   1.093   5.674  13.246  0.1041 -2.1056 -0.2652
15523TIP3    H267985   1.238   5.699  13.283  0.2833 -0.5567 -1.9085
15524TIP3   OH267986   5.415   5.805  14.837 -0.0196  0.3364  0.0589
15524TIP3    H167987   5.376   5.724  14.869 -0.8954  0.6697 -0.1606
15524TIP3    H267988   5.509   5.786  14.832 -0.2344 -0.7026 -0.1168
15525TIP3   OH267989   0.165   1.141  12.546  0.1219 -0.1181  0.3104
15525TIP3    H167990   0.110   1.098  12.611  1.2313 -0.3353  1.1139
15525TIP3    H267991   0.103   1.184  12.487 -1.0085 -2.5733 -0.3626
15526TIP3   OH267992   4.776   4.218  14.484  0.3346  0.1803 -0.7089
15526TIP3    H167993   4.801   4.158  14.413  1.3466  0.9264 -0.9952
15526TIP3    H267994   4.791   4.306  14.448  0.8214  0.5723  0.4064
15527TIP3   OH267995   5.733   4.345   4.222  0.4113 -0.1490  0.3109
15527TIP3    H167996   5.764   4.316   4.308 -0.5386  2.5128  1.6260
15527TIP3    H267997   5.775   4.430   4.209 -0.1731 -0.1094 -1.4673
15528TIP3   OH267998   4.940   5.152   3.910 -0.0709 -0.6236 -0.0147
15528TIP3    H167999   4.933   5.059   3.934 -1.6817 -0.1000  1.6106
15528TIP3    H268000   4.891   5.159   3.828 -0.0867 -1.1595 -0.0561
15529TIP3   OH268001   5.141   2.055  15.649  0.3357  0.2292  0.1162
15529TIP3    H168002   5.107   1.969  15.625  1.3803 -0.0842 -0.2789
15529TIP3    H268003   5.127   2.109  15.571 -0.1959  0.3871  0.3169
15530TIP3   OH268004   4.323   0.729   2.001  0.0370  0.0210 -0.6530
15530TIP3    H168005   4.351   0.695   2.086  2.5825  0.9453 -1.0639
15530TIP3    H268006   4.393   0.704   1.941 -1.0486  0.6069 -2.1994
15531TIP3   OH268007   2.859   3.467  16.607  0.1821 -0.7232 -0.2426
15531TIP3    H168008   2.794   3.448  16.675  1.0594  2.0211  1.4613
15531TIP3    H268009   2.943   3.465  16.653  1.0582 -1.4335 -1.8277
15532TIP3   OH268010   6.685   5.095   5.586  0.2033  0.4593 -0.0052
15532TIP3    H168011   6.634   5.089   5.666  0.1737 -0.9904 -0.1277
15532TIP3    H268012   6.775   5.110   5.616  0.5206 -2.0276  0.3947
15533TIP3   OH268013   6.155   2.257  11.947  0.0357  0.5936  0.0110
15533TIP3    H168014   6.076   2.222  11.987 -0.4744  0.9510 -0.6583
15533TIP3    H268015   6.125   2.294  11.863  0.8043  1.2678  0.0238
15534TIP3   OH268016   1.262   6.497   3.601 -0.2816  0.3497  0.3916
15534TIP3    H168017   1.214   6.525   3.679  0.4142 -0.5925  1.1683
15534TIP3    H268018   1.214   6.420   3.570  0.1939 -0.0543  0.6485
15535TIP3   OH268019   0.150   2.516   2.447 -0.0388 -0.1882  0.4703
15535TIP3    H168020   0.195   2.568   2.514  1.7979 -1.1714  0.0566
15535TIP3    H268021   0.191   2.544   2.365  0.3499 -1.6514  0.1609
15536TIP3   OH268022   5.535   6.085   6.614 -0.0709  0.0703 -0.1989
15536TIP3    H168023   5.579   6.133   6.544  1.2045 -1.3635 -0.4284
15536TIP3    H268024   5.471   6.031   6.569 -0.3484  0.3287 -0.1104
15537TIP3   OH268025   1.567   6.012  14.939 -0.4308 -0.3854  0.6226
15537TIP3    H168026   1.487   5.960  14.953 -0.0364 -1.2731 -0.3441
15537TIP3    H268027   1.600   5.982  14.855 -0.3911  1.7361 -0.1240
15538TIP3   OH268028   5.391   0.546  11.743  0.3402  0.2832 -0.2785
15538TIP3    H168029   5.296   0.541  11.754  0.2174  0.5089 -1.2365
15538TIP3    H268030   5.406   0.534  11.649  1.1421  1.8732 -0.3764
15539TIP3   OH268031   3.957   0.977  14.569 -0.4593  0.1871 -0.4195
15539TIP3    H168032   3.916   0.995  14.484  1.1522  3.5150 -0.5855
15539TIP3    H268033   3.891   1.003  14.634 -0.7484  0.0998 -0.6767
15540TIP3   OH268034   4.738   2.259   4.334  0.3101 -0.6395  0.4895
15540TIP3    H168035   4.659   2.263   4.280 -0.1703  2.0484  1.2919
15540TIP3    H268036   4.783   2.180   4.305 -0.0515  0.5433 -3.6011
15541TIP3   OH268037   5.067   1.145   6.033 -0.4567  0.6678 -0.2745
15541TIP3    H168038   5.137   1.154   5.969  1.8131  1.8510  2.2673
15541TIP3    H268039   5.084   1.062   6.077 -1.6564  0.1350 -0.8019
15542TIP3   OH268040   5.332   0.513   3.321 -0.2761  0.3751  0.5722
15542TIP3    H168041   5.400   0.447   3.329 -0.5151 -0.1326 -1.1897
15542TIP3    H268042   5.348   0.553   3.235 -0.6417  2.0318  1.2517
15543TIP3   OH268043   5.165   2.394   3.377 -0.3399  0.2577  0.0874
15543TIP3    H168044   5.248   2.433   3.349 -0.2373  0.2118  0.3338
15543TIP3    H268045   5.174   2.301   3.353 -0.2609  0.2231  0.2511
15544TIP3   OH268046   6.271   6.251  12.773  0.0328  0.3277 -0.1738
15544TIP3    H168047   6.362   6.253  12.745 -0.0563  0.8464 -0.4348
15544TIP3    H268048   6.266   6.318  12.842 -0.1386  0.2764 -0.1353
15545TIP3   OH268049   0.490   2.185   2.204  0.6521 -0.1852  0.1790
15545TIP3    H168050   0.488   2.242   2.127 -0.7750 -0.9186 -0.3508
15545TIP3    H268051   0.405   2.197   2.245  1.0650 -0.4949  1.1379
15546TIP3   OH268052   1.024   4.238   0.925 -0.2391 -0.3990  0.4303
15546TIP3    H168053   0.964   4.235   1.000 -1.7651 -2.2500 -0.8043
15546TIP3    H268054   1.092   4.301   0.951 -2.2752  1.1620  2.1952
15547TIP3   OH268055   2.623   5.755  11.374  0.1341  0.1552 -0.1338
15547TIP3    H168056   2.534   5.744  11.407  0.7789 -3.0715  0.7546
15547TIP3    H268057   2.619   5.722  11.284  0.7908 -1.9379  0.5579
15548TIP3   OH268058   6.020   3.828   0.475 -0.5866 -0.2795 -0.5527
15548TIP3    H168059   6.006   3.768   0.401  1.4047  0.4268 -1.5541
15548TIP3    H268060   6.087   3.889   0.443 -2.2334  2.2080  0.6038
15549TIP3   OH268061   4.009   4.587  16.824  0.6143  0.4394  0.0833
15549TIP3    H168062   3.970   4.586  16.736  1.3475  1.1986 -0.2602
15549TIP3    H268063   3.959   4.653  16.872  0.1132 -0.0866  0.2835
15550TIP3   OH268064   1.766   0.512  16.269  0.7965  0.0541  0.4077
15550TIP3    H168065   1.757   0.498  16.363 -0.4093 -0.9896  0.1545
15550TIP3    H268066   1.838   0.455  16.242  2.5049  1.8506  1.0001
15551TIP3   OH268067   5.178   3.954   1.317 -0.1598  0.1935  0.2247
15551TIP3    H168068   5.224   3.881   1.357 -0.1407 -0.0489 -0.2330
15551TIP3    H268069   5.230   3.975   1.239  0.6702  1.6610  1.1489
15552TIP3   OH268070   1.734   0.511  15.294  0.6601  0.2308  0.0382
15552TIP3    H168071   1.732   0.419  15.268 -1.1565 -0.0158  1.0202
15552TIP3    H268072   1.642   0.537  15.298  1.1261  1.8144  0.7558
15553TIP3   OH268073   3.173   1.717   0.389  0.6104  0.2093 -0.4385
15553TIP3    H168074   3.080   1.740   0.395  0.6181  0.0645  0.3323
15553TIP3    H268075   3.218   1.801   0.396  0.5665  0.1836  0.2479
15554TIP3   OH268076   1.221   4.375  16.494 -0.0767 -0.2093 -0.5479
15554TIP3    H168077   1.196   4.369  16.586  1.3950 -0.5213 -0.1630
15554TIP3    H268078   1.293   4.438  16.492 -0.6044  0.3917 -1.5987
15555TIP3   OH268079   2.967   3.983  14.529  0.0184 -0.5335  0.1732
15555TIP3    H168080   2.952   4.006  14.620  0.9899 -1.9191  0.6973
15555TIP3    H268081   2.919   3.902  14.516 -0.0114 -0.4112 -0.5157
15556TIP3   OH268082   3.458   1.404   4.800  0.0983  0.0376 -0.5422
15556TIP3    H168083   3.439   1.421   4.708  1.3755 -2.2759 -1.2864
15556TIP3    H268084   3.476   1.490   4.838 -0.0097  0.9714 -2.5539
15557TIP3   OH268085   2.434   2.036   3.125 -0.1556  0.2702 -0.4055
15557TIP3    H168086   2.359   2.088   3.154 -1.0409 -0.3658 -1.5573
15557TIP3    H268087   2.396   1.962   3.079  1.1190 -1.2972  1.0206
15558TIP3   OH268088   6.705   1.090  16.315  0.0019  0.3692 -0.4817
15558TIP3    H168089   6.653   1.011  16.330 -0.2434  0.4323 -0.9737
15558TIP3    H268090   6.669   1.127  16.234  1.5063 -0.1631 -1.4086
15559TIP3   OH268091   1.251   0.920   5.548  0.4053 -0.4078 -0.1741
15559TIP3    H168092   1.268   1.014   5.543 -1.8903  0.0273 -0.1946
15559TIP3    H268093   1.282   0.886   5.464 -0.4076  0.6057 -0.8929
15560TIP3   OH268094   3.899   0.765   2.142 -0.1502 -0.1437 -0.0201
15560TIP3    H168095   3.966   0.812   2.091  1.0143 -2.2414 -0.4616
15560TIP3    H268096   3.914   0.793   2.232 -0.9796  2.1006 -0.5268
15561TIP3   OH268097   5.613   0.653  16.981 -1.0357  0.1963  0.2783
15561TIP3    H168098   5.532   0.605  16.998 -0.3454 -0.6300  1.2387
15561TIP3    H268099   5.621   0.714  17.054 -0.5904  0.0180  0.3774
15562TIP3   OH268100   3.563   4.798   3.640 -0.2309 -0.1899  0.4281
15562TIP3    H168101   3.479   4.843   3.633 -0.1869  0.0145  1.2651
15562TIP3    H268102   3.593   4.814   3.729 -0.0427 -1.5708  0.6240
15563TIP3   OH268103   3.403   5.369   6.050 -0.1558  0.3472  0.2081
15563TIP3    H168104   3.382   5.321   6.130  0.8500 -0.0242  0.2469
15563TIP3    H268105   3.377   5.459   6.069 -2.4557 -0.2354 -0.0233
15564TIP3   OH268106   4.791   6.175  17.026 -0.5425  0.1184 -0.4059
15564TIP3    H168107   4.809   6.268  17.044 -3.4901  1.1175 -2.2424
15564TIP3    H268108   4.877   6.133  17.029  0.8960  2.9671  0.0939
15565TIP3   OH268109   1.566   4.254  16.376 -0.0284 -0.5506 -0.1729
15565TIP3    H168110   1.594   4.221  16.291 -0.7316 -1.4275 -0.0863
15565TIP3    H268111   1.471   4.266  16.367  0.2254  1.6045 -0.2355
15566TIP3   OH268112   0.211   6.280   1.887  0.4905 -0.1792  0.4495
15566TIP3    H168113   0.208   6.368   1.849  0.8358  0.3509  1.6317
15566TIP3    H268114   0.263   6.229   1.824  1.9225  0.9349  0.6941
15567TIP3   OH268115   0.180   3.654  11.109 -0.3019 -0.2546  0.3071
15567TIP3    H168116   0.138   3.709  11.043 -0.3015 -0.0636  0.4668
15567TIP3    H268117   0.212   3.578  11.060  0.0167  0.0568  0.0317
15568TIP3   OH268118   4.893   6.471   4.647  0.4962 -0.1149 -0.4196
15568TIP3    H168119   4.876   6.381   4.621  0.4129  0.2932 -1.7807
15568TIP3    H268120   4.836   6.524   4.592 -1.1712  0.6641  1.9496
15569TIP3   OH268121   5.966   6.488   0.350  0.3558 -0.0520 -0.3706
15569TIP3    H168122   5.900   6.515   0.287  0.3300 -1.6469 -1.0385
15569TIP3    H268123   5.975   6.394   0.337 -0.3349 -0.5965  2.6407
15570TIP3   OH268124   3.268   4.944   5.969  0.3996 -0.6015 -0.2285
15570TIP3    H168125   3.357   4.951   6.003  0.4931 -0.8988 -0.4048
15570TIP3    H268126   3.212   4.980   6.038  0.7298  0.4310 -0.4963
15571TIP3   OH268127   3.915   1.966   4.888 -0.1001 -0.7671 -0.5303
15571TIP3    H168128   3.873   1.942   4.805  1.1303 -1.3101 -1.0099
15571TIP3    H268129   3.996   1.914   4.889  2.0143  2.4113 -0.9635
15572TIP3   OH268130   6.503   5.276   3.236 -0.0804 -0.1373 -0.1030
15572TIP3    H168131   6.482   5.264   3.329 -1.3388 -3.2983 -0.7184
15572TIP3    H268132   6.429   5.325   3.201 -0.8140 -1.0832  0.0959
15573TIP3   OH268133   2.287   5.105   1.219  0.4842 -0.8565 -0.4918
15573TIP3    H168134   2.202   5.067   1.239  0.1554  0.8257  1.5150
15573TIP3    H268135   2.270   5.170   1.151 -0.1665  0.6733  1.0865
15574TIP3   OH268136   4.676   5.307   1.150 -0.3525 -0.7351  0.3300
15574TIP3    H168137   4.582   5.307   1.166 -0.3465 -1.7325  0.4048
15574TIP3    H268138   4.710   5.375   1.208 -1.0216 -0.3879  0.3213
15575TIP3   OH268139   0.953   4.555  16.528 -0.0791  0.1567  0.3653
15575TIP3    H168140   1.016   4.510  16.471 -0.3497 -0.2027  0.3467
15575TIP3    H268141   0.975   4.526  16.616 -0.1013  0.1746  0.3769
15576TIP3   OH268142   3.900   2.945   5.254  0.1620  0.5728 -0.0859
15576TIP3    H168143   3.875   2.869   5.307 -0.6156  1.7638  1.2760
15576TIP3    H268144   3.872   2.923   5.165 -1.5368 -0.0413  0.6017
15577TIP3   OH268145   0.975   1.944  11.798 -0.1303  0.2354 -0.9067
15577TIP3    H168146   1.040   1.899  11.743 -0.5915  0.8189 -1.9545
15577TIP3    H268147   0.904   1.880  11.808  0.6598 -0.4614  0.3721
15578TIP3   OH268148   0.515   5.714  11.857 -0.0470  0.2523 -0.1887
15578TIP3    H168149   0.601   5.673  11.846 -0.6112 -1.6312  2.0587
15578TIP3    H268150   0.518   5.752  11.945 -1.0242  1.4451 -0.6548
15579TIP3   OH268151   4.046   0.290  14.583  0.2299  0.6324 -0.2380
15579TIP3    H168152   4.015   0.360  14.525  0.5691 -0.7813 -2.1747
15579TIP3    H268153   3.973   0.229  14.588  1.0316 -0.4087 -1.0657
15580TIP3   OH268154   1.408   5.006  13.822 -0.2371 -0.1200  0.2422
15580TIP3    H168155   1.458   5.041  13.748  0.3207 -0.6276  0.3774
15580TIP3    H268156   1.316   5.015  13.795 -0.0205 -1.0905 -0.8905
15581TIP3   OH268157   4.301   3.305   3.476  0.1658  0.1130 -0.2578
15581TIP3    H168158   4.301   3.384   3.422 -0.6498 -0.1406 -0.6338
15581TIP3    H268159   4.278   3.235   3.415  1.4473 -0.5012 -0.0537
15582TIP3   OH268160   5.287   1.095  14.326  0.0882 -0.1333 -0.0373
15582TIP3    H168161   5.260   1.058  14.242  3.4235 -1.5087 -0.5648
15582TIP3    H268162   5.237   1.045  14.391 -0.7752 -0.6548 -1.0825
15583TIP3   OH268163   1.214   1.172  14.660 -0.5178 -0.0667  0.5750
15583TIP3    H168164   1.263   1.135  14.733  0.9789  1.6895  0.4935
15583TIP3    H268165   1.168   1.248  14.697 -0.9864 -0.0729  0.0279
15584TIP3   OH268166   5.574   4.322  14.846  0.4140 -0.5631 -0.5512
15584TIP3    H168167   5.505   4.277  14.798 -0.2495 -0.9472  0.7447
15584TIP3    H268168   5.551   4.310  14.938  0.6482  1.7567 -0.1698
15585TIP3   OH268169   4.716   4.463  12.859 -0.0116  1.0275  0.1815
15585TIP3    H168170   4.651   4.423  12.917  2.3862 -0.2054  2.0720
15585TIP3    H268171   4.799   4.454  12.906  1.5111  2.7769 -2.0957
15586TIP3   OH268172   3.312   0.952   3.334  0.0542  0.1469 -0.4333
15586TIP3    H168173   3.395   0.906   3.349 -0.0192  0.8745  2.5258
15586TIP3    H268174   3.328   1.005   3.256  0.6895 -3.4924 -2.9129
15587TIP3   OH268175   5.200   2.558  12.235  0.1900 -0.3611  0.2182
15587TIP3    H168176   5.146   2.622  12.188 -0.0627  1.6010  3.0463
15587TIP3    H268177   5.289   2.575  12.205  0.0290  0.8552  0.3792
15588TIP3   OH268178   0.651   2.521  12.957  0.1809 -1.0044 -0.6337
15588TIP3    H168179   0.715   2.467  13.004 -0.4769 -0.2247  1.2231
15588TIP3    H268180   0.594   2.555  13.026 -1.5264 -0.7566 -2.1456
15589TIP3   OH268181   4.607   2.226  12.699 -0.2757 -0.0777  0.0935
15589TIP3    H168182   4.581   2.137  12.723  1.1079 -0.6533 -0.5527
15589TIP3    H268183   4.699   2.232  12.723  0.8748 -0.3012 -3.9458
15590TIP3   OH268184   4.099   4.112  11.600 -0.5551  0.6296  0.2590
15590TIP3    H168185   4.151   4.091  11.523 -1.8696  1.0274 -0.7651
15590TIP3    H268186   4.019   4.061  11.589 -0.2696 -0.2313  1.9688
15591TIP3   OH268187   6.246   1.641   2.492 -0.1106  0.3853  0.4027
15591TIP3    H168188   6.238   1.633   2.587 -0.3298 -1.6448  0.2235
15591TIP3    H268189   6.168   1.690   2.466  0.1751  1.3501  1.2931
15592TIP3   OH268190   6.063   4.634   3.823  0.0295  0.6099  0.2287
15592TIP3    H168191   6.045   4.584   3.743  0.1948  1.6072 -0.4321
15592TIP3    H268192   6.066   4.567   3.892  1.7253 -0.4889 -0.8634
15593TIP3   OH268193   4.400   6.026   5.269 -0.5055 -0.4037 -0.2784
15593TIP3    H168194   4.348   6.048   5.346  0.9367 -0.4964  0.7393
15593TIP3    H268195   4.396   6.105   5.215 -0.0593  0.3243  0.7259
15594TIP3   OH268196   0.506   1.210   6.759  0.3380  0.3647 -0.3053
15594TIP3    H168197   0.559   1.131   6.769  0.0005  0.2878  0.9709
15594TIP3    H268198   0.533   1.247   6.674  1.4305 -0.4127 -0.3074
15595TIP3   OH268199   0.270   5.387  13.956  0.1778  0.2315  0.0708
15595TIP3    H168200   0.193   5.438  13.983  0.1379 -0.5603  1.5310
15595TIP3    H268201   0.235   5.314  13.906  0.1546  1.0617 -1.1325
15596TIP3   OH268202   6.348   5.390  11.642  0.1058 -0.3104 -0.3997
15596TIP3    H168203   6.306   5.449  11.579  0.8243 -0.9639 -1.5013
15596TIP3    H268204   6.440   5.390  11.617  0.0613 -2.1759 -0.6319
15597TIP3   OH268205   3.729   5.999  14.188 -0.0712  0.5994 -0.6552
15597TIP3    H168206   3.720   5.961  14.101  1.6048 -1.9700  0.2011
15597TIP3    H268207   3.820   6.028  14.193  0.1322 -0.1715  0.5318
15598TIP3   OH268208   5.993   1.087   0.620  0.2497 -0.6117 -0.3940
15598TIP3    H168209   5.987   1.031   0.697 -0.9886  1.4803  1.0598
15598TIP3    H268210   6.063   1.047   0.567  1.0752 -2.0982  1.7507
15599TIP3   OH268211   2.928   4.102   1.284  0.0368 -0.1168 -0.3711
15599TIP3    H168212   2.954   4.108   1.192  1.7834  0.1635  0.1264
15599TIP3    H268213   3.002   4.138   1.332  0.3135 -2.7204  1.2853
15600TIP3   OH268214   2.935   5.868   3.251 -0.0391 -0.4060 -0.0290
15600TIP3    H168215   2.975   5.892   3.168  0.6083 -0.5996  0.2178
15600TIP3    H268216   2.844   5.895   3.243  0.5870  1.8311  0.1240
15601TIP3   OH268217   0.734   2.865   4.417  0.1517 -0.4529  0.2480
15601TIP3    H168218   0.822   2.845   4.449  0.4411 -0.5190 -0.5823
15601TIP3    H268219   0.715   2.952   4.452  1.0129  0.0588 -0.5161
15602TIP3   OH268220   2.917   3.016  12.994  0.8117  0.2895  0.0627
15602TIP3    H168221   2.824   3.007  13.015  0.3370  1.1178 -1.6175
15602TIP3    H268222   2.960   3.020  13.080 -0.7005 -0.0642  0.8561
15603TIP3   OH268223   5.833   2.199  16.504  0.5451 -0.6385 -0.2897
15603TIP3    H168224   5.923   2.171  16.517  0.4929 -0.2902  0.8713
15603TIP3    H268225   5.809   2.243  16.585 -0.3933  0.0200 -0.9033
15604TIP3   OH268226   3.126   4.650   1.159 -0.1813  0.0890  0.2218
15604TIP3    H168227   3.179   4.699   1.096 -0.2078 -0.0301  0.1060
15604TIP3    H268228   3.047   4.702   1.171 -1.9796 -1.7950 -2.8394
15605TIP3   OH268229   3.289   2.066  16.385 -0.1007  0.6924 -0.2176
15605TIP3    H168230   3.348   1.995  16.410  0.7181  1.2234 -0.6031
15605TIP3    H268231   3.340   2.117  16.321 -1.3793  0.5261 -1.3883
15606TIP3   OH268232   1.537   4.108  17.103  0.4859  0.1621 -0.0196
15606TIP3    H168233   1.601   4.151  17.047  0.1322 -1.2572 -1.5696
15606TIP3    H268234   1.515   4.027  17.057 -0.9290 -0.3392  1.4614
15607TIP3   OH268235   0.605   1.726   2.129  0.0352  0.4609 -0.1328
15607TIP3    H168236   0.600   1.819   2.107  0.6725  0.3988 -0.5757
15607TIP3    H268237   0.527   1.687   2.091  0.8710  0.4414 -1.8949
15608TIP3   OH268238   5.674   1.426  14.061  0.0651 -1.0423  0.4997
15608TIP3    H168239   5.740   1.370  14.019 -0.7608 -1.2855 -0.4978
15608TIP3    H268240   5.597   1.417  14.006  0.2015  1.8772 -0.2740
15609TIP3   OH268241   2.111   3.688  15.737 -0.2293  0.2266 -0.4993
15609TIP3    H168242   2.049   3.716  15.670  0.3092  1.7020 -0.3905
15609TIP3    H268243   2.184   3.750  15.731  1.7955 -2.1643 -1.4256
15610TIP3   OH268244   2.434   2.053   2.077  0.1177 -0.0687 -0.1893
15610TIP3    H168245   2.479   2.136   2.089  0.8047 -0.5666  0.7605
15610TIP3    H268246   2.445   2.008   2.161  0.0271 -1.2403 -0.8010
15611TIP3   OH268247   1.095   5.322  15.976  0.3583  0.1576 -0.4128
15611TIP3    H168248   1.131   5.269  16.047  1.3765 -0.5892 -1.4725
15611TIP3    H268249   1.116   5.412  16.000  1.2656 -0.1362 -0.0934
15612TIP3   OH268250   6.232   1.235  13.412  0.9192 -0.4626  0.2781
15612TIP3    H168251   6.265   1.312  13.459  2.2004 -1.5636  1.2091
15612TIP3    H268252   6.310   1.182  13.395 -0.3134 -3.0170  2.3700
15613TIP3   OH268253   3.451   2.136   3.082 -0.3865  0.1650 -0.0730
15613TIP3    H168254   3.546   2.149   3.090 -0.4736  1.6824 -1.2147
15613TIP3    H268255   3.432   2.061   3.138  1.6889 -1.0041 -0.8830
15614TIP3   OH268256   5.337   4.633   0.105 -0.3135  0.7973 -0.4412
15614TIP3    H168257   5.384   4.681   0.036  2.2914  0.6345  1.1266
15614TIP3    H268258   5.380   4.661   0.186 -1.5130 -1.0574  0.8621
15615TIP3   OH268259   0.391   3.696   2.403 -0.0864  0.6565  0.4772
15615TIP3    H168260   0.482   3.705   2.374 -0.1779  2.4194  0.6937
15615TIP3    H268261   0.353   3.631   2.344  0.9665  0.8490 -0.4191
15616TIP3   OH268262   5.679   4.617  16.237  0.1022 -0.4193 -0.0222
15616TIP3    H168263   5.693   4.522  16.240  2.1137 -0.2785 -2.6617
15616TIP3    H268264   5.767   4.653  16.228 -0.4568  1.8764  2.8442
15617TIP3   OH268265   3.669   6.253   3.414 -0.2979  0.4062 -0.5231
15617TIP3    H168266   3.573   6.254   3.412 -0.2824  0.1884 -2.5123
15617TIP3    H268267   3.693   6.346   3.415 -0.5184  0.4610  0.0177
15618TIP3   OH268268   5.110   4.206   1.437 -0.7074  0.4431  0.6216
15618TIP3    H168269   5.168   4.143   1.394 -1.4116 -1.9016  2.9229
15618TIP3    H268270   5.158   4.288   1.436  1.3874 -0.7641 -0.1211
15619TIP3   OH268271   6.730   5.484  15.583  0.0400 -0.3450  0.2382
15619TIP3    H168272   6.723   5.480  15.487 -0.8263 -2.9954  0.3944
15619TIP3    H268273   6.785   5.561  15.599  0.1808  0.1528 -2.3835
15620TIP3   OH268274   0.097   5.430  14.759  0.3393  0.1072  0.2661
15620TIP3    H168275   0.168   5.368  14.739  1.0236  0.3287  1.9557
15620TIP3    H268276   0.137   5.516  14.747  0.3929  0.2340  1.2871
15621TIP3   OH268277   6.223   6.093   0.087 -0.2722  0.1931  0.2340
15621TIP3    H168278   6.167   6.034   0.139  0.2419 -0.7341 -0.2400
15621TIP3    H268279   6.163   6.138   0.029 -0.2638 -2.8826 -2.2639
15622TIP3   OH268280   4.509   4.007  13.157 -0.1173 -0.0920 -0.0434
15622TIP3    H168281   4.584   4.041  13.108  0.9928 -0.2715  1.5097
15622TIP3    H268282   4.524   3.913  13.162 -0.4500 -0.1296  0.2788
15623TIP3   OH268283   4.557   5.384   2.235  0.3554 -0.0228 -0.3764
15623TIP3    H168284   4.544   5.321   2.305 -1.2513  0.1405 -0.5076
15623TIP3    H268285   4.648   5.372   2.209  0.3278 -1.6456  0.2023
15624TIP3   OH268286   3.189   5.050  13.089  0.2805 -0.1575  0.6735
15624TIP3    H168287   3.259   5.110  13.113  1.3058  0.6328 -3.8097
15624TIP3    H268288   3.111   5.105  13.081 -0.0247 -0.3929  1.9530
15625TIP3   OH268289   5.874   4.985   0.426 -0.2579 -0.7346 -0.0081
15625TIP3    H168290   5.786   4.987   0.463 -0.4888  0.3914 -0.6156
15625TIP3    H268291   5.914   5.068   0.451  0.0632 -0.5432 -1.0934
15626TIP3   OH268292   3.837   0.108  16.943  0.1810 -0.0777  0.3173
15626TIP3    H168293   3.782   0.187  16.945  0.5658  0.3816 -3.0969
15626TIP3    H268294   3.912   0.130  16.997 -0.8446  1.0109  1.3355
15627TIP3   OH268295   5.865   5.642   2.129 -0.1050  0.0386  0.4062
15627TIP3    H168296   5.803   5.715   2.132  0.5748  0.6155  0.4437
15627TIP3    H268297   5.946   5.678   2.164  0.2455 -0.7283  0.3910
15628TIP3   OH268298   4.050   5.236   1.019  0.2923 -0.2927  0.3389
15628TIP3    H168299   4.124   5.241   0.957 -0.8717 -1.7382 -1.2407
15628TIP3    H268300   4.011   5.323   1.017  0.7072 -0.1174 -0.4034
15629TIP3   OH268301   3.592   4.024  11.014  0.2061  0.0356  0.5434
15629TIP3    H168302   3.527   4.084  10.979 -1.3791 -2.5269 -1.0386
15629TIP3    H268303   3.657   4.015  10.945 -0.3124 -1.1494  0.1954
15630TIP3   OH268304   1.557   0.712   0.653  0.4469 -0.3547  0.3312
15630TIP3    H168305   1.515   0.793   0.624 -0.5868 -0.9711  0.0965
15630TIP3    H268306   1.625   0.741   0.714 -2.9036  0.4499  3.8628
15631TIP3   OH268307   4.667   2.843   0.728  0.4556 -0.0450 -0.2582
15631TIP3    H168308   4.684   2.883   0.643 -0.9556 -1.1064 -1.0678
15631TIP3    H268309   4.589   2.888   0.761 -0.1755 -0.9766 -0.4454
15632TIP3   OH268310   5.186   5.781   6.451  0.8808 -0.5396  0.5859
15632TIP3    H168311   5.109   5.789   6.395  2.2092 -0.1598 -1.2041
15632TIP3    H268312   5.160   5.715   6.517 -0.9219 -0.4952 -0.0390
15633TIP3   OH268313   1.214   0.422   1.002 -0.4558 -0.2548  0.2370
15633TIP3    H168314   1.143   0.363   0.977 -0.6826 -0.2007  0.7448
15633TIP3    H268315   1.180   0.509   0.983 -0.7065 -0.1996  0.8916
15634TIP3   OH268316   1.674   1.321  15.886  0.0281  0.4198  0.3930
15634TIP3    H168317   1.695   1.394  15.944  0.6243  0.2363  0.4049
15634TIP3    H268318   1.716   1.342  15.803  1.2080 -0.4832  0.7553
15635TIP3   OH268319   6.468   4.753   1.287  0.1638 -0.2230  0.3269
15635TIP3    H168320   6.478   4.823   1.351  0.1502 -0.2297  0.3365
15635TIP3    H268321   6.522   4.781   1.213 -1.1941  0.6163 -0.3618
15636TIP3   OH268322   0.856   2.604   0.924 -0.1056  0.1126  0.2141
15636TIP3    H168323   0.803   2.682   0.911  0.3259  0.2800 -0.5577
15636TIP3    H268324   0.837   2.548   0.849  0.4598 -0.0253  0.1721
15637TIP3   OH268325   5.246   1.489  15.956 -0.1537 -0.1593 -0.3622
15637TIP3    H168326   5.258   1.399  15.926 -0.8285 -0.8384  1.3840
15637TIP3    H268327   5.257   1.485  16.051 -2.1167  1.2572 -0.0327
15638TIP3   OH268328   3.571   4.736  13.942  0.4057  0.0049  0.2477
15638TIP3    H168329   3.612   4.728  13.856  0.9730 -1.6317  0.6419
15638TIP3    H268330   3.598   4.822  13.974  1.2796  0.0753 -0.6578
15639TIP3   OH268331   4.052   2.055   1.888 -0.4251  0.3172  0.4278
15639TIP3    H168332   4.043   2.147   1.913  0.2565  0.5832 -0.2871
15639TIP3    H268333   4.119   2.055   1.820 -0.8647 -0.6370 -0.0160
15640TIP3   OH268334   0.336   1.112   1.690 -0.8243  0.0678 -0.4649
15640TIP3    H168335   0.379   1.041   1.642 -0.6880  0.3701 -0.7953
15640TIP3    H268336   0.265   1.140   1.632  0.1828  1.3546 -1.1237
15641TIP3   OH268337   4.888   2.225  15.073 -0.3093 -0.3373  0.4073
15641TIP3    H168338   4.900   2.168  14.997 -2.9398  0.0645 -0.3595
15641TIP3    H268339   4.839   2.300  15.040 -1.4350 -0.1183  2.4797
15642TIP3   OH268340   5.899   5.036   2.951  0.4463  0.1424  0.3724
15642TIP3    H168341   5.966   4.969   2.939  0.6004  0.3822 -0.1134
15642TIP3    H268342   5.941   5.102   3.006 -0.1744 -0.8339  2.0468
15643TIP3   OH268343   4.712   6.122   1.075 -0.5145  0.3642 -0.2324
15643TIP3    H168344   4.649   6.056   1.103 -1.6070  0.9424 -1.3163
15643TIP3    H268345   4.678   6.156   0.993  1.3972  0.4206 -1.0421
15644TIP3   OH268346   2.661   3.306  11.017  0.2617 -0.1194  0.5490
15644TIP3    H168347   2.594   3.256  11.065 -0.9556  1.8557  0.9518
15644TIP3    H268348   2.707   3.240  10.964 -1.9329 -1.5386  0.3555
15645TIP3   OH268349   2.613   2.348   5.428  0.2144  0.0863  0.2466
15645TIP3    H168350   2.653   2.262   5.435 -1.4709 -0.7580 -0.1560
15645TIP3    H268351   2.659   2.402   5.492  1.3802 -1.0686  0.3855
15646TIP3   OH268352   3.863   4.803  16.935 -0.8379  0.7344  0.4228
15646TIP3    H168353   3.801   4.839  16.872  0.7392  0.1759 -1.5114
15646TIP3    H268354   3.893   4.879  16.985 -2.1769  1.1702  0.5893
15647TIP3   OH268355   0.551   2.345  11.544  0.6435 -0.5188 -0.1116
15647TIP3    H168356   0.461   2.344  11.577  0.6156 -2.6102 -0.1825
15647TIP3    H268357   0.553   2.277  11.477  1.9338  0.4480 -1.0866
15648TIP3   OH268358   3.337   0.251   0.812 -0.2320 -0.0973  0.7415
15648TIP3    H168359   3.327   0.302   0.892  1.1476  0.5465  0.5218
15648TIP3    H268360   3.256   0.265   0.764  0.1247  1.9062  0.6952
15649TIP3   OH268361   3.158   2.177  15.706 -0.2710 -0.2636  0.1893
15649TIP3    H168362   3.067   2.149  15.703 -0.5445  0.4881  1.1942
15649TIP3    H268363   3.208   2.096  15.716 -1.0044 -0.4817  2.2398
15650TIP3   OH268364   5.364   4.324   5.302  0.1404 -0.1960 -0.4941
15650TIP3    H168365   5.294   4.273   5.261 -0.6014 -2.1583  2.9589
15650TIP3    H268366   5.320   4.369   5.375  1.4208  2.9789 -1.6113
15651TIP3   OH268367   6.679   2.024   4.569 -0.0654  0.6477 -0.2074
15651TIP3    H168368   6.595   2.059   4.536 -0.9880  1.1091  2.5020
15651TIP3    H268369   6.745   2.080   4.529 -1.1591  1.4489 -0.9381
15652TIP3   OH268370   3.069   3.240   5.742  0.8540  0.1116  0.1539
15652TIP3    H168371   3.037   3.329   5.755  1.3348  0.1880  0.8449
15652TIP3    H268372   3.110   3.217   5.826  1.2577 -0.5374 -0.2191
15653TIP3   OH268373   4.176   1.173   1.510 -0.1035  0.1107 -0.4566
15653TIP3    H168374   4.130   1.106   1.459 -1.7629  1.3249 -0.5990
15653TIP3    H268375   4.181   1.249   1.451 -0.1766  0.8258  0.4498
15654TIP3   OH268376   0.264   6.186  15.124  0.0431  0.0072  0.1507
15654TIP3    H168377   0.252   6.280  15.139 -1.0727 -0.2165  0.6809
15654TIP3    H268378   0.220   6.169  15.041 -0.3719 -0.1842  0.4111
15655TIP3   OH268379   2.442   1.915   0.951 -0.1458 -0.3114 -0.1985
15655TIP3    H168380   2.439   1.977   0.878 -1.4485 -0.2056 -0.0699
15655TIP3    H268381   2.399   1.962   1.023  0.7382 -0.5780  0.5108
15656TIP3   OH268382   2.698   3.464  16.884  0.4976  0.5771  0.3403
15656TIP3    H168383   2.625   3.471  16.822  0.8905  1.3357 -0.0376
15656TIP3    H268384   2.722   3.555  16.903 -0.3441  0.3713  2.4595
15657TIP3   OH268385   2.891   5.380   1.012 -0.2687  0.9784 -0.0119
15657TIP3    H168386   2.899   5.335   1.095 -0.5118 -0.4794 -0.7695
15657TIP3    H268387   2.809   5.429   1.019  0.8917  2.7663  1.4863
15658TIP3   OH268388   1.610   1.848   0.981  0.5514  0.0252 -0.2839
15658TIP3    H168389   1.548   1.904   1.027 -0.8087 -1.8406  0.2258
15658TIP3    H268390   1.574   1.840   0.892  2.0474  1.9050 -1.0967
15659TIP3   OH268391   5.251   0.239   1.115  0.5763  0.2343 -0.2451
15659TIP3    H168392   5.215   0.250   1.027  0.0752 -0.5727 -0.1501
15659TIP3    H268393   5.195   0.173   1.155  1.8472 -0.6641  0.0820
15660TIP3   OH268394   1.506   5.139   4.177 -0.6577 -0.3104  0.1974
15660TIP3    H168395   1.466   5.161   4.094 -0.4904  2.1834  0.7284
15660TIP3    H268396   1.588   5.094   4.154  0.3165  2.0483 -1.0331
15661TIP3   OH268397   5.399   5.897  10.414 -0.1663  0.6285 -0.5233
15661TIP3    H168398   5.322   5.899  10.472 -0.0960  0.0541 -0.4019
15661TIP3    H268399   5.405   5.985  10.378 -0.8122  0.7094 -0.4348
15662TIP3   OH268400   4.529   5.055  13.848 -0.0090 -0.3293 -0.0483
15662TIP3    H168401   4.437   5.061  13.822 -0.0522 -0.7573  0.0058
15662TIP3    H268402   4.573   5.017  13.772 -0.1167 -1.4785  0.4583
15663TIP3   OH268403   3.136   2.477  15.132  0.7771  0.0399  0.6273
15663TIP3    H168404   3.047   2.445  15.115  0.0431  1.8777  0.8341
15663TIP3    H268405   3.156   2.447  15.220  1.2594 -2.3022 -0.2568
15664TIP3   OH268406   3.197   3.053  14.861  0.0303  0.3678 -0.1483
15664TIP3    H168407   3.128   3.109  14.896  0.5251  1.3928 -0.8070
15664TIP3    H268408   3.161   3.019  14.779  0.8742  2.0882 -1.2458
15665TIP3   OH268409   2.183   5.010  14.039  0.6317  0.8251  0.1263
15665TIP3    H168410   2.211   5.076  13.975 -3.0433  2.9232  0.5396
15665TIP3    H268411   2.263   4.989  14.087  2.9296  1.2244 -3.2858
15666TIP3   OH268412   0.703   0.203  13.107  0.5115  0.5599  0.1896
15666TIP3    H168413   0.650   0.217  13.185  0.5351  0.5236  0.2121
15666TIP3    H268414   0.744   0.117  13.121 -1.8287 -0.8322 -1.1834
15667TIP3   OH268415   4.139   5.272   3.683  0.2142 -0.0342 -0.8164
15667TIP3    H168416   4.201   5.297   3.615 -0.0447 -2.4297 -2.0025
15667TIP3    H268417   4.053   5.292   3.646  0.0974 -0.9038 -1.0389
15668TIP3   OH268418   5.209   6.687   1.571 -0.4836  0.3812  0.6921
15668TIP3    H168419   5.288   6.712   1.620  1.5448  0.7370 -2.5786
15668TIP3    H268420   5.167   6.770   1.550  0.2852  0.4393 -0.6906
15669TIP3   OH268421   4.254   5.704   3.783  0.0077  0.1617 -0.0014
15669TIP3    H168422   4.305   5.733   3.859 -2.3353  1.9974  0.9197
15669TIP3    H268423   4.199   5.634   3.816  2.2575 -2.2499 -1.1421
15670TIP3   OH268424   3.874   5.609  16.452  0.2050  0.4056 -0.1552
15670TIP3    H168425   3.954   5.660  16.465 -0.6841  1.9557 -0.6237
15670TIP3    H268426   3.892   5.525  16.495  1.7688  1.0276  0.4545
15671TIP3   OH268427   3.899   1.151  13.759  0.2877  0.3773 -0.1825
15671TIP3    H168428   3.826   1.197  13.719  0.5881 -0.3639 -1.6433
15671TIP3    H268429   3.931   1.092  13.690  2.2090  0.6422  0.4395
15672TIP3   OH268430   3.106   4.223   5.610 -0.0370 -0.6537  0.4450
15672TIP3    H168431   3.088   4.298   5.666 -0.3027 -0.5511  0.2232
15672TIP3    H268432   3.200   4.208   5.620 -0.0117 -0.3920  0.6118
15673TIP3   OH268433   0.446   0.832   4.215  0.0377 -0.0111  0.4517
15673TIP3    H168434   0.371   0.857   4.269  0.8055  0.7578  1.1764
15673TIP3    H268435   0.500   0.911   4.210 -0.0630 -0.0435 -1.5216
15674TIP3   OH268436   4.666   4.822  11.672 -0.7539 -0.4847 -0.1824
15674TIP3    H168437   4.592   4.766  11.647 -0.9052 -0.0457 -0.7231
15674TIP3    H268438   4.647   4.906  11.631 -0.3498 -0.1371  0.3427
15675TIP3   OH268439   2.816   6.309  16.684  0.3750 -0.3094 -0.1654
15675TIP3    H168440   2.749   6.284  16.620  1.4983 -0.2326 -1.3913
15675TIP3    H268441   2.852   6.391  16.651 -1.9109  1.9997  2.8059
15676TIP3   OH268442   1.687   6.764   4.923  0.3582 -0.2328 -0.2097
15676TIP3    H168443   1.652   6.853   4.912 -0.1117 -0.4831 -0.7663
15676TIP3    H268444   1.781   6.776   4.932  0.2811  0.3369 -0.1139
15677TIP3   OH268445   5.616   2.045  16.490 -0.2677  0.5954 -0.1852
15677TIP3    H168446   5.583   2.011  16.573  1.0200 -0.8428 -0.2247
15677TIP3    H268447   5.708   2.065  16.507  0.2544 -0.5704 -1.4699
15678TIP3   OH268448   4.072   1.792  15.724 -0.0003  0.0373  0.2421
15678TIP3    H168449   3.987   1.764  15.759  1.3590 -1.1751  2.7768
15678TIP3    H268450   4.086   1.879  15.762  0.7055 -0.5658  1.4199
15679TIP3   OH268451   3.220   6.000  15.386 -0.3951 -1.1077  1.0811
15679TIP3    H168452   3.136   5.962  15.410 -1.4831 -0.4042 -1.4643
15679TIP3    H268453   3.217   6.089  15.420 -0.5047 -1.2053  1.3291
15680TIP3   OH268454   3.715   4.924  13.154 -0.4027  0.6569 -0.4227
15680TIP3    H168455   3.783   4.922  13.087  0.0939 -2.3685  0.0956
15680TIP3    H268456   3.635   4.894  13.109 -0.4268  0.1915 -0.0828
15681TIP3   OH268457   6.046   3.903  15.734 -0.4054  0.0846 -0.0112
15681TIP3    H168458   6.020   3.994  15.717 -1.2842 -0.3995 -1.2954
15681TIP3    H268459   6.117   3.911  15.798 -0.4946  1.6756 -0.0750
15682TIP3   OH268460   6.139   2.958   5.014 -0.3058 -0.0319 -0.5485
15682TIP3    H168461   6.193   3.025   4.971 -0.2412  0.5398  0.4101
15682TIP3    H268462   6.171   2.875   4.978  1.9451  0.2145  0.7783
15683TIP3   OH268463   2.450   2.635  14.493 -0.4029  0.1749  0.4972
15683TIP3    H168464   2.415   2.546  14.493  1.9460 -0.7682 -0.1265
15683TIP3    H268465   2.421   2.672  14.410  1.6199 -1.2466 -0.8880
15684TIP3   OH268466   4.418   3.831   5.311  0.1630 -0.0364  0.7863
15684TIP3    H168467   4.391   3.772   5.381 -3.0503  0.4077  0.0122
15684TIP3    H268468   4.469   3.898   5.354  0.5576 -1.2688  2.2744
15685TIP3   OH268469   4.306   3.401   2.592 -0.0620  0.3267  0.0613
15685TIP3    H168470   4.383   3.345   2.606 -1.6168 -1.9470 -0.3263
15685TIP3    H268471   4.282   3.388   2.501 -1.7670 -0.1027  0.5532
15686TIP3   OH268472   3.439   4.351  10.435  0.0869 -0.1122  0.0770
15686TIP3    H168473   3.490   4.421  10.474  1.4867 -1.1153  0.0943
15686TIP3    H268474   3.347   4.376  10.449  0.5668  0.4434  2.3487
15687TIP3   OH268475   3.165   4.648   6.695  0.3534 -0.1292 -0.3295
15687TIP3    H168476   3.120   4.570   6.727 -0.3401  0.0310 -0.8877
15687TIP3    H268477   3.243   4.656   6.750 -0.6262 -0.0564  1.0675
15688TIP3   OH268478   1.037   5.728   3.338 -0.1056  0.2640  0.2299
15688TIP3    H168479   1.069   5.779   3.263 -1.6937  1.0930  0.0852
15688TIP3    H268480   1.029   5.639   3.304  2.1168  0.0030  0.3134
15689TIP3   OH268481   1.284   6.353   5.975  0.3615 -0.4428  0.7129
15689TIP3    H168482   1.227   6.318   6.043 -0.0898 -1.9994 -0.4613
15689TIP3    H268483   1.371   6.321   5.998  0.5897  0.8748  1.7817
15690TIP3   OH268484   5.122   4.889  13.000  0.5097  0.4481 -0.2037
15690TIP3    H168485   5.042   4.906  12.950  0.0236  0.5818  0.6096
15690TIP3    H268486   5.170   4.972  12.999  1.3400 -0.0144 -1.9005
15691TIP3   OH268487   2.698   0.170  11.717  0.2321 -0.0746 -0.4389
15691TIP3    H168488   2.623   0.164  11.657 -1.5298  0.0313  1.6695
15691TIP3    H268489   2.771   0.195  11.662 -0.8812 -1.9721 -2.8921
15692TIP3   OH268490   4.037   4.483   1.018  0.2620 -0.0728  0.2984
15692TIP3    H168491   4.095   4.419   1.059  0.4459  0.4290  0.8290
15692TIP3    H268492   4.057   4.478   0.925  2.8510  1.7810  0.7174
15693TIP3   OH268493   1.318   2.241  14.424 -0.6152 -0.1201 -0.0822
15693TIP3    H168494   1.306   2.174  14.491  0.9842 -0.3870 -0.0669
15693TIP3    H268495   1.410   2.266  14.430 -0.7852  0.8543 -1.2507
15694TIP3   OH268496   0.285   6.681  11.678 -0.0107  0.2536  0.2785
15694TIP3    H168497   0.336   6.750  11.720  0.9536 -0.3361  0.1251
15694TIP3    H268498   0.303   6.692  11.584  1.1584 -0.9426  0.3343
15695TIP3   OH268499   5.378   5.070   4.317  0.1634  0.1351 -0.3006
15695TIP3    H168500   5.382   5.108   4.405  0.4873  0.4682 -0.4573
15695TIP3    H268501   5.321   4.994   4.326 -0.6209  0.7476 -0.0161
15696TIP3   OH268502   5.915   0.623  15.825 -0.1303  0.0999  0.1487
15696TIP3    H168503   5.987   0.572  15.786 -0.1681  1.2686 -1.4879
15696TIP3    H268504   5.872   0.561  15.884  3.1024 -0.2034  2.3112
15697TIP3   OH268505   2.007   5.488   4.784 -0.2205  0.0637 -0.4529
15697TIP3    H168506   1.974   5.465   4.870  0.1414  0.5278 -0.1907
15697TIP3    H268507   2.093   5.526   4.800 -0.2139  0.2877 -1.0047
15698TIP3   OH268508   0.016   5.531   0.828  0.4076  0.7088  0.2334
15698TIP3    H168509  -0.065   5.581   0.821  0.7624  1.2684  0.0569
15698TIP3    H268510   0.026   5.514   0.922 -0.3536 -0.0970  0.1657
15699TIP3   OH268511   0.798   0.609   0.927 -0.0785 -0.0210  0.6834
15699TIP3    H168512   0.840   0.530   0.891 -0.1533 -0.2518  1.1021
15699TIP3    H268513   0.705   0.597   0.909 -0.0709  0.0593  0.5863
15700TIP3   OH268514   1.640   0.762  14.775 -0.2660  0.5232  0.0313
15700TIP3    H168515   1.591   0.782  14.696 -0.7846  2.1278  0.7496
15700TIP3    H268516   1.576   0.769  14.846 -0.1455 -2.2726  0.4973
15701TIP3   OH268517   3.156   4.258  14.695 -0.1850  0.2841  0.4694
15701TIP3    H168518   3.150   4.164  14.676  1.3797  0.6681 -2.3276
15701TIP3    H268519   3.244   4.282  14.663 -0.9748  2.8797  0.1849
15702TIP3   OH268520   3.950   1.928  17.207  0.3628  0.4553  0.0264
15702TIP3    H168521   3.944   1.849  17.152 -1.4966  0.7141 -0.1911
15702TIP3    H268522   4.044   1.942  17.219  0.7344 -1.3429 -0.5839
15703TIP3   OH268523   1.825   0.767  15.404 -0.3290  0.2950 -0.7760
15703TIP3    H168524   1.835   0.803  15.316 -0.5165  1.4531 -0.3347
15703TIP3    H268525   1.792   0.679  15.390 -0.0126  0.3437 -1.8836
15704TIP3   OH268526   4.954   0.214   5.321 -0.0862 -0.0384 -0.2140
15704TIP3    H168527   4.998   0.231   5.237  1.2189 -1.1573  0.2281
15704TIP3    H268528   4.969   0.121   5.337  0.5836  0.4055  1.7820
15705TIP3   OH268529   3.028   2.658  11.923  0.1508 -0.7107  0.0200
15705TIP3    H168530   2.977   2.670  12.004 -1.5376 -0.7602 -1.0094
15705TIP3    H268531   3.070   2.742  11.908 -1.5061  0.0659 -0.3608
15706TIP3   OH268532   0.627   5.363  16.929  0.3576 -0.1744  0.0281
15706TIP3    H168533   0.638   5.282  16.879 -0.3657  0.2010 -0.7491
15706TIP3    H268534   0.640   5.337  17.020  0.0391 -1.1835 -0.2067
15707TIP3   OH268535   2.520   4.428  17.115  0.3158  0.0180 -0.3066
15707TIP3    H168536   2.428   4.408  17.136  0.5899 -1.6069 -0.5749
15707TIP3    H268537   2.570   4.358  17.158  1.4978  1.2556  0.3973
15708TIP3   OH268538   0.796   0.616   4.495  0.0160  0.0921 -0.3453
15708TIP3    H168539   0.744   0.554   4.444  0.7364 -0.7130 -0.1307
15708TIP3    H268540   0.836   0.562   4.564  1.3942  0.6296 -0.7158
15709TIP3   OH268541   0.837   3.588   0.563  0.0566 -0.2751  0.0501
15709TIP3    H168542   0.853   3.577   0.470  0.8420 -0.3408  0.1886
15709TIP3    H268543   0.764   3.650   0.568  0.6710  0.5116 -0.5924
15710TIP3   OH268544   6.611   4.029   3.918 -0.5178 -0.0671  0.0794
15710TIP3    H168545   6.585   4.058   4.006 -1.0829 -0.8820  0.1856
15710TIP3    H268546   6.702   4.058   3.909 -0.5307  0.2193  0.8422
15711TIP3   OH268547   6.679   0.599  14.339 -0.0742 -0.3627 -0.1943
15711TIP3    H168548   6.647   0.592  14.429 -0.5235 -0.8659 -0.3961
15711TIP3    H268549   6.774   0.586  14.346 -0.0602 -0.0302  0.2500
15712TIP3   OH268550   4.012   5.175   4.753  0.1253  0.4316  0.1561
15712TIP3    H168551   3.937   5.139   4.800 -0.4287  0.0397 -1.0167
15712TIP3    H268552   4.035   5.255   4.801 -1.1902  0.6782  0.3729
15713TIP3   OH268553   3.783   6.514   0.480  0.0753 -0.0972  0.4442
15713TIP3    H168554   3.801   6.527   0.573  0.2909 -0.7666  0.4972
15713TIP3    H268555   3.723   6.585   0.457  1.2359  1.0016  0.7360
15714TIP3   OH268556   6.343   5.994  16.999 -0.4143 -0.1487  0.2435
15714TIP3    H168557   6.248   5.982  17.004 -1.0753  3.9664  0.1148
15714TIP3    H268558   6.354   6.089  16.991  3.6631 -0.6533 -1.5732
15715TIP3   OH268559   1.233   2.085   5.032 -0.1947  0.1934 -0.0537
15715TIP3    H168560   1.296   2.137   5.083  0.5183  1.0746 -1.7870
15715TIP3    H268561   1.184   2.035   5.097  1.5421  0.3558  1.4075
15716TIP3   OH268562   2.795   6.381   6.367 -0.0343 -0.8593  0.0119
15716TIP3    H168563   2.770   6.337   6.448  1.0584 -0.7350  0.4286
15716TIP3    H268564   2.714   6.420   6.335 -0.7987 -2.2639  0.2010
15717TIP3   OH268565   2.463   6.110   4.445 -0.0529  0.2628  0.3554
15717TIP3    H168566   2.463   6.203   4.469 -2.1046  0.4923 -0.4024
15717TIP3    H268567   2.394   6.103   4.379  0.1900 -1.7719  0.2944
15718TIP3   OH268568   2.440   4.909  14.947 -0.6743 -0.2559  0.2085
15718TIP3    H168569   2.402   4.943  15.028 -0.5835 -1.1345  0.6324
15718TIP3    H268570   2.454   4.816  14.965 -0.4060 -0.4007 -0.7273
15719TIP3   OH268571   5.748   1.387   3.784  0.1085 -0.2250 -0.1505
15719TIP3    H168572   5.807   1.432   3.845 -0.9843 -0.1795  0.9035
15719TIP3    H268573   5.805   1.349   3.719  1.2711  0.2360  0.5785
15720TIP3   OH268574   0.859   2.968   5.687 -1.0384 -0.0950  0.0034
15720TIP3    H168575   0.891   2.895   5.635 -2.3197 -0.2046 -0.6582
15720TIP3    H268576   0.905   2.960   5.770 -0.8960 -1.4585 -0.1922
15721TIP3   OH268577   3.749   1.729  13.470  0.0090  0.4950  0.4258
15721TIP3    H168578   3.660   1.760  13.491  1.0589  2.7828  1.7574
15721TIP3    H268579   3.777   1.785  13.398 -0.0575 -1.0448 -0.8156
15722TIP3   OH268580   0.960   2.136  12.648  0.5429 -0.5644  0.0948
15722TIP3    H168581   1.017   2.123  12.573 -0.9111 -1.3539 -0.9138
15722TIP3    H268582   0.960   2.230  12.664  2.6606 -0.6327  0.5576
15723TIP3   OH268583   3.752   3.876  12.671  0.3101  0.2935 -0.2406
15723TIP3    H168584   3.847   3.890  12.673  0.4028 -0.4189  0.3799
15723TIP3    H268585   3.729   3.855  12.761 -0.5386  1.0709 -0.2682
15724TIP3   OH268586   6.565   1.495   1.760 -0.1378 -0.1705 -0.3046
15724TIP3    H168587   6.551   1.464   1.670 -0.7596 -3.1697  0.7751
15724TIP3    H268588   6.480   1.482   1.803  0.7313 -0.7519  1.2643
15725TIP3   OH268589   1.093   4.510   1.731  0.1790  0.0525 -0.0415
15725TIP3    H168590   1.003   4.521   1.703  0.0167  1.8373  1.1010
15725TIP3    H268591   1.122   4.428   1.690 -1.9793 -0.5851 -0.3239
15726TIP3   OH268592   0.323   3.731  10.685 -0.2121  0.0142 -0.2892
15726TIP3    H168593   0.339   3.787  10.609  0.8104 -0.3179 -0.3295
15726TIP3    H268594   0.309   3.644  10.648 -1.8767  0.2392 -0.2336
15727TIP3   OH268595   5.289   3.069   3.220  0.0020  0.8611 -0.3425
15727TIP3    H168596   5.344   3.145   3.237  0.1139  1.0077 -1.3034
15727TIP3    H268597   5.249   3.087   3.134 -1.2661  0.6036  0.1790
15728TIP3   OH268598   5.032   0.698   4.281  0.7165  0.1893 -0.3263
15728TIP3    H168599   5.101   0.765   4.288  2.0500 -1.1907 -0.1145
15728TIP3    H268600   5.076   0.622   4.243 -0.6006 -0.8673  0.2324
15729TIP3   OH268601   0.217   4.387   1.350  0.1964  0.2508  0.1845
15729TIP3    H168602   0.200   4.294   1.363  0.6740 -0.0114 -1.0580
15729TIP3    H268603   0.249   4.417   1.435  1.3429 -1.0153  0.2276
15730TIP3   OH268604   1.614   6.746   3.677  0.0202 -0.0411 -0.2677
15730TIP3    H168605   1.641   6.671   3.731  0.0968  1.1404  1.3856
15730TIP3    H268606   1.694   6.771   3.630  0.0055 -0.9600 -0.7944
15731TIP3   OH268607   6.751   2.076   1.097 -0.3160  0.3557  0.0346
15731TIP3    H168608   6.830   2.033   1.128 -0.1625  1.9629  1.9359
15731TIP3    H268609   6.679   2.019   1.126 -0.0156  0.3533  0.7664
15732TIP3   OH268610   0.616   4.618   0.740  0.5583 -0.2181 -0.0670
15732TIP3    H168611   0.584   4.698   0.699  0.6334  0.7939  1.8187
15732TIP3    H268612   0.549   4.553   0.720  0.4084  0.3316 -1.4506
15733TIP3   OH268613   2.814   6.252   6.619  0.4504 -0.1385  0.0817
15733TIP3    H168614   2.872   6.190   6.664  0.5878 -0.5837 -0.7147
15733TIP3    H268615   2.736   6.255   6.674  1.3801  0.7890  1.3908
15734TIP3   OH268616   3.569   5.782  11.345  0.6196 -0.1716  0.1485
15734TIP3    H168617   3.510   5.714  11.313  0.3944 -0.1668  0.5601
15734TIP3    H268618   3.645   5.734  11.378 -0.6336 -0.3855  2.8260
15735TIP3   OH268619   4.850   3.046  16.760  0.3499  1.3249 -0.2578
15735TIP3    H168620   4.913   3.088  16.818  0.3623  0.6619  0.2152
15735TIP3    H268621   4.874   2.953  16.761 -0.5750  1.0708 -0.1222
15736TIP3   OH268622   4.428   4.931  15.982 -0.2854  1.0134 -0.7839
15736TIP3    H168623   4.451   5.023  15.994  0.7410  0.8156 -1.1275
15736TIP3    H268624   4.415   4.897  16.070  2.3020  0.7737 -0.4432
15737TIP3   OH268625   1.955   5.195  15.871  0.0629  0.3688  0.5371
15737TIP3    H168626   2.006   5.141  15.931 -0.8944 -1.1458  0.0171
15737TIP3    H268627   1.926   5.269  15.924 -3.4125 -2.4884  2.8948
15738TIP3   OH268628   5.298   1.031  15.296 -0.2604  0.4438  0.2667
15738TIP3    H168629   5.212   1.060  15.325 -0.6901  0.0057 -0.5543
15738TIP3    H268630   5.328   0.971  15.364 -0.7647  0.3041  0.3612
15739TIP3   OH268631   4.042   4.333   1.571  0.5123 -0.5918 -0.5976
15739TIP3    H168632   4.099   4.269   1.614  1.8276  0.1383 -1.2099
15739TIP3    H268633   3.980   4.360   1.639  0.3961 -1.9806 -0.1424
15740TIP3   OH268634   3.759   5.929   3.498  0.0855 -0.5397 -0.8808
15740TIP3    H168635   3.810   6.010   3.495 -1.5089  0.4565 -3.2052
15740TIP3    H268636   3.768   5.891   3.410 -3.2662 -0.1965 -1.4529
15741TIP3   OH268637   2.203   2.449   0.968  0.1601 -0.2625 -0.5189
15741TIP3    H168638   2.180   2.490   1.052  0.5282 -1.4231  0.1688
15741TIP3    H268639   2.167   2.508   0.902  0.8047  1.2192  0.4361
15742TIP3   OH268640   2.649   1.120   4.047  0.6214 -0.3056 -0.0702
15742TIP3    H168641   2.658   1.193   4.109 -2.8173  1.3813 -1.4436
15742TIP3    H268642   2.611   1.049   4.100 -1.6849  0.9132 -0.0293
15743TIP3   OH268643   6.136   3.803  11.395 -0.1926  0.4458 -0.4797
15743TIP3    H168644   6.124   3.843  11.481 -0.5037  0.9506 -0.7528
15743TIP3    H268645   6.051   3.815  11.351  0.0979  0.5741 -1.0080
15744TIP3   OH268646   4.064   1.031  13.554  0.3537  0.0046 -0.0449
15744TIP3    H168647   4.147   1.077  13.565  0.8890 -1.0675  0.5446
15744TIP3    H268648   4.088   0.938  13.554 -0.9498 -0.3477  1.0618
15745TIP3   OH268649   2.951   5.021  11.478 -0.4592  0.1015 -0.0160
15745TIP3    H168650   2.902   5.053  11.554 -0.4901  1.9710 -0.7889
15745TIP3    H268651   2.896   5.042  11.403 -0.5080 -1.8937 -0.5608
15746TIP3   OH268652   3.688   1.774   3.715 -0.1129 -0.3544  0.0243
15746TIP3    H168653   3.689   1.775   3.619 -3.4545 -0.9447 -0.1059
15746TIP3    H268654   3.686   1.681   3.738  0.5640 -0.2100  0.6423
15747TIP3   OH268655   1.388   0.151  11.668  0.2225  0.0496 -0.2182
15747TIP3    H168656   1.468   0.205  11.670  0.6543 -0.6046  0.2231
15747TIP3    H268657   1.391   0.106  11.584  1.5073 -1.7441  0.7498
15748TIP3   OH268658   3.754   1.887   0.207  0.0885  0.1185 -0.1364
15748TIP3    H168659   3.831   1.913   0.258 -0.5837  1.4248  0.2568
15748TIP3    H268660   3.786   1.881   0.117  0.3440  2.1882 -0.2199
15749TIP3   OH268661   4.929   0.768  17.160 -0.2954 -0.0549  0.5085
15749TIP3    H168662   4.842   0.761  17.199  0.1579 -1.7060  1.2603
15749TIP3    H268663   4.954   0.678  17.139  1.1393  0.4196  0.0965
15750TIP3   OH268664   3.681   2.655  16.374 -0.5091  0.4571 -0.6690
15750TIP3    H168665   3.669   2.580  16.316 -1.6877  1.2874 -1.5052
15750TIP3    H268666   3.617   2.642  16.443 -0.3648  0.4432 -0.5353
15751TIP3   OH268667   0.713   2.770  16.331  0.3685 -0.5584 -0.1456
15751TIP3    H168668   0.629   2.801  16.298  0.2995 -0.2860  0.2796
15751TIP3    H268669   0.771   2.773  16.256 -0.0664 -0.9834 -0.4961
15752TIP3   OH268670   0.242   5.241   1.002  0.2073 -0.7015 -0.0259
15752TIP3    H168671   0.198   5.311   1.051  1.7729 -0.7834  1.5128
15752TIP3    H268672   0.183   5.166   1.009  0.4499 -0.7434  1.8444
15753TIP3   OH268673   0.296   2.627  15.198 -0.5585 -0.2771  0.0815
15753TIP3    H168674   0.240   2.700  15.223 -0.6504  0.2863 -1.7710
15753TIP3    H268675   0.385   2.662  15.204 -0.6069  0.0007 -0.8841
15754TIP3   OH268676   2.619   4.682   5.753 -0.5234  0.1339  0.3488
15754TIP3    H168677   2.585   4.635   5.828 -3.0183 -2.2612 -2.1701
15754TIP3    H268678   2.592   4.773   5.767 -2.7331 -0.6508  1.4102
15755TIP3   OH268679   4.875   6.348  16.430 -0.0933 -0.1072  0.2921
15755TIP3    H168680   4.891   6.380  16.341  0.4058 -0.0330  0.4016
15755TIP3    H268681   4.957   6.304  16.454 -0.8456 -1.6547  0.0611
15756TIP3   OH268682   4.793   2.692  12.690 -0.0097 -0.3015  0.4324
15756TIP3    H168683   4.711   2.644  12.701 -0.8838  1.2463  0.9048
15756TIP3    H268684   4.768   2.770  12.639  1.5577 -0.8313 -1.1816
15757TIP3   OH268685   0.257   4.839  16.566 -0.2190  0.5518 -0.0017
15757TIP3    H168686   0.173   4.801  16.541 -0.8723  1.4777  0.7538
15757TIP3    H268687   0.289   4.782  16.637 -0.0138 -0.0363 -0.5641
15758TIP3   OH268688   5.722   1.223  10.671 -0.0423  0.0691 -0.2608
15758TIP3    H168689   5.763   1.270  10.744 -1.9291 -1.7040  2.0543
15758TIP3    H268690   5.753   1.133  10.681 -2.3450 -0.7277 -0.0530
15759TIP3   OH268691   4.707   4.216   3.194 -0.5076  0.2563  0.1221
15759TIP3    H168692   4.762   4.229   3.271  0.7167 -0.6202 -0.5802
15759TIP3    H268693   4.622   4.190   3.229  0.6730 -2.3912  1.1279
15760TIP3   OH268694   3.071   0.320   1.445 -0.2199  0.2724  0.6218
15760TIP3    H168695   3.117   0.253   1.394  0.7387  0.5307  1.1196
15760TIP3    H268696   3.012   0.362   1.383  1.2793  0.9198 -0.4087
15761TIP3   OH268697   5.964   6.241   1.816 -0.1604  1.0630 -0.3329
15761TIP3    H168698   5.888   6.183   1.807  0.3623  0.3592 -0.2704
15761TIP3    H268699   6.036   6.182   1.840  0.8735  1.4112 -2.4410
15762TIP3   OH268700   5.791   1.308  11.942  0.5733 -0.4738  0.1713
15762TIP3    H168701   5.760   1.220  11.960 -0.8924 -0.2601 -1.2247
15762TIP3    H268702   5.758   1.361  12.015 -0.4175 -0.6723 -0.1329
15763TIP3   OH268703   0.528   4.848  14.978  0.0906 -0.2620  1.0514
15763TIP3    H168704   0.486   4.769  14.946 -0.1183  0.4623 -0.5184
15763TIP3    H268705   0.612   4.818  15.014 -0.1372 -1.2275  0.7838
15764TIP3   OH268706   2.934   6.343  13.414  0.0026 -0.1900  0.6578
15764TIP3    H168707   2.994   6.360  13.341 -0.3166  0.6955  0.5995
15764TIP3    H268708   2.943   6.249  13.431  1.0277 -0.1560  0.3182
15765TIP3   OH268709   3.857   3.087   2.206 -0.5072  0.0154 -0.5285
15765TIP3    H168710   3.800   3.117   2.277 -0.4999 -1.8597  0.2882
15765TIP3    H268711   3.796   3.063   2.136 -0.7226 -1.4196  0.1279
15766TIP3   OH268712   0.693   5.600   1.181  0.1790 -0.4764 -0.1321
15766TIP3    H168713   0.646   5.590   1.099  0.1626 -0.2652 -0.1481
15766TIP3    H268714   0.643   5.547   1.244 -0.7422  0.6693  0.1152
15767TIP3   OH268715   0.882   4.416   3.721  0.2386  0.0892  0.3283
15767TIP3    H168716   0.811   4.420   3.656 -1.2247  0.6176  1.9093
15767TIP3    H268717   0.929   4.335   3.700  0.4758  0.7861 -2.0510
15768TIP3   OH268718   5.038   5.744  15.763 -0.0247 -0.8648  0.1673
15768TIP3    H168719   4.951   5.716  15.790 -0.3282  1.6813  2.1388
15768TIP3    H268720   5.071   5.794  15.838  0.9536  2.7526 -2.5137
15769TIP3   OH268721   1.463   5.192   5.127  0.1477  0.7976  0.0443
15769TIP3    H168722   1.488   5.265   5.071  0.2500 -0.4832 -1.6473
15769TIP3    H268723   1.390   5.150   5.080 -0.0364 -0.0692  1.0733
15770TIP3   OH268724   1.997   4.108  16.809 -0.5395 -0.0084 -0.5948
15770TIP3    H168725   2.004   4.066  16.723  1.4903 -0.7528 -0.1138
15770TIP3    H268726   2.025   4.040  16.870 -3.4581  0.0117  0.8144
15771TIP3   OH268727   4.136   0.644  15.189  0.5446  0.5339 -0.1771
15771TIP3    H168728   4.230   0.639  15.172  0.6336  0.4974  0.3190
15771TIP3    H268729   4.105   0.714  15.131  1.0545  1.2551  0.4201
15772TIP3   OH268730   5.667   3.654  13.241 -0.0515  0.1707  1.2393
15772TIP3    H168731   5.588   3.705  13.252  0.6871  1.3922  0.9380
15772TIP3    H268732   5.732   3.698  13.296 -0.1499 -2.1290  3.2962
15773TIP3   OH268733   2.345   1.002  14.218 -0.2432  0.4829 -0.5534
15773TIP3    H168734   2.281   0.979  14.284  1.7978 -2.0328  0.6627
15773TIP3    H268735   2.365   1.095  14.233 -1.6814  0.5911  0.6758
15774TIP3   OH268736   2.705   1.205   2.199  0.5396 -0.2196 -0.5753
15774TIP3    H168737   2.697   1.164   2.285  1.2070 -1.5200 -1.1224
15774TIP3    H268738   2.748   1.139   2.145 -1.2816 -0.0132 -2.3292
15775TIP3   OH268739   3.170   6.771  15.594 -0.1574  0.2506  0.4324
15775TIP3    H168740   3.146   6.859  15.564  0.5503  0.5183  0.6515
15775TIP3    H268741   3.209   6.730  15.516 -0.9613 -0.0468  0.1860
15776TIP3   OH268742   0.158   3.508   5.316 -0.8355 -0.3636  0.4869
15776TIP3    H168743   0.163   3.597   5.281 -1.7267 -0.3201  0.4610
15776TIP3    H268744   0.244   3.493   5.356 -0.5154  0.3264  0.0592
15777TIP3   OH268745   4.210   4.616  15.258  0.3414  0.2077  0.2532
15777TIP3    H168746   4.273   4.545  15.247  0.0944 -0.2380  1.6159
15777TIP3    H268747   4.256   4.682  15.310 -0.3212 -0.1210  1.2587
15778TIP3   OH268748   2.102   2.426  12.796  0.1735 -0.3069 -0.6082
15778TIP3    H168749   2.154   2.470  12.729  0.1062 -0.3576 -0.6932
15778TIP3    H268750   2.093   2.491  12.866  1.0713 -0.5724 -0.2281
15779TIP3   OH268751   6.484   6.512  10.731  0.0315 -0.4336 -0.3577
15779TIP3    H168752   6.533   6.447  10.681  1.0530 -0.0140  0.0760
15779TIP3    H268753   6.426   6.554  10.668 -0.0711 -1.2406 -0.7910
15780TIP3   OH268754   3.224   2.664   1.214 -0.1205  0.3672  0.1851
15780TIP3    H168755   3.198   2.661   1.306 -0.7328 -0.8251 -0.0235
15780TIP3    H268756   3.290   2.596   1.204  1.6763  2.0427  0.2460
15781TIP3   OH268757   1.960   4.469   4.811 -0.4073 -0.6654  0.0082
15781TIP3    H168758   1.935   4.379   4.791 -2.0640 -0.1152 -0.5776
15781TIP3    H268759   1.904   4.522   4.753 -0.4778  0.7657  1.3437
15782TIP3   OH268760   1.141   3.707  13.022  0.6109 -0.6949 -0.2363
15782TIP3    H168761   1.087   3.786  13.019  3.7129  1.6745  2.3782
15782TIP3    H268762   1.100   3.653  13.089 -0.1006 -0.2131 -0.2698
15783TIP3   OH268763   2.551   3.647  11.450  0.2595  0.0628 -0.0052
15783TIP3    H168764   2.546   3.643  11.355 -0.4805 -1.0482  0.0707
15783TIP3    H268765   2.644   3.650  11.470  0.4697 -1.3522 -0.7169
15784TIP3   OH268766   4.924   5.698  16.356  0.3351  0.0850  0.0824
15784TIP3    H168767   4.928   5.752  16.435 -1.3732  0.4502 -0.0634
15784TIP3    H268768   4.981   5.624  16.375  2.4667  1.7377  0.4310
15785TIP3   OH268769   0.173   4.122  16.123  0.2026  0.3079  0.0948
15785TIP3    H168770   0.116   4.070  16.066 -1.1193  1.1011  0.6561
15785TIP3    H268771   0.163   4.212  16.091 -1.5536  0.9641  2.3196
15786TIP3   OH268772   4.929   0.221   4.821  0.2716 -0.0543  0.1601
15786TIP3    H168773   4.995   0.213   4.890 -0.4624  0.4960  0.9403
15786TIP3    H268774   4.867   0.287   4.855 -0.7506 -0.6675 -0.4953
15787TIP3   OH268775   4.091   2.078  15.835 -0.2536  0.0481  0.0346
15787TIP3    H168776   4.076   2.170  15.858 -0.5588  0.6646 -2.4368
15787TIP3    H268777   4.184   2.074  15.815 -0.6483  0.3634 -1.9992
15788TIP3   OH268778   0.305   4.102  13.751 -0.4594  0.0577  0.2349
15788TIP3    H168779   0.393   4.096  13.712 -0.6382  1.6008 -0.4229
15788TIP3    H268780   0.299   4.192  13.783 -1.9083  0.0320  0.0499
15789TIP3   OH268781   1.901   1.322   2.977  0.5108 -0.1419  0.1577
15789TIP3    H168782   1.862   1.379   3.043  1.1258 -1.1672  1.4353
15789TIP3    H268783   1.891   1.234   3.013  0.2728 -0.7801 -1.4275
15790TIP3   OH268784   2.490   6.557  13.166 -0.1426  0.4886 -0.5341
15790TIP3    H168785   2.471   6.626  13.230  1.7896  1.0616 -0.5442
15790TIP3    H268786   2.494   6.477  13.218  1.7903  1.0051  0.1663
15791TIP3   OH268787   2.329   0.165   1.182  0.3243  0.1489 -0.0554
15791TIP3    H168788   2.265   0.210   1.237  0.7138 -1.9032  2.1837
15791TIP3    H268789   2.371   0.102   1.241 -0.1525 -3.0804 -2.9805
15792TIP3   OH268790   5.732   2.080  14.774  0.1035  0.2259 -0.6308
15792TIP3    H168791   5.807   2.104  14.828 -0.5720  1.6888 -0.3079
15792TIP3    H268792   5.742   2.131  14.694 -1.0666  1.2161 -0.1662
15793TIP3   OH268793   0.659   1.792   1.817 -0.6896  0.1114 -0.0467
15793TIP3    H168794   0.692   1.704   1.839 -0.5444 -0.2052 -1.4472
15793TIP3    H268795   0.726   1.851   1.850 -0.6994 -0.3142  0.7541
15794TIP3   OH268796   1.019   3.402  15.340  0.6289  0.5647  0.7780
15794TIP3    H168797   1.053   3.366  15.258 -1.4189 -1.7971  0.8754
15794TIP3    H268798   1.056   3.345  15.408 -0.9573 -0.0861  1.1210
15795TIP3   OH268799   0.046   2.895   6.155 -0.0047  0.5793  0.0123
15795TIP3    H168800   0.040   2.942   6.239  0.9705 -0.7151  0.8304
15795TIP3    H268801   0.124   2.931   6.114 -1.1213  2.0300 -0.8716
15796TIP3   OH268802   6.229   4.845  10.449 -0.6071 -0.2793 -0.0340
15796TIP3    H168803   6.301   4.883  10.399 -1.6705  0.1995 -1.2342
15796TIP3    H268804   6.216   4.905  10.523 -0.1359 -0.0822 -0.1146
15797TIP3   OH268805   4.299   6.431  17.219 -0.2884 -0.6467 -0.1929
15797TIP3    H168806   4.345   6.490  17.159  0.1124 -0.2733  0.4790
15797TIP3    H268807   4.365   6.366  17.243 -0.3768 -0.6413  0.0586
15798TIP3   OH268808   5.801   4.963  16.241  0.1731 -0.3692  0.4615
15798TIP3    H168809   5.791   5.017  16.319  2.0734 -1.3331  1.3886
15798TIP3    H268810   5.799   5.025  16.168 -2.3074  0.4737  1.1812
15799TIP3   OH268811   6.362   2.665  15.898  0.2689 -0.4749  0.5633
15799TIP3    H168812   6.337   2.664  15.991  0.8985 -0.8081  0.7304
15799TIP3    H268813   6.387   2.755  15.881  0.4323 -0.4771  0.7924
15800TIP3   OH268814   5.322   3.929  13.914  0.1011 -0.5230  0.5103
15800TIP3    H168815   5.237   3.913  13.874 -0.4309 -0.2262  1.5131
15800TIP3    H268816   5.340   4.021  13.895 -0.2207 -0.3414  1.0811
15801TIP3   OH268817   5.424   5.016  11.601 -0.1441  0.2162 -0.6865
15801TIP3    H168818   5.494   5.013  11.666  1.3149 -0.6688 -2.2550
15801TIP3    H268819   5.386   5.104  11.610  0.0017  0.0834  1.3660
15802TIP3   OH268820   0.234   2.246   6.668  0.4214 -0.4321 -0.1180
15802TIP3    H168821   0.283   2.216   6.745  0.9346  2.6230  0.7886
15802TIP3    H268822   0.299   2.255   6.599  0.8288  1.6544  0.5160
15803TIP3   OH268823   6.678   3.595   2.934  0.5457  0.2857  0.1975
15803TIP3    H168824   6.610   3.649   2.975  0.8787  1.4227 -0.7371
15803TIP3    H268825   6.753   3.603   2.993 -0.0818 -0.8839  1.1754
15804TIP3   OH268826   5.557   1.276  16.967  0.1733 -0.0557 -0.1231
15804TIP3    H168827   5.642   1.286  16.925  0.8671 -1.7830  0.8277
15804TIP3    H268828   5.503   1.345  16.928  1.4305 -0.1923 -2.1877
15805TIP3   OH268829   5.461   0.288   5.428  0.3510 -0.0398  0.1774
15805TIP3    H168830   5.500   0.273   5.514  2.2014  0.7000 -0.5170
15805TIP3    H268831   5.511   0.231   5.370  1.3770  1.9811 -0.9592
15806TIP3   OH268832   3.510   6.466  11.648  0.0774  0.1592 -0.5020
15806TIP3    H168833   3.563   6.480  11.569 -0.2126 -0.3884 -0.7960
15806TIP3    H268834   3.421   6.489  11.620 -0.0992 -0.4749 -0.4631
15807TIP3   OH268835   0.416   1.391   4.092  0.2504  0.2481  0.0271
15807TIP3    H168836   0.329   1.371   4.059  0.1884  1.0945 -0.3138
15807TIP3    H268837   0.475   1.342   4.035 -0.0990 -2.1323  1.6259
15808TIP3   OH268838   4.933   3.751   1.031 -0.2215  0.1495  0.2161
15808TIP3    H168839   4.934   3.697   0.952 -1.3704 -1.6998  1.4068
15808TIP3    H268840   4.923   3.841   1.000 -1.1345 -0.6007 -1.7129
15809TIP3   OH268841   4.047   5.843  11.748  0.3809  0.0534  0.0564
15809TIP3    H168842   4.139   5.868  11.759  1.1150 -2.1205 -0.8659
15809TIP3    H268843   4.027   5.793  11.827 -0.6098  2.0909  1.1452
15810TIP3   OH268844   0.402   0.815  15.636 -0.0769 -0.8834 -0.1042
15810TIP3    H168845   0.474   0.777  15.586  1.1816 -0.1768  1.1133
15810TIP3    H268846   0.415   0.910  15.627 -0.3007 -0.7524  0.8874
15811TIP3   OH268847   1.810   0.790   1.317  0.1102 -0.2352  0.1769
15811TIP3    H168848   1.856   0.870   1.292 -1.2832  0.3641 -0.5488
15811TIP3    H268849   1.718   0.817   1.326 -0.2588 -1.5975  0.6255
15812TIP3   OH268850   2.058   3.501  11.087 -0.5890 -0.2131  0.3664
15812TIP3    H168851   2.009   3.497  11.170  1.0243  0.9667  1.4043
15812TIP3    H268852   2.110   3.421  11.087 -0.4432 -0.1203  0.5979
15813TIP3   OH268853   1.431   5.156  14.369 -0.1095  0.0795  0.6135
15813TIP3    H168854   1.426   5.092  14.440 -3.1242 -0.4730 -0.0042
15813TIP3    H268855   1.427   5.103  14.289  2.9668  0.7139 -0.0018
15814TIP3   OH268856   0.924   6.022   4.283  0.0925 -0.4558 -0.3265
15814TIP3    H168857   0.832   6.049   4.287  0.3780  0.2401  2.7025
15814TIP3    H268858   0.949   6.034   4.191 -2.2236  1.3774 -0.7520
15815TIP3   OH268859   4.482   5.274  12.055 -0.3332 -0.1668 -0.0082
15815TIP3    H168860   4.547   5.258  11.986  0.8834  0.9516  0.8527
15815TIP3    H268861   4.532   5.311  12.127 -1.8196 -0.0153  0.9741
15816TIP3   OH268862   0.096   3.840  15.447 -0.1149 -0.2502 -0.0052
15816TIP3    H168863   0.072   3.932  15.435 -2.0648 -0.6833  0.4382
15816TIP3    H268864   0.091   3.803  15.359 -0.8652 -0.2852  0.0492
15817TIP3   OH268865   1.376   3.533   3.026  0.1859 -0.4458  0.0804
15817TIP3    H168866   1.406   3.509   2.938  0.7625 -0.3249  0.2427
15817TIP3    H268867   1.375   3.629   3.026 -4.7787 -0.3804 -1.4765
15818TIP3   OH268868   3.800   2.198  10.961 -0.2139  0.4879  0.4469
15818TIP3    H168869   3.833   2.288  10.957  2.7740 -0.6604 -2.0896
15818TIP3    H268870   3.737   2.193  10.889  2.0628 -0.3596 -1.5157
15819TIP3   OH268871   4.598   4.363   1.034 -0.8259 -0.2100  0.3072
15819TIP3    H168872   4.583   4.295   1.100  0.5664  0.6266  1.5378
15819TIP3    H268873   4.692   4.380   1.038 -0.8182  0.2664 -1.5109
15820TIP3   OH268874   3.203   5.579  14.400  0.0652  0.1858  0.4312
15820TIP3    H168875   3.138   5.542  14.341  1.7961  0.9538 -1.9975
15820TIP3    H268876   3.273   5.611  14.343  1.5452  1.4218  2.8497
15821TIP3   OH268877   1.965   5.151  12.485 -0.0043 -0.0565 -0.1926
15821TIP3    H168878   1.913   5.218  12.528  0.2613 -0.4974  0.8237
15821TIP3    H268879   2.049   5.193  12.467 -0.4286  0.4092 -1.1208
15822TIP3   OH268880   2.228   4.112   0.790 -0.2559 -0.2399  0.3329
15822TIP3    H168881   2.306   4.152   0.750 -2.4375  2.4721 -1.4741
15822TIP3    H268882   2.205   4.171   0.862  0.5384 -2.2056  2.2621
15823TIP3   OH268883   5.764   4.927  16.545 -0.6465 -0.2780  0.2682
15823TIP3    H168884   5.838   4.872  16.518  0.1665  0.4742  0.9308
15823TIP3    H268885   5.687   4.871  16.533  0.0487 -1.1643 -0.1719
15824TIP3   OH268886   3.268   3.905  15.347  0.0880 -0.9674 -0.6631
15824TIP3    H168887   3.183   3.861  15.345 -0.5423  0.1860  0.2683
15824TIP3    H268888   3.285   3.930  15.256  0.0276 -2.3039 -1.0466
15825TIP3   OH268889   2.937   2.048  16.927  0.2126 -0.2863  0.0093
15825TIP3    H168890   3.009   2.014  16.874  1.4497  1.1021  0.7692
15825TIP3    H268891   2.943   2.143  16.918 -2.2993 -0.1655 -0.9128
15826TIP3   OH268892   6.513   5.030   5.104 -0.6013 -0.3190  0.2270
15826TIP3    H168893   6.501   4.985   5.187  0.3145 -0.0981  0.4867
15826TIP3    H268894   6.504   5.123   5.126  2.1728 -0.0906  0.5704
15827TIP3   OH268895   1.125   5.928   1.017  0.1457 -0.1940 -0.3043
15827TIP3    H168896   1.193   5.903   0.956 -0.0304 -0.6803 -0.3000
15827TIP3    H268897   1.141   5.875   1.095 -0.1465 -0.1961 -0.2448
15828TIP3   OH268898   1.536   5.370   1.171  0.0168 -0.1651  0.2096
15828TIP3    H168899   1.576   5.311   1.235  0.2387 -0.0067  0.2188
15828TIP3    H268900   1.604   5.381   1.104 -0.0397  0.0536  0.1897
15829TIP3   OH268901   0.083   0.320   4.464  0.2822 -0.3488 -0.1704
15829TIP3    H168902   0.049   0.355   4.381  1.6603  0.2329 -0.5112
15829TIP3    H268903   0.152   0.381   4.488  0.8902 -1.3554  0.6499
15830TIP3   OH268904   0.198   2.500  14.810  0.1904 -0.3230  0.4074
15830TIP3    H168905   0.113   2.538  14.836  0.5077 -0.1090  1.1346
15830TIP3    H268906   0.237   2.566  14.753  0.0628 -0.2312  0.4269
15831TIP3   OH268907   0.489   0.658   1.827 -0.4307 -0.3137  0.2994
15831TIP3    H168908   0.479   0.588   1.763  1.4362 -0.4917  0.1553
15831TIP3    H268909   0.533   0.616   1.901 -0.5551  0.3936  0.7774
15832TIP3   OH268910   1.432   3.659  11.695 -0.3626 -0.1346 -0.1371
15832TIP3    H168911   1.360   3.693  11.750 -0.4430  0.2082 -0.4567
15832TIP3    H268912   1.458   3.733  11.641  1.8068  0.4314  1.5963
15833TIP3   OH268913   1.447   1.776   5.385  0.2415 -0.3830 -0.0315
15833TIP3    H168914   1.409   1.723   5.455 -0.1692 -1.1499 -0.8286
15833TIP3    H268915   1.384   1.847   5.372  0.7312  0.2478  0.9505
15834TIP3   OH268916   6.103   6.206   0.801  0.0704 -0.9217 -0.0947
15834TIP3    H168917   6.026   6.156   0.825  0.0461 -0.3116  1.1661
15834TIP3    H268918   6.074   6.263   0.730 -0.2248 -1.8121 -0.6788
15835TIP3   OH268919   0.736   2.171  14.901 -0.3765  0.2224  0.4464
15835TIP3    H168920   0.665   2.225  14.936 -0.3312  0.1255  0.6825
15835TIP3    H268921   0.812   2.229  14.898 -0.4874  0.3551  0.1004
15836TIP3   OH268922   4.947   2.020   6.490 -0.2519  0.0578  0.0535
15836TIP3    H168923   4.987   2.038   6.575  1.0846  1.8281 -0.9217
15836TIP3    H268924   5.020   2.016   6.429 -1.4750  3.2663 -1.7676
15837TIP3   OH268925   4.273   1.860  11.604  0.4697 -0.2258  0.1312
15837TIP3    H168926   4.282   1.807  11.525  1.0861 -0.3031  0.2500
15837TIP3    H268927   4.254   1.948  11.572 -0.0909 -0.4203 -0.0788
15838TIP3   OH268928   5.810   1.931  16.801 -0.0794  0.2064 -0.2830
15838TIP3    H168929   5.861   1.877  16.741  0.4227  0.8462 -0.4444
15838TIP3    H268930   5.719   1.918  16.774  0.0187 -0.7070 -0.1836
15839TIP3   OH268931   0.354   6.362  16.841 -0.2531  0.6804  0.0526
15839TIP3    H168932   0.365   6.453  16.814  1.3454  0.8628  1.2130
15839TIP3    H268933   0.340   6.314  16.760 -1.0277  1.9371 -0.5773
15840TIP3   OH268934   3.776   5.133   4.003  0.3052  0.3754 -0.0593
15840TIP3    H168935   3.821   5.123   4.087 -0.7161  0.4842  0.5232
15840TIP3    H268936   3.698   5.078   4.011  1.1305 -1.0492 -1.6461
15841TIP3   OH268937   5.690   1.767   2.773 -0.3231  0.2104 -0.2971
15841TIP3    H168938   5.684   1.797   2.864  1.1491 -0.2891 -0.0168
15841TIP3    H268939   5.716   1.675   2.779  1.9278  0.7308 -1.2104
15842TIP3   OH268940   5.789   2.559   5.990  0.1799  0.0505  0.6016
15842TIP3    H168941   5.829   2.561   6.077  1.7423 -1.4487 -0.0416
15842TIP3    H268942   5.829   2.483   5.947 -1.4301  0.0762 -1.0195
15843TIP3   OH268943   6.013   0.981  12.404 -0.4405 -0.1941  0.0612
15843TIP3    H168944   5.989   0.889  12.401 -0.3518 -0.2118 -0.1128
15843TIP3    H268945   6.004   1.011  12.313 -3.6668  0.7967  0.6463
15844TIP3   OH268946   3.223   4.442   1.368  0.3309 -0.4744  0.5055
15844TIP3    H168947   3.151   4.505   1.372  1.4835  0.8982  0.3602
15844TIP3    H268948   3.266   4.461   1.284  1.8279 -0.1536  1.3315
15845TIP3   OH268949   5.890   5.030  17.237 -0.0399 -0.3541  0.1488
15845TIP3    H168950   5.976   5.071  17.235 -0.6604  1.0151  0.9437
15845TIP3    H268951   5.879   4.993  17.150  1.0307  0.1085 -0.1900
15846TIP3   OH268952   6.344   0.490  14.197 -0.1587  0.4756  0.2421
15846TIP3    H168953   6.403   0.442  14.255  0.1143 -0.0387 -0.4719
15846TIP3    H268954   6.365   0.582  14.213 -0.0507  0.3348  0.9251
15847TIP3   OH268955   1.115   3.924  12.807 -0.6539 -0.3949  0.1145
15847TIP3    H168956   1.041   3.893  12.755  1.3927 -2.7504 -1.5220
15847TIP3    H268957   1.181   3.947  12.742  1.1179 -1.1855  1.6139
15848TIP3   OH268958   0.925   5.304   1.297  0.0840 -0.2357 -0.0440
15848TIP3    H168959   0.948   5.301   1.390  0.7615  1.1654 -0.1593
15848TIP3    H268960   0.938   5.214   1.266  1.0499 -0.4302  0.9210
15849TIP3   OH268961   4.176   6.324  15.520  0.8845  0.3512 -0.0366
15849TIP3    H168962   4.177   6.335  15.425  0.7861  0.1787 -0.0590
15849TIP3    H268963   4.123   6.246  15.534  2.3760 -0.6583  0.0571
15850TIP3   OH268964   0.947   3.934   1.039 -0.0251  0.6040  0.0705
15850TIP3    H168965   0.983   3.876   1.106  0.8985  2.3936  1.1750
15850TIP3    H268966   1.023   3.960   0.987 -0.6868 -0.5028 -1.4821
15851TIP3   OH268967   2.749   1.011   2.007 -0.1821 -0.0656 -0.7171
15851TIP3    H168968   2.817   0.959   1.964 -0.8602 -0.4452 -1.3383
15851TIP3    H268969   2.681   0.948   2.030 -0.2616  0.2894  0.0383
15852TIP3   OH268970   3.703   3.712   4.839  0.3249 -0.9770  0.2792
15852TIP3    H168971   3.677   3.652   4.769  1.0722  0.0950 -0.9424
15852TIP3    H268972   3.719   3.655   4.915  0.1154 -2.2178 -0.5923
15853TIP3   OH268973   3.315   2.843   3.849 -0.0161 -0.0585  0.6155
15853TIP3    H168974   3.338   2.752   3.865 -0.1716  0.1317  2.0209
15853TIP3    H268975   3.398   2.886   3.831 -0.0624 -0.6764 -1.1230
15854TIP3   OH268976   2.571   5.375  16.545 -0.3127  0.3231  0.4780
15854TIP3    H168977   2.481   5.394  16.519 -0.4834  0.5493  1.2197
15854TIP3    H268978   2.612   5.340  16.466 -0.7804  1.1401 -0.1353
15855TIP3   OH268979   5.111   3.662   0.208 -0.3012  0.0958  0.4525
15855TIP3    H168980   5.134   3.754   0.217  0.7743 -0.1630  0.3716
15855TIP3    H268981   5.092   3.651   0.114  2.7692 -0.4860 -0.1426
15856TIP3   OH268982   3.006   4.099  14.277 -0.1328  0.1227 -0.4298
15856TIP3    H168983   3.004   4.066  14.367 -0.2112 -0.1403 -0.5252
15856TIP3    H268984   3.064   4.174  14.280 -0.8303  0.6485  0.0167
15857TIP3   OH268985   1.601   1.633   6.140  0.0923  0.0167 -0.3937
15857TIP3    H168986   1.566   1.722   6.140  0.0367  0.0061 -1.4070
15857TIP3    H268987   1.528   1.578   6.112  0.2389 -0.2989 -0.1573
15858TIP3   OH268988   4.353   2.992   5.993  0.3586  0.0395  0.3478
15858TIP3    H168989   4.376   3.002   6.085  0.7287  0.7077  0.1851
15858TIP3    H268990   4.429   2.947   5.954  1.8123  2.9720 -0.3565
15859TIP3   OH268991   3.415   5.601  14.014  0.2011 -0.0756 -0.3058
15859TIP3    H168992   3.374   5.519  14.041  1.4131 -0.4157  0.5242
15859TIP3    H268993   3.509   5.583  14.016  0.4919  1.4375  0.2081
15860TIP3   OH268994   5.266   1.323   0.141 -0.3751  0.3901  0.9186
15860TIP3    H168995   5.202   1.319   0.070 -0.5880  3.5139  0.8418
15860TIP3    H268996   5.349   1.339   0.097 -0.1122 -0.1076  1.2338
15861TIP3   OH268997   4.074   0.628   3.721 -0.6475 -0.0658  0.3479
15861TIP3    H168998   4.006   0.561   3.730 -0.6139 -0.1962 -0.3318
15861TIP3    H268999   4.146   0.584   3.676 -0.5916  0.3932 -0.0223
15862TIP3   OH269000   1.562   0.565  13.390  0.1815 -1.2768 -0.1297
15862TIP3    H169001   1.568   0.497  13.457  1.0422 -0.5173  0.5639
15862TIP3    H269002   1.643   0.557  13.340  0.6807 -0.1957  0.4950
15863TIP3   OH269003   0.018   5.148  13.975 -0.2097  0.2635  0.0745
15863TIP3    H169004   0.026   5.093  14.053  1.0787 -0.3028 -0.4423
15863TIP3    H269005   0.044   5.090  13.902 -1.0698  0.8816 -0.7363
15864TIP3   OH269006   1.887   3.075   5.411 -0.5457  0.1806  0.4717
15864TIP3    H169007   1.812   3.124   5.444 -0.6959  0.7892 -0.7239
15864TIP3    H269008   1.882   3.086   5.316  1.8823  1.4447  0.4610
15865TIP3   OH269009   0.294   4.749   4.495  0.9899 -0.0111 -0.3272
15865TIP3    H169010   0.330   4.838   4.495  0.6985  0.1083 -0.3629
15865TIP3    H269011   0.228   4.750   4.426 -0.4554  0.3463  1.0223
15866TIP3   OH269012   0.586   6.348  16.058  0.7808  0.0608  0.3945
15866TIP3    H169013   0.644   6.380  15.989 -0.2897  0.1396 -0.4881
15866TIP3    H269014   0.596   6.411  16.129  3.1102 -0.8939  0.9618
15867TIP3   OH269015   3.513   3.327   5.993  0.3469  0.2252  0.0344
15867TIP3    H169016   3.535   3.378   6.071 -0.2747 -0.8610  0.9382
15867TIP3    H269017   3.497   3.392   5.926  1.1212  1.1771  0.7517
15868TIP3   OH269018   4.677   1.127  14.414  0.3127 -0.5915 -0.5621
15868TIP3    H169019   4.676   1.035  14.440  0.3888 -0.7255 -1.0346
15868TIP3    H269020   4.590   1.159  14.440 -0.8399 -1.5450 -3.0590
15869TIP3   OH269021   4.531   2.622  16.370  0.1293 -0.3718 -0.0278
15869TIP3    H169022   4.492   2.709  16.360  0.0714 -0.3242  0.6019
15869TIP3    H269023   4.466   2.562  16.334  0.1545 -0.1564 -0.4313
15870TIP3   OH269024   2.576   6.586  16.816  0.4966 -0.0000 -0.5048
15870TIP3    H169025   2.624   6.532  16.879  0.9617 -0.4323 -1.2201
15870TIP3    H269026   2.596   6.676  16.842  0.2445 -0.1757  0.2945
15871TIP3   OH269027   6.740   0.093   3.820  0.2933  0.0846 -0.1301
15871TIP3    H169028   6.712   0.161   3.759  0.5354 -1.2595 -1.7721
15871TIP3    H269029   6.835   0.101   3.823  0.5723 -1.9040 -2.4416
15872TIP3   OH269030   2.966   0.257  15.025  0.3283 -0.2944  0.3122
15872TIP3    H169031   3.060   0.237  15.031  0.2096 -0.5428  1.5172
15872TIP3    H269032   2.957   0.304  14.943  1.4181 -0.8225 -0.1257
15873TIP3   OH269033   1.983   3.294  11.438  0.1676 -0.3326 -0.3180
15873TIP3    H169034   2.049   3.229  11.413 -0.4970 -1.7385  1.5066
15873TIP3    H269035   1.900   3.254  11.412 -0.4911 -1.5523  3.4280
15874TIP3   OH269036   2.392   2.247  16.053  0.3709 -0.8913 -0.0371
15874TIP3    H169037   2.477   2.280  16.082 -0.2666  1.2141 -0.4737
15874TIP3    H269038   2.349   2.218  16.133 -0.3242  2.3980  0.8432
15875TIP3   OH269039   4.616   3.609   2.658 -0.1683 -0.3658  0.1083
15875TIP3    H169040   4.607   3.515   2.671  1.3329 -0.5104  0.1534
15875TIP3    H269041   4.677   3.618   2.584  0.4719  0.5649  0.7352
15876TIP3   OH269042   4.532   0.670  16.516  0.1447  0.3744  0.6238
15876TIP3    H169043   4.541   0.688  16.610 -0.7215 -0.1880  0.8266
15876TIP3    H269044   4.494   0.582  16.513 -0.5573  0.7017 -0.2427
15877TIP3   OH269045   2.503   2.983  13.628  0.4157 -0.8519 -0.3694
15877TIP3    H169046   2.456   2.903  13.602  0.6520 -1.1848  0.2255
15877TIP3    H269047   2.584   2.952  13.667  1.2935 -0.2628 -1.6801
15878TIP3   OH269048   5.231   0.195   0.522  0.5669  0.2453 -0.5154
15878TIP3    H169049   5.142   0.228   0.510  0.6675  0.5940 -0.2967
15878TIP3    H269050   5.276   0.217   0.441  0.8206  1.2404 -0.1018
15879TIP3   OH269051   4.258   4.246   2.319  0.0434 -0.2742  0.2947
15879TIP3    H169052   4.230   4.199   2.397  0.3245  0.5548  0.9037
15879TIP3    H269053   4.178   4.257   2.267 -0.8360  2.2234  2.0902
15880TIP3   OH269054   0.047   3.741  16.461 -0.3695  0.8742  0.2077
15880TIP3    H169055   0.064   3.724  16.368  0.0551  0.9186  0.2756
15880TIP3    H269056   0.052   3.836  16.469 -0.4958  0.8763  0.2625
15881TIP3   OH269057   4.439   6.324  16.966  0.0181  0.5015  0.2118
15881TIP3    H169058   4.436   6.234  16.999  1.4826  1.1593  2.2234
15881TIP3    H269059   4.513   6.325  16.906  2.4835  1.2614  3.1383
15882TIP3   OH269060   4.126   6.236  12.648  0.4334 -0.3040 -0.0082
15882TIP3    H169061   4.110   6.209  12.558  0.5037 -0.4766  0.0323
15882TIP3    H269062   4.202   6.294  12.643 -0.4715  0.8896 -0.2681
15883TIP3   OH269063   0.553   0.830  14.209  0.1169 -0.4703 -0.3061
15883TIP3    H169064   0.610   0.878  14.150 -2.5116  1.5983 -1.2419
15883TIP3    H269065   0.491   0.785  14.152 -0.9991 -0.3527  0.7915
15884TIP3   OH269066   1.174   4.797  13.120  0.3559  0.3265  0.2421
15884TIP3    H169067   1.136   4.790  13.208  0.8401  2.0135  0.6020
15884TIP3    H269068   1.267   4.781  13.133  0.3016 -0.2625 -0.0967
15885TIP3   OH269069   1.787   1.436  12.013 -0.1495 -0.2209  0.5392
15885TIP3    H169070   1.871   1.406  12.049  0.2002  1.4231  1.1250
15885TIP3    H269071   1.802   1.440  11.919 -0.0182 -1.2900  0.4999
15886TIP3   OH269072   0.436   4.386  12.504  0.3755  0.3266 -0.2039
15886TIP3    H169073   0.344   4.372  12.529  0.5451 -0.3011  0.0736
15886TIP3    H269074   0.483   4.314  12.547  0.8942  0.2029 -0.9848
15887TIP3   OH269075   2.188   2.457  12.293 -0.4328  0.5193  0.3154
15887TIP3    H169076   2.256   2.390  12.294 -0.2062  0.7499  0.3384
15887TIP3    H269077   2.211   2.513  12.219 -1.7045 -0.5470 -0.9336
15888TIP3   OH269078   1.939   5.045  16.365 -0.2241 -0.3867 -0.1054
15888TIP3    H169079   1.991   5.125  16.369 -0.2012 -0.4975  3.3101
15888TIP3    H269080   1.996   4.978  16.403 -1.4881 -1.2761  0.2562
15889TIP3   OH269081   2.498   3.376   2.553  0.0662 -0.3830  0.0489
15889TIP3    H169082   2.526   3.343   2.468  1.6349 -0.6377  0.6342
15889TIP3    H269083   2.496   3.298   2.610  1.2069  0.0972  0.7773
15890TIP3   OH269084   1.903   5.710  11.899 -0.0492 -0.1878  0.0086
15890TIP3    H169085   1.884   5.772  11.970 -0.6311 -0.1705 -0.1622
15890TIP3    H269086   1.851   5.633  11.920  0.8526 -0.7121  0.3434
15891TIP3   OH269087   3.338   5.160  12.361  0.2647  0.5980 -0.3141
15891TIP3    H169088   3.375   5.166  12.449  0.8425  1.4944 -0.5984
15891TIP3    H269089   3.356   5.071  12.332 -0.6980  0.0360  0.8025
15892TIP3   OH269090   0.335   4.652   2.229  0.0953  0.0492 -1.0172
15892TIP3    H169091   0.370   4.681   2.145  1.3709  0.7454 -0.2480
15892TIP3    H269092   0.357   4.722   2.290 -1.1848 -0.2709 -0.1811
15893TIP3   OH269093   1.645   2.871  13.215  0.0257  0.2597 -0.6143
15893TIP3    H169094   1.575   2.933  13.234  2.1814  2.4959  0.4485
15893TIP3    H269095   1.637   2.805  13.283  0.1244  1.5824  0.7215
15894TIP3   OH269096   6.496   2.068   2.252 -0.2143 -0.6587 -0.1382
15894TIP3    H169097   6.422   2.128   2.238 -0.0903 -0.2325  0.9567
15894TIP3    H269098   6.455   1.984   2.274 -0.3893 -0.9662 -1.6066
15895TIP3   OH269099   5.950   0.031   4.405 -0.4026  0.3373  0.0841
15895TIP3    H169100   5.929   0.051   4.497 -0.3839  0.1778  0.1234
15895TIP3    H269101   5.911   0.102   4.356 -1.6862 -0.3491  0.0969
15896TIP3   OH269102   4.427   1.819  14.225  0.4544 -0.1018 -0.1016
15896TIP3    H169103   4.355   1.882  14.225  1.3671  0.9985  1.0316
15896TIP3    H269104   4.504   1.872  14.247  1.4586 -1.3988 -0.4358
15897TIP3   OH269105   0.434   2.229   4.991 -0.2796  0.4484  0.4997
15897TIP3    H169106   0.477   2.272   4.917 -0.5794 -0.0180  0.0544
15897TIP3    H269107   0.346   2.267   4.994 -0.3570  0.2701  0.4552
15898TIP3   OH269108   5.915   3.063   4.858 -0.1746  0.1799 -0.1638
15898TIP3    H169109   5.969   3.014   4.920  0.2812 -1.8849 -2.1209
15898TIP3    H269110   5.840   3.093   4.910  0.7523 -0.5283  1.6282
15899TIP3   OH269111   1.164   0.762  11.571 -0.2025  0.1335  0.0203
15899TIP3    H169112   1.082   0.780  11.526 -0.3284 -1.8418 -0.6103
15899TIP3    H269113   1.232   0.800  11.515 -0.6493  1.3568  0.3064
15900TIP3   OH269114   2.269   4.569   0.028 -1.0147  0.2385  0.2576
15900TIP3    H169115   2.191   4.565  -0.028 -0.0654 -0.7390 -1.0449
15900TIP3    H269116   2.313   4.650   0.002  0.1975 -0.9408 -1.5349
15901TIP3   OH269117   0.956   0.368  13.363  0.9727 -0.1759  0.8362
15901TIP3    H169118   0.936   0.410  13.279  0.5301  0.4437  1.2477
15901TIP3    H269119   1.019   0.427  13.405  1.7120 -0.8291  0.6485
15902TIP3   OH269120   0.725   5.704   5.906  0.1483  0.2290  0.2322
15902TIP3    H169121   0.653   5.730   5.963  0.7675  0.4202  0.9387
15902TIP3    H269122   0.768   5.632   5.953  0.8168  0.5571  0.1261
15903TIP3   OH269123   6.544   3.425  14.671  0.1499 -0.3204  0.2113
15903TIP3    H169124   6.468   3.480  14.651 -0.1204 -0.7895 -0.0767
15903TIP3    H269125   6.505   3.342  14.702  0.5421 -0.6754 -0.2474
15904TIP3   OH269126   3.919   1.673   3.251  0.2840  0.0543  0.0563
15904TIP3    H169127   3.991   1.717   3.295  0.9205  0.7280 -1.5924
15904TIP3    H269128   3.961   1.630   3.175 -0.6437 -1.6977  0.5117
15905TIP3   OH269129   0.617   5.608   4.183  0.0091 -0.1365 -0.1560
15905TIP3    H169130   0.587   5.542   4.245 -0.8581  0.4187  0.0213
15905TIP3    H269131   0.545   5.671   4.179 -0.0660 -0.3300 -1.9591
15906TIP3   OH269132   1.879   1.997  14.268 -0.0655 -0.3299 -0.2863
15906TIP3    H169133   1.911   1.980  14.180  0.7337  1.0069 -0.2644
15906TIP3    H269134   1.893   2.091  14.281 -2.3722 -0.0593  0.3838
15907TIP3   OH269135   2.581   0.736  12.902 -0.3354  0.2070  0.2512
15907TIP3    H169136   2.669   0.772  12.914 -0.2688  0.1436 -0.0441
15907TIP3    H269137   2.567   0.681  12.979 -0.3758  0.7348  0.6246
15908TIP3   OH269138   2.437   2.023  14.786  0.6711 -0.8793  0.5759
15908TIP3    H169139   2.484   1.953  14.742  2.2306 -0.2985  1.2901
15908TIP3    H269140   2.415   2.085  14.716  3.3841  0.1805  0.5835
15909TIP3   OH269141   1.887   1.975  14.528 -0.4133  0.2883  0.3577
15909TIP3    H169142   1.902   1.886  14.560  0.9377  0.5696  0.5708
15909TIP3    H269143   1.867   1.964  14.435  1.4719 -0.1318 -0.0233
15910TIP3   OH269144   6.700   5.896  16.485 -0.3781 -0.0723  0.4129
15910TIP3    H169145   6.680   5.906  16.392 -0.1130  0.1512  0.3793
15910TIP3    H269146   6.723   5.804  16.496  2.5137  0.5213 -0.3076
15911TIP3   OH269147   5.207   6.154   5.986 -0.7060  0.6176 -0.9133
15911TIP3    H169148   5.187   6.073   5.939 -2.0013  1.7930 -2.4173
15911TIP3    H269149   5.300   6.145   6.010 -0.5770 -0.8820 -1.8891
15912TIP3   OH269150   1.047   3.729  12.598  0.4195  0.2630 -0.2971
15912TIP3    H169151   1.045   3.690  12.510 -1.6645 -1.1555  0.3481
15912TIP3    H269152   1.076   3.657  12.655  2.7849  1.4646  0.0693
15913TIP3   OH269153   2.100   4.953   5.510  0.3468  0.0776 -0.2820
15913TIP3    H169154   2.009   4.957   5.540  0.7100 -0.7421  0.9718
15913TIP3    H269155   2.143   5.026   5.555  1.1124 -1.7344  2.0716
15914TIP3   OH269156   2.025   1.582  12.493 -0.0824 -0.5999 -0.2794
15914TIP3    H169157   2.049   1.675  12.499  2.2530 -1.2994  1.9532
15914TIP3    H269158   2.064   1.553  12.410 -1.0817  0.4404 -1.1439
15915TIP3   OH269159   5.543   6.310  17.193  0.4185  0.4218  0.0462
15915TIP3    H169160   5.547   6.215  17.200 -0.3836  0.2572 -1.4567
15915TIP3    H269161   5.491   6.338  17.268 -0.5330 -0.4554 -0.2792
15916TIP3   OH269162   6.685   4.073  13.393  0.0404 -0.2080  0.5633
15916TIP3    H169163   6.638   4.025  13.461  0.1732  0.1746  0.9266
15916TIP3    H269164   6.659   4.030  13.311  0.9176 -1.5125  0.9647
15917TIP3   OH269165   5.971   0.643   6.732 -0.2512  0.0939 -0.5617
15917TIP3    H169166   6.046   0.656   6.675 -0.5857  0.0230 -1.0191
15917TIP3    H269167   5.937   0.731   6.747 -1.2971 -0.0390 -2.0155
15918TIP3   OH269168   4.186   5.085  10.307 -0.6446  0.1305  0.2805
15918TIP3    H169169   4.136   5.137  10.371  1.8140  2.4797  0.3775
15918TIP3    H269170   4.245   5.148  10.266  0.7844 -2.1835 -1.3150
15919TIP3   OH269171   6.472   4.840   1.701 -0.5534 -0.4946 -0.4881
15919TIP3    H169172   6.443   4.771   1.642 -1.5448  0.1165 -0.7254
15919TIP3    H269173   6.443   4.812   1.787 -1.5352 -0.0550 -0.6765
15920TIP3   OH269174   0.146   4.370  15.998  0.4902 -0.7535  0.1803
15920TIP3    H169175   0.196   4.409  15.927 -1.8543  0.2429 -0.9775
15920TIP3    H269176   0.120   4.444  16.053 -0.3046 -1.1491  0.3542
15921TIP3   OH269177   1.342   5.867  14.997  0.6768  0.7220 -0.2719
15921TIP3    H169178   1.326   5.932  15.065 -1.5924 -0.2683  0.2002
15921TIP3    H269179   1.331   5.783  15.041  1.2923  0.0458 -1.3908
15922TIP3   OH269180   1.196   0.373  17.124  0.0765  0.6332  0.2061
15922TIP3    H169181   1.116   0.421  17.147 -0.2592  0.2578 -0.1648
15922TIP3    H269182   1.170   0.319  17.049  0.9543  1.2945 -0.5996
15923TIP3   OH269183   2.586   6.782  13.729 -0.0823 -0.2382 -0.2719
15923TIP3    H169184   2.567   6.872  13.704 -1.6048 -0.0298  1.5459
15923TIP3    H269185   2.658   6.789  13.792 -1.2507 -0.1410  1.0762
15924TIP3   OH269186   0.829   2.606  12.518 -0.2868  0.2931 -0.2399
15924TIP3    H169187   0.867   2.523  12.487 -2.1394 -0.4153 -0.6821
15924TIP3    H269188   0.772   2.581  12.590 -0.2642  1.2871  0.1315
15925TIP3   OH269189   6.101   1.627  15.915 -0.5044  0.1685  0.9049
15925TIP3    H169190   6.095   1.658  15.825 -1.2273 -2.2815  0.0885
15925TIP3    H269191   6.128   1.704  15.965 -1.6599  1.9620 -1.1530
15926TIP3   OH269192   0.087   2.391  11.167 -0.3498 -0.0791  0.3725
15926TIP3    H169193   0.181   2.381  11.152  0.0198  1.5579  1.4492
15926TIP3    H269194   0.074   2.366  11.258 -1.1697 -1.5131 -0.1319
15927TIP3   OH269195   0.465   4.962   0.324  0.4255 -0.3626  0.2930
15927TIP3    H169196   0.439   5.008   0.403  0.2703  1.0876 -0.5894
15927TIP3    H269197   0.561   4.954   0.332  0.3283 -0.9728  0.9989
15928TIP3   OH269198   6.668   1.610   6.318 -0.1433 -0.0057  0.1648
15928TIP3    H169199   6.639   1.662   6.393 -0.5743  1.4834 -1.0194
15928TIP3    H269200   6.651   1.520   6.344 -0.9582  0.5323  1.5811
15929TIP3   OH269201   0.274   3.739   1.735  0.1801 -0.2976  0.3083
15929TIP3    H169202   0.311   3.704   1.654 -0.6153 -0.2228 -0.0967
15929TIP3    H269203   0.205   3.677   1.759 -1.2855  0.9971 -0.4497
15930TIP3   OH269204   0.619   5.410   0.608 -0.0831 -0.0512 -0.3518
15930TIP3    H169205   0.683   5.476   0.634  0.0739 -0.4213  0.2172
15930TIP3    H269206   0.550   5.417   0.673  0.2463 -0.8889  0.1011
15931TIP3   OH269207   5.231   3.673  11.363 -0.2507  0.2136  0.7107
15931TIP3    H169208   5.193   3.715  11.440  0.0249 -1.2451  1.6643
15931TIP3    H269209   5.321   3.652  11.390 -0.1242 -0.2071 -0.0408
15932TIP3   OH269210   6.487   0.940  11.384 -0.0376  0.2928 -0.1310
15932TIP3    H169211   6.437   0.861  11.404 -0.8840  1.0486  0.7642
15932TIP3    H269212   6.578   0.914  11.396 -0.4157  0.0764  2.4339
15933TIP3   OH269213   0.334   4.797  16.024  0.2388  0.0840  0.1757
15933TIP3    H169214   0.341   4.716  16.075 -0.9999  0.1681  0.4909
15933TIP3    H269215   0.378   4.777  15.941  1.1732 -0.4603  0.7897
15934TIP3   OH269216   0.940   2.037   0.272 -0.8010 -0.3284 -0.4286
15934TIP3    H169217   0.866   1.998   0.318 -2.8615  3.0964 -0.6870
15934TIP3    H269218   0.974   2.103   0.333  2.2070 -1.9277 -0.2538
15935TIP3   OH269219   0.525   2.309  15.396 -0.0525  0.0322 -0.3604
15935TIP3    H169220   0.567   2.394  15.387 -1.4017  1.0113  2.1576
15935TIP3    H269221   0.588   2.256  15.446 -0.2714  0.3697  0.2810
15936TIP3   OH269222   3.511   3.525  12.508 -0.5406  0.0193 -0.0412
15936TIP3    H169223   3.582   3.548  12.568 -1.4828 -0.7864  1.4129
15936TIP3    H269224   3.535   3.568  12.425  0.2853  1.9759  1.1686
15937TIP3   OH269225   5.277   0.836   5.233  0.2577 -0.0709  0.6405
15937TIP3    H169226   5.340   0.836   5.305 -1.0359 -0.0841  1.8152
15937TIP3    H269227   5.200   0.791   5.269 -0.5629  0.2910 -0.6167
15938TIP3   OH269228   3.898   6.464   2.353 -0.0039 -0.1006 -0.2354
15938TIP3    H169229   3.827   6.408   2.321  0.6774 -0.5403 -0.9939
15938TIP3    H269230   3.978   6.423   2.319  0.5329  1.0425 -0.3549
15939TIP3   OH269231   4.685   3.337  11.815 -0.0752 -0.1986  0.1001
15939TIP3    H169232   4.611   3.345  11.755 -1.3535 -2.5153  1.3059
15939TIP3    H269233   4.662   3.264  11.873  2.6819 -0.2942  1.1694
15940TIP3   OH269234   5.086   3.608   1.989 -0.0756 -0.4784 -0.9645
15940TIP3    H169235   4.995   3.586   1.974 -0.1477 -0.8735  0.0072
15940TIP3    H269236   5.085   3.663   2.067  0.6700 -2.0120  0.1651
15941TIP3   OH269237   0.963   2.228   0.447  0.2846 -0.3669 -0.0656
15941TIP3    H169238   0.876   2.222   0.488  0.1592  0.3931 -0.2097
15941TIP3    H269239   1.016   2.277   0.510  0.3987 -0.1700 -0.3128
15942TIP3   OH269240   1.109   4.074   2.721 -0.1740  0.7678 -0.7981
15942TIP3    H169241   1.185   4.024   2.691  0.3690  1.2037 -0.1608
15942TIP3    H269242   1.058   4.091   2.641  0.2683  0.2660 -1.1905
15943TIP3   OH269243   4.557   4.656   4.518 -0.1303  0.2212  0.2348
15943TIP3    H169244   4.487   4.680   4.457 -0.7943  2.7255  1.9114
15943TIP3    H269245   4.519   4.587   4.573 -1.1635  1.2883  0.8768
15944TIP3   OH269246   4.660   0.987  17.139 -0.3726 -0.3338  0.1994
15944TIP3    H169247   4.603   0.917  17.106 -0.7102 -0.8733  1.8707
15944TIP3    H269248   4.738   0.982  17.083 -1.6237 -0.0753 -1.6304
15945TIP3   OH269249   4.514   4.321  16.127 -0.3454 -0.2306  0.1167
15945TIP3    H169250   4.589   4.324  16.186 -0.9758 -1.4304  0.9875
15945TIP3    H269251   4.467   4.242  16.152 -0.9760 -0.4036 -1.5584
15946TIP3   OH269252   6.507   3.795   2.309 -0.4516  0.1732 -0.1463
15946TIP3    H169253   6.585   3.805   2.254 -0.0474  1.4741  0.6422
15946TIP3    H269254   6.540   3.765   2.393 -0.9998 -1.1248 -0.3869
15947TIP3   OH269255   6.641   1.779   0.910  0.6820 -0.4348 -0.2864
15947TIP3    H169256   6.722   1.806   0.866 -0.0049  0.9763 -0.6903
15947TIP3    H269257   6.571   1.814   0.856 -0.2144 -1.3597  0.2597
15948TIP3   OH269258   1.879   4.840   0.303  0.1089 -0.4901  0.0988
15948TIP3    H169259   1.792   4.875   0.284  1.8659  3.3312 -1.6099
15948TIP3    H269260   1.909   4.890   0.379  0.6537 -2.1092  0.9667
15949TIP3   OH269261   0.990   4.769   0.997  0.4665 -0.1323  0.2457
15949TIP3    H169262   0.997   4.799   1.087  0.3593 -0.9163  0.5220
15949TIP3    H269263   0.912   4.812   0.963  0.2111 -0.2349  0.6927
15950TIP3   OH269264   5.751   6.336   6.091  0.3547  0.5380  0.4141
15950TIP3    H169265   5.714   6.261   6.045  3.4479 -1.9654  1.8619
15950TIP3    H269266   5.684   6.360   6.155  0.2099 -2.4087  1.4150
15951TIP3   OH269267   2.647   0.419  15.110 -0.3780 -0.2240  0.1206
15951TIP3    H169268   2.658   0.385  15.021 -1.5909  1.3785 -0.6723
15951TIP3    H269269   2.710   0.370  15.163  1.3020 -0.2589 -1.8686
15952TIP3   OH269270   0.850   0.076   5.658  0.4592  0.1214  0.3357
15952TIP3    H169271   0.924   0.104   5.603 -2.0119  1.5689 -2.3745
15952TIP3    H269272   0.809   0.158   5.686 -2.7369 -0.6410 -1.9146
15953TIP3   OH269273   1.826   2.550  13.112 -0.0950  0.7074 -0.2284
15953TIP3    H169274   1.911   2.573  13.075 -0.7998  0.3293 -2.1406
15953TIP3    H269275   1.762   2.585  13.050 -1.3628  1.6690  1.5906
15954TIP3   OH269276   3.096   3.257  11.821 -0.1434  0.2536  0.2021
15954TIP3    H169277   3.190   3.274  11.825 -0.0415 -0.3531  0.4253
15954TIP3    H269278   3.084   3.180  11.875 -0.7761  0.3488  0.1935
15955TIP3   OH269279   4.961   1.652  12.367  0.3283  0.1633 -0.1685
15955TIP3    H169280   4.945   1.743  12.392 -3.3175 -0.3806 -0.2278
15955TIP3    H269281   4.944   1.602  12.446 -0.8224 -0.7008 -0.9530
15956TIP3   OH269282   3.924   1.717  17.052 -0.2279 -0.1813  0.7454
15956TIP3    H169283   3.851   1.658  17.072 -1.7585  1.9458  1.6125
15956TIP3    H269284   3.939   1.706  16.958 -0.4977 -1.9310  0.8891
15957TIP3   OH269285   1.301   3.765   0.585  0.3073  0.0893  0.5712
15957TIP3    H169286   1.312   3.674   0.555 -0.9545  0.7019 -1.8499
15957TIP3    H269287   1.207   3.776   0.594  0.5539  0.5493  2.9887
15958TIP3   OH269288   3.696   6.134  15.969 -0.1220 -0.2367 -0.5108
15958TIP3    H169289   3.727   6.180  15.890  0.5040 -1.1335 -0.7933
15958TIP3    H269290   3.603   6.156  15.974  0.4391  2.2123  0.1414
15959TIP3   OH269291   2.539   0.995   2.747 -0.3314  0.4706 -0.0408
15959TIP3    H169292   2.486   0.921   2.715 -1.5812  1.2411  0.1979
15959TIP3    H269293   2.603   0.955   2.806  0.1670 -0.6303 -1.2954
15960TIP3   OH269294   0.523   6.299  13.241 -0.2679 -0.6512  0.1156
15960TIP3    H169295   0.491   6.376  13.194 -1.2974  0.5634  2.7047
15960TIP3    H269296   0.525   6.230  13.175 -3.0318  0.6167 -1.3969
15961TIP3   OH269297   1.472   0.549  15.231  0.1096 -0.2515 -0.1943
15961TIP3    H169298   1.450   0.641  15.247  0.9530 -0.0157 -0.3900
15961TIP3    H269299   1.418   0.500  15.293  0.3695  0.4280  0.5654
15962TIP3   OH269300   3.549   6.557  12.083  0.5570 -0.1864 -0.1020
15962TIP3    H169301   3.549   6.544  12.178  0.1677 -1.1873 -0.2256
15962TIP3    H269302   3.487   6.628  12.068  0.4091 -0.2152  0.3773
15963TIP3   OH269303   6.687   3.633   4.736  0.2364 -0.3350  0.2609
15963TIP3    H169304   6.632   3.702   4.776  0.2556 -1.1420  1.7377
15963TIP3    H269305   6.659   3.553   4.780 -0.9099 -1.5592 -2.5846
15964TIP3   OH269306   1.122   1.721  16.464  0.3834  0.4509  0.4421
15964TIP3    H169307   1.039   1.677  16.484 -0.2679  1.6458  0.4020
15964TIP3    H269308   1.151   1.757  16.547  0.8316  0.0955  0.4438
15965TIP3   OH269309   1.211   5.025   2.405 -0.5951 -0.0810 -0.0718
15965TIP3    H169310   1.244   5.092   2.466 -0.4751  0.6732 -0.9647
15965TIP3    H269311   1.244   4.942   2.441  0.8514  0.5153 -0.0091
15966TIP3   OH269312   4.244   2.457  13.248  0.1876  0.1455  0.1659
15966TIP3    H169313   4.272   2.425  13.333 -0.3803 -0.9513 -0.0522
15966TIP3    H269314   4.314   2.431  13.188 -0.1120 -0.3895  0.0472
15967TIP3   OH269315   5.979   6.408  12.569  0.4554 -0.3706  0.1831
15967TIP3    H169316   5.932   6.357  12.634  0.1545  0.3664  0.5435
15967TIP3    H269317   5.911   6.445  12.512  0.6366  0.1170  0.2808
15968TIP3   OH269318   5.940   3.013   1.404 -0.2702 -0.1776  0.2383
15968TIP3    H169319   5.936   2.981   1.494  2.7992  0.9672  0.8501
15968TIP3    H269320   6.024   3.058   1.398  0.6221 -2.1221 -3.8427
15969TIP3   OH269321   0.788   4.366  14.911 -0.0216  0.7407  0.0675
15969TIP3    H169322   0.855   4.309  14.947 -2.5481 -1.0800  2.0498
15969TIP3    H269323   0.827   4.454  14.913  2.1620 -0.2301  1.4190
15970TIP3   OH269324   5.695   1.504  12.101  0.1000 -0.1532 -0.3866
15970TIP3    H169325   5.689   1.552  12.018 -0.4730  0.5097  0.0354
15970TIP3    H269326   5.612   1.521  12.145  0.3508 -0.6046  0.2712
15971TIP3   OH269327   4.349   2.519  11.267 -0.5258 -0.3789  0.4357
15971TIP3    H169328   4.264   2.480  11.244 -1.9473  0.4827  3.9867
15971TIP3    H269329   4.332   2.613  11.268  0.3352 -0.2309  1.6416
15972TIP3   OH269330   2.800   3.811  15.598  0.3735 -0.3972  0.7158
15972TIP3    H169331   2.764   3.833  15.513  0.5273  0.5083  0.8833
15972TIP3    H269332   2.878   3.865  15.606  1.4827 -1.9372  0.5925
15973TIP3   OH269333   1.037   0.027  12.151  0.1540  0.4158  0.1821
15973TIP3    H169334   1.022   0.117  12.121  0.3255 -0.0939 -1.4637
15973TIP3    H269335   1.088   0.037  12.232  4.4272  1.7251 -2.5046
15974TIP3   OH269336   4.384   3.017   2.381 -0.2563  0.6544 -0.0588
15974TIP3    H169337   4.299   3.055   2.361  0.2420  3.0203  2.1054
15974TIP3    H269338   4.385   3.007   2.476  1.3563 -0.6579 -0.1764
15975TIP3   OH269339   3.509   5.133   2.891 -0.2350 -0.1526 -0.5577
15975TIP3    H169340   3.457   5.128   2.811  0.1350 -1.0085 -0.7563
15975TIP3    H269341   3.451   5.173   2.955 -1.2863 -1.4502 -0.6727
15976TIP3   OH269342   1.250   2.713  16.663  0.3036 -0.1170 -0.3133
15976TIP3    H169343   1.223   2.683  16.577 -1.0636  0.2422 -0.0267
15976TIP3    H269344   1.274   2.633  16.710 -2.2538 -0.6711  0.0900
15977TIP3   OH269345   1.656   5.231   0.804 -0.0452  0.2533 -0.8282
15977TIP3    H169346   1.686   5.175   0.876 -0.3573 -0.6111 -1.3517
15977TIP3    H269347   1.689   5.318   0.825 -1.4007  0.3395  1.1357
15978TIP3   OH269348   3.295   0.271   2.098 -0.1398  0.0141 -0.0199
15978TIP3    H169349   3.274   0.356   2.138 -0.1593 -0.1872  0.3989
15978TIP3    H269350   3.390   0.264   2.106 -0.0877  0.2032 -0.4694
15979TIP3   OH269351   2.740   4.919  12.863  0.0228  0.1127  1.0159
15979TIP3    H169352   2.722   4.826  12.849 -1.4652  0.4257  0.8481
15979TIP3    H269353   2.833   4.921  12.885  0.4396 -1.2566 -0.4881
15980TIP3   OH269354   5.845   0.970   5.709  0.2922  0.2096 -0.4856
15980TIP3    H169355   5.909   1.026   5.665  1.9807 -0.5923  0.8960
15980TIP3    H269356   5.864   0.882   5.678  0.4339 -0.1502  0.6132
15981TIP3   OH269357   2.098   1.913   6.480  0.1119 -0.4753 -0.2518
15981TIP3    H169358   2.010   1.877   6.480  0.1736 -0.6229  0.5684
15981TIP3    H269359   2.095   1.985   6.542  0.1679  0.5260 -1.3825
15982TIP3   OH269360   0.334   2.496  15.865 -0.7251  0.0670  0.1859
15982TIP3    H169361   0.403   2.449  15.818 -1.8571  0.1349 -1.6007
15982TIP3    H269362   0.337   2.585  15.830 -0.4104  0.5994  1.5469
15983TIP3   OH269363   0.406   1.877   0.170 -0.0447 -0.0867  0.2745
15983TIP3    H169364   0.376   1.790   0.197 -0.1332  0.1234  0.8784
15983TIP3    H269365   0.498   1.879   0.197 -0.3292  0.3918  1.2523
15984TIP3   OH269366   2.719   4.670  15.114 -0.3422 -0.0724  0.0901
15984TIP3    H169367   2.699   4.578  15.131 -2.4437  0.4198  0.3988
15984TIP3    H269368   2.636   4.716  15.127  0.4547  1.7541 -1.0124
15985TIP3   OH269369   4.993   5.155  12.498  0.3912 -0.3780 -0.0857
15985TIP3    H169370   5.048   5.234  12.492  0.2673 -0.3118 -0.3493
15985TIP3    H269371   5.031   5.095  12.433  0.6248 -0.6212  0.2747
15986TIP3   OH269372   0.886   4.712  14.870 -0.4126 -0.3531  0.1431
15986TIP3    H169373   0.908   4.709  14.777 -1.6740 -0.0903 -0.1847
15986TIP3    H269374   0.917   4.797  14.899 -1.7227  0.3689 -0.5124
15987TIP3   OH269375   2.360   4.781  14.690 -0.7386  0.3157  0.0988
15987TIP3    H169376   2.405   4.852  14.645 -0.5462  0.0053 -0.1948
15987TIP3    H269377   2.337   4.819  14.775 -2.0517  1.2606 -0.6498
15988TIP3   OH269378   1.151   0.008   3.427  0.0368  0.2780  0.3313
15988TIP3    H169379   1.084   0.061   3.470  0.9830  0.8468  1.1067
15988TIP3    H269380   1.217  -0.006   3.494 -0.1724 -1.8492  0.1329
15989TIP3   OH269381   4.438   2.075   4.389 -0.0940  0.1745  0.1272
15989TIP3    H169382   4.384   2.013   4.438 -0.4084  0.3567  0.0157
15989TIP3    H269383   4.525   2.070   4.429 -0.5643  0.9637  1.2740
15990TIP3   OH269384   1.846   1.086   6.040 -0.5252  0.0536 -0.1870
15990TIP3    H169385   1.764   1.097   6.088 -0.3836 -2.6518  0.7433
15990TIP3    H269386   1.914   1.098   6.106 -0.3088 -2.6507  0.1181
15991TIP3   OH269387   6.151   5.682  14.160  0.0498 -0.8088  0.4855
15991TIP3    H169388   6.161   5.758  14.217 -1.4415 -0.3661  0.1667
15991TIP3    H269389   6.135   5.608  14.220 -1.8518 -0.2899  0.6522
15992TIP3   OH269390   6.333   3.568   4.772  0.2623 -0.3831 -0.1806
15992TIP3    H169391   6.364   3.654   4.802  1.7241 -1.0041  0.1255
15992TIP3    H269392   6.407   3.532   4.724 -0.7676 -0.9860 -1.3240
15993TIP3   OH269393   2.790   3.024  14.743 -0.4066  0.5554  0.0929
15993TIP3    H169394   2.854   2.990  14.680 -1.6891 -0.4029 -0.7151
15993TIP3    H269395   2.758   3.105  14.704 -2.3616 -0.8377 -1.2945
15994TIP3   OH269396   6.252   0.743   1.584  0.0316  0.1585  0.2206
15994TIP3    H169397   6.323   0.730   1.647 -1.3861 -0.4388  1.7363
15994TIP3    H269398   6.296   0.748   1.499  1.8433 -0.7455  1.0696
15995TIP3   OH269399   2.271   0.125  12.850  0.4050  0.2931  0.1317
15995TIP3    H169400   2.201   0.172  12.895 -0.4524  0.4688 -1.3495
15995TIP3    H269401   2.243   0.033  12.852  0.8113  0.1780  0.7408
15996TIP3   OH269402   0.518   3.041  12.193  0.0106 -0.1661 -0.6083
15996TIP3    H169403   0.501   2.949  12.173  0.9534 -0.1225 -1.6013
15996TIP3    H269404   0.518   3.085  12.108  0.5763  0.5872 -0.2239
15997TIP3   OH269405   3.397   2.024   1.921  0.1741  0.2985 -0.3612
15997TIP3    H169406   3.309   2.057   1.942 -0.1356  0.2318 -1.5211
15997TIP3    H269407   3.431   1.993   2.005 -1.0133  0.0929  0.0571
15998TIP3   OH269408   0.786   0.167   0.228  0.6372 -0.1153 -0.0466
15998TIP3    H169409   0.866   0.203   0.265  1.9004 -0.2666 -2.5436
15998TIP3    H269410   0.790   0.189   0.135 -1.7144 -1.0462 -0.4043
15999TIP3   OH269411   3.376   6.369   3.817  0.2193 -0.0387 -0.0705
15999TIP3    H169412   3.444   6.362   3.750 -0.6038 -0.4776 -0.8709
15999TIP3    H269413   3.352   6.278   3.836  0.8419  0.0549  1.2444
16000TIP3   OH269414   3.431   0.158   4.421 -0.6051 -0.4829  0.6033
16000TIP3    H169415   3.443   0.235   4.366 -0.7366  0.1660  1.4865
16000TIP3    H269416   3.425   0.085   4.358 -0.3635  0.1973 -0.2226
16001TIP3   OH269417   2.120   3.123  15.049  0.1007 -0.3796  0.3229
16001TIP3    H169418   2.130   3.190  15.116  1.5146  1.4542 -1.6350
16001TIP3    H269419   2.198   3.131  14.995 -1.6279 -0.7861 -2.3761
16002TIP3   OH269420   1.868   5.057   3.039 -0.2604 -0.2877  0.7251
16002TIP3    H169421   1.944   4.999   3.039  0.3670  0.5293 -0.0221
16002TIP3    H269422   1.893   5.131   3.094 -0.5617 -0.0767  0.5821
16003TIP3   OH269423   6.518   5.606   3.459  0.6050 -0.1197  0.0413
16003TIP3    H169424   6.434   5.626   3.501  0.6699 -3.8235  2.2135
16003TIP3    H269425   6.582   5.658   3.507  0.0113 -0.2599  0.9952
16004TIP3   OH269426   5.914   5.488  15.797 -0.0630  0.4711 -0.2393
16004TIP3    H169427   5.885   5.549  15.865  0.9842 -0.9886  1.5690
16004TIP3    H269428   5.850   5.417  15.800  0.7976 -0.2914  0.2319
16005TIP3   OH269429   6.328   4.614  15.085 -0.3016 -0.3643 -0.0877
16005TIP3    H169430   6.306   4.554  15.155 -0.3871 -0.2817 -0.0442
16005TIP3    H269431   6.278   4.694  15.104  0.8126  0.1887  0.5727
16006TIP3   OH269432   4.886   5.253   2.715  0.0339 -0.1990 -0.4848
16006TIP3    H169433   4.918   5.163   2.716  1.5774  0.3450  0.8003
16006TIP3    H269434   4.841   5.264   2.799  2.2593  1.0551  0.5767
16007TIP3   OH269435   4.609   1.293  12.262 -0.1913 -0.0267 -0.5347
16007TIP3    H169436   4.635   1.373  12.215  0.1591  0.6888  0.8351
16007TIP3    H269437   4.528   1.317  12.307 -1.2767 -1.1362 -1.8812
16008TIP3   OH269438   3.086   5.477  13.238  0.0234 -0.1906  0.1004
16008TIP3    H169439   3.149   5.445  13.173 -0.0978  0.5641 -0.3963
16008TIP3    H269440   3.098   5.572  13.238 -3.0169  0.2810 -2.0160
16009TIP3   OH269441   6.620   3.773   5.395 -0.0017 -0.0377 -0.8014
16009TIP3    H169442   6.658   3.687   5.413  0.1415 -0.0821 -1.2958
16009TIP3    H269443   6.666   3.832   5.454  0.1612 -0.2431 -0.7209
16010TIP3   OH269444   6.007   3.131  15.628  0.0014  0.0520  0.3057
16010TIP3    H169445   5.972   3.218  15.612  0.2049  0.2162  0.7548
16010TIP3    H269446   6.035   3.133  15.719  1.5091  0.0268 -0.1548
16011TIP3   OH269447   4.839   1.472   0.650  0.3982  0.1517 -0.1282
16011TIP3    H169448   4.885   1.421   0.583 -1.8563 -0.3518 -1.3249
16011TIP3    H269449   4.754   1.492   0.611 -1.0246 -0.2999  2.6491
16012TIP3   OH269450   5.553   6.201   4.279  0.5573  0.0392 -0.3832
16012TIP3    H169451   5.552   6.296   4.267  0.7134  0.0147 -0.5992
16012TIP3    H269452   5.462   6.174   4.266  0.6512  0.0612 -1.1471
16013TIP3   OH269453   2.511   0.546   1.308 -0.1897 -0.5419  0.4932
16013TIP3    H169454   2.533   0.556   1.215  0.3860 -0.4315  0.6370
16013TIP3    H269455   2.428   0.500   1.309  0.5341 -1.8866 -0.0505
16014TIP3   OH269456   2.014   1.987   2.273 -0.8291  0.4892 -0.2584
16014TIP3    H169457   2.095   1.936   2.265 -0.7564  0.2706  1.4746
16014TIP3    H269458   2.040   2.077   2.252  0.5525  0.9267  2.8955
16015TIP3   OH269459   5.556   2.727  16.391 -0.3349 -0.5612  0.5618
16015TIP3    H169460   5.530   2.661  16.326 -0.0301  0.0400 -0.1850
16015TIP3    H269461   5.613   2.787  16.343 -1.6300  0.9789  0.8826
16016TIP3   OH269462   4.934   4.784   4.870 -0.1875 -0.4676 -0.0772
16016TIP3    H169463   4.973   4.856   4.918  2.2521 -1.2819 -0.7223
16016TIP3    H269464   4.951   4.707   4.924  0.2330 -1.0094 -0.9583
16017TIP3   OH269465   0.220   3.818  15.194  0.2102 -0.0225  0.7016
16017TIP3    H169466   0.160   3.831  15.121  0.8964 -0.5965  0.0407
16017TIP3    H269467   0.279   3.893  15.189  2.2594 -1.7069 -1.2785
16018TIP3   OH269468   5.171   1.246   2.656  0.4469  0.0030  0.1510
16018TIP3    H169469   5.116   1.170   2.636 -1.3131  1.2412  0.1327
16018TIP3    H269470   5.223   1.259   2.576 -1.0033  0.2699 -0.7799
16019TIP3   OH269471   2.399   6.120   2.980 -0.5309  0.4496  0.2738
16019TIP3    H169472   2.455   6.177   2.927  0.1034  0.7945  1.3019
16019TIP3    H269473   2.329   6.178   3.011 -1.0979  0.1690 -0.4639
16020TIP3   OH269474   6.210   0.907   5.650 -0.6253  0.3481 -0.0565
16020TIP3    H169475   6.303   0.889   5.646 -0.2506  2.0675  0.3060
16020TIP3    H269476   6.197   0.947   5.736 -1.6372  0.4154 -0.2274
16021TIP3   OH269477   0.378   2.130   0.284  0.8223  0.0188  0.3524
16021TIP3    H169478   0.371   2.048   0.235  1.1225 -0.1440  0.5847
16021TIP3    H269479   0.398   2.196   0.218  1.0118 -0.1652  0.2253
16022TIP3   OH269480   5.718   0.625  13.928  0.0512 -0.4606  0.1676
16022TIP3    H169481   5.744   0.712  13.896 -2.7379  0.4257  0.1228
16022TIP3    H269482   5.708   0.573  13.848 -0.3605 -0.1880  0.0364
16023TIP3   OH269483   5.816   2.806  12.402  0.1096  0.4469 -0.3468
16023TIP3    H169484   5.801   2.781  12.493 -2.0176 -0.1953 -0.8472
16023TIP3    H269485   5.729   2.815  12.365  0.9476  1.1852 -2.2067
16024TIP3   OH269486   2.679   6.380  16.325  0.0907 -0.5358 -0.4888
16024TIP3    H169487   2.724   6.447  16.273 -1.7790  1.4453  0.3524
16024TIP3    H269488   2.650   6.426  16.404 -1.4501 -2.2691  0.0043
16025TIP3   OH269489   1.220   6.715   5.061  0.6272  0.6486 -0.4371
16025TIP3    H169490   1.253   6.631   5.094  1.5695  1.0835 -0.2610
16025TIP3    H269491   1.161   6.747   5.130  1.6742  0.9940  0.3016
16026TIP3   OH269492   6.502   2.987  13.392  0.3909  0.4875 -0.5852
16026TIP3    H169493   6.572   3.052  13.396  1.5448 -0.6942 -0.9727
16026TIP3    H269494   6.534   2.914  13.446 -0.7650  0.1399 -0.3529
16027TIP3   OH269495   2.623   6.490   4.245  0.2857  0.8360  0.2589
16027TIP3    H169496   2.560   6.418   4.248 -0.9241  1.9160  1.8996
16027TIP3    H269497   2.697   6.456   4.196 -0.5216 -1.3256  0.5135
16028TIP3   OH269498   4.890   1.508  12.123  0.8184  0.0784  0.2689
16028TIP3    H169499   4.928   1.567  12.188 -1.1578 -0.2808  1.7866
16028TIP3    H269500   4.941   1.427  12.131 -1.5050 -1.1725  3.8211
16029TIP3   OH269501   5.746   5.264   4.888 -0.6739  0.3561 -0.4139
16029TIP3    H169502   5.775   5.355   4.890 -1.6638  0.6761 -0.0818
16029TIP3    H269503   5.724   5.244   4.980  0.7558 -0.6264 -0.2686
16030TIP3   OH269504   0.368   1.614   0.346 -0.3168 -1.1413 -0.1208
16030TIP3    H169505   0.445   1.591   0.398 -1.0865 -3.4794  0.0494
16030TIP3    H269506   0.323   1.681   0.397  1.3665 -0.0391 -0.0346
16031TIP3   OH269507   0.105   0.450  12.012  0.2398 -0.5486 -0.2971
16031TIP3    H169508   0.162   0.431  12.086  1.1736 -2.0993 -1.3746
16031TIP3    H269509   0.022   0.407  12.034  0.1676 -0.1185  0.2966
16032TIP3   OH269510   6.058   2.903  13.707 -0.2909 -0.4152  0.4457
16032TIP3    H169511   6.086   2.812  13.690 -0.5048 -0.6219  1.1896
16032TIP3    H269512   5.989   2.919  13.642 -0.2765 -0.7943  0.3309
16033TIP3   OH269513   3.532   1.785  11.356 -0.5352  0.5612 -0.3171
16033TIP3    H169514   3.564   1.875  11.360 -0.2092  0.4347 -0.0502
16033TIP3    H269515   3.501   1.774  11.266 -3.5584  1.9582  0.4763
16034TIP3   OH269516   0.887   6.339  15.547 -0.5759 -0.1441  0.3733
16034TIP3    H169517   0.914   6.254  15.584  0.3377 -0.2283 -0.4809
16034TIP3    H269518   0.966   6.394  15.553 -0.4875 -0.0775 -1.2146
16035TIP3   OH269519   3.605   0.379  12.023  0.6611  0.0504  0.4138
16035TIP3    H169520   3.560   0.308  12.068 -0.0882  0.4939  0.3760
16035TIP3    H269521   3.697   0.366  12.043  0.3984 -0.1133  1.5699
16036TIP3   OH269522   5.930   6.302  13.118 -0.0037 -0.0618 -0.6221
16036TIP3    H169523   5.873   6.363  13.165  1.0015  0.8690 -0.5736
16036TIP3    H269524   5.950   6.233  13.181 -0.1991  0.1823 -0.2933
16037TIP3   OH269525   5.999   0.813   4.996 -0.2268  0.7191 -0.0907
16037TIP3    H169526   6.015   0.719   5.002  1.3013  1.0206  0.6977
16037TIP3    H269527   6.004   0.832   4.902  0.8085  0.2359 -0.1398
16038TIP3   OH269528   5.496   3.670  12.103 -0.1646 -0.4739  0.4320
16038TIP3    H169529   5.436   3.649  12.175  0.6023 -1.2321  0.8716
16038TIP3    H269530   5.519   3.762  12.117 -1.6240 -0.0205 -0.0525
16039TIP3   OH269531   6.117   2.085  16.613 -0.0766 -0.2732 -0.1368
16039TIP3    H169532   6.117   2.049  16.701  0.8181  0.1465  0.0380
16039TIP3    H269533   6.134   2.010  16.556 -1.6241 -0.7207 -0.0395
16040TIP3   OH269534   3.611   5.155   4.711  0.2826  0.4471 -0.2789
16040TIP3    H169535   3.517   5.145   4.696  0.3357 -1.3405  0.4529
16040TIP3    H269536   3.621   5.245   4.742 -1.0117  1.0899 -1.6661
16041TIP3   OH269537   0.055   6.060  11.859  0.5638 -0.0491  0.7951
16041TIP3    H169538   0.064   5.968  11.834 -1.1124 -0.4684  1.5789
16041TIP3    H269539   0.143   6.089  11.879  0.8659 -2.1794  2.7817
16042TIP3   OH269540   0.850   5.433  12.177  0.0632 -0.6667 -0.4558
16042TIP3    H169541   0.764   5.421  12.136 -0.3845  0.7681  0.0093
16042TIP3    H269542   0.838   5.402  12.266 -0.2986  0.5560 -0.0701
16043TIP3   OH269543   5.326   3.872   6.374  0.0225 -0.6234  0.2169
16043TIP3    H169544   5.366   3.840   6.293  1.7381  0.3124  0.6690
16043TIP3    H269545   5.395   3.863   6.440 -0.8193  0.1705  1.2220
16044TIP3   OH269546   2.550   5.622   2.270 -1.1784 -0.1960  0.2402
16044TIP3    H169547   2.456   5.616   2.258 -0.9054  1.2047 -3.3212
16044TIP3    H269548   2.585   5.548   2.219 -0.2843  0.5637 -0.2644
16045TIP3   OH269549   2.681   0.418   4.587  0.2684 -0.0404 -0.3241
16045TIP3    H169550   2.625   0.363   4.532  1.2028 -1.1810 -0.1670
16045TIP3    H269551   2.740   0.356   4.630 -0.2697  0.8281  1.7711
16046TIP3   OH269552   2.358   6.631  12.294  0.4405 -0.2231  0.1753
16046TIP3    H169553   2.264   6.643  12.302  0.5054 -0.6839  1.7133
16046TIP3    H269554   2.396   6.703  12.344  0.8833 -0.9508  0.8971
16047TIP3   OH269555   2.722   1.474  13.353 -0.8055 -0.2688 -0.3412
16047TIP3    H169556   2.705   1.402  13.293 -1.0618 -0.0124 -0.5731
16047TIP3    H269557   2.781   1.437  13.419 -0.4630 -0.5249 -0.7923
16048TIP3   OH269558   4.069   4.771  16.440 -0.5227 -0.0929 -0.0710
16048TIP3    H169559   4.130   4.826  16.489 -0.4114 -0.5871  0.3410
16048TIP3    H269560   4.017   4.833  16.389  2.3983  0.2414 -2.8863
16049TIP3   OH269561   3.263   5.670   1.637 -0.3555  0.1846  0.1746
16049TIP3    H169562   3.199   5.606   1.668 -0.8219  0.9149  0.7389
16049TIP3    H269563   3.261   5.662   1.542 -1.8511  0.7495  0.1608
16050TIP3   OH269564   0.761   6.526   4.585 -0.4468  0.1055  0.0219
16050TIP3    H169565   0.770   6.434   4.564 -1.4295 -0.4576  1.9531
16050TIP3    H269566   0.790   6.534   4.676 -1.4892  1.4735  0.2685
16051TIP3   OH269567   5.739   3.867   0.362  0.4855  0.1328 -0.0804
16051TIP3    H169568   5.723   3.957   0.334 -2.5973 -0.4998 -0.5245
16051TIP3    H269569   5.708   3.864   0.452  0.0309 -0.6155 -0.2561
16052TIP3   OH269570   2.242   6.397   2.713  0.4337 -0.3886 -0.0627
16052TIP3    H169571   2.311   6.462   2.730 -0.2326  0.3545 -0.1417
16052TIP3    H269572   2.169   6.449   2.679 -0.1230 -1.1840 -0.0885
16053TIP3   OH269573   2.106   4.717   2.126  0.0339  0.5004  0.1816
16053TIP3    H169574   2.021   4.699   2.166  0.4515 -0.7688  0.5129
16053TIP3    H269575   2.169   4.704   2.197  0.6477 -0.2345 -0.4893
16054TIP3   OH269576   3.492   1.766  13.221 -0.7691 -0.2584 -0.4093
16054TIP3    H169577   3.510   1.847  13.268  1.3533 -1.2721  0.5992
16054TIP3    H269578   3.411   1.783  13.173 -1.2629  1.8710  1.1242
16055TIP3   OH269579   3.269   4.227   2.840  0.2634  0.4077  0.2446
16055TIP3    H169580   3.296   4.143   2.878  1.4504  0.4893 -0.4241
16055TIP3    H269581   3.259   4.285   2.915  0.6520  0.0153  0.5992
16056TIP3   OH269582   1.607   1.654   5.195  0.6101 -0.2284  0.2587
16056TIP3    H169583   1.557   1.687   5.270  1.4729  0.4314  0.5543
16056TIP3    H269584   1.546   1.596   5.149 -0.7192  1.2131  0.1449
16057TIP3   OH269585   0.102   6.583   4.506 -0.0739 -0.2655  0.1767
16057TIP3    H169586   0.131   6.627   4.426  0.5203 -0.0396  0.5098
16057TIP3    H269587   0.121   6.645   4.576 -0.5879 -0.4649  0.4909
16058TIP3   OH269588   3.067   0.796  13.834  0.2749 -0.2898  0.0505
16058TIP3    H169589   3.005   0.750  13.890 -0.4074 -0.5637 -0.9153
16058TIP3    H269590   3.153   0.780  13.874 -0.0566 -1.6287  0.2393
16059TIP3   OH269591   3.804   6.480  11.511  0.3111 -0.0756 -0.3138
16059TIP3    H169592   3.857   6.471  11.590 -0.6238  0.0237  0.3232
16059TIP3    H269593   3.819   6.570  11.482 -0.4346  0.3225  0.5292
16060TIP3   OH269594   3.700   0.162   3.849  0.0741 -0.0336 -0.3438
16060TIP3    H169595   3.610   0.186   3.872  0.4553 -0.0942  1.2556
16060TIP3    H269596   3.710   0.191   3.758 -1.0051  1.5042  0.0109
16061TIP3   OH269597   4.873   4.203  12.630  0.3676  0.3551 -0.4380
16061TIP3    H169598   4.853   4.293  12.602  0.8855  0.3420 -0.8407
16061TIP3    H269599   4.944   4.213  12.693 -1.6478  0.5069  1.8888
16062TIP3   OH269600   1.985   0.435   0.844  0.0709 -0.2173 -0.1890
16062TIP3    H169601   1.915   0.392   0.796  0.1927  0.3286 -0.8504
16062TIP3    H269602   2.063   0.384   0.822  0.3786  0.8728 -1.6983
16063TIP3   OH269603   2.066   6.612  14.490 -0.6187  0.0179 -0.5414
16063TIP3    H169604   2.105   6.624  14.577  0.5084 -0.4196 -0.9801
16063TIP3    H269605   2.046   6.701  14.461 -1.0870  0.1607  0.2002
16064TIP3   OH269606   6.342   0.220   4.256 -0.0743 -0.1252 -0.1555
16064TIP3    H169607   6.411   0.273   4.217  0.4652 -0.2077  0.6603
16064TIP3    H269608   6.266   0.232   4.199  0.8915 -0.8030 -1.6164
16065TIP3   OH269609   0.979   6.383  11.683  1.0431 -0.5064  0.4107
16065TIP3    H169610   1.022   6.326  11.747  1.4182 -0.0134  0.6047
16065TIP3    H269611   1.051   6.431  11.642  0.7770 -0.5842 -0.1549
16066TIP3   OH269612   1.313   6.407   1.211  0.1826  0.1891  0.0477
16066TIP3    H169613   1.258   6.340   1.171  0.0604 -0.1760  0.8305
16066TIP3    H269614   1.371   6.436   1.140  0.6313 -1.1426 -0.1441
16067TIP3   OH269615   2.105   6.030  13.330  0.1271 -0.0335  0.1492
16067TIP3    H169616   2.079   6.015  13.420 -0.8494 -2.2457 -0.4852
16067TIP3    H269617   2.036   6.085  13.294  0.6299  1.0364  0.7851
16068TIP3   OH269618   4.879   1.839  16.074 -0.2931  0.2280 -0.1885
16068TIP3    H169619   4.933   1.863  15.999 -0.0063  1.6099  0.4380
16068TIP3    H269620   4.919   1.758  16.107  1.0305  0.8806 -0.1261
16069TIP3   OH269621   4.270   3.220   4.407  0.1024  0.1921 -0.0574
16069TIP3    H169622   4.338   3.278   4.441  0.4451 -0.1276 -0.1864
16069TIP3    H269623   4.236   3.265   4.330 -0.2260  0.6191  0.3376
16070TIP3   OH269624   6.504   6.019  15.705 -0.4271 -0.1113 -0.1387
16070TIP3    H169625   6.564   6.022  15.779  0.9738 -0.1288 -1.2630
16070TIP3    H269626   6.509   5.929  15.674 -0.5682  0.0468 -0.6171
16071TIP3   OH269627   1.405   4.623  13.610 -0.8001  0.5815  0.6483
16071TIP3    H169628   1.319   4.587  13.630 -0.8909  0.5620  0.2229
16071TIP3    H269629   1.440   4.649  13.695 -1.0756  0.2552  0.8665
16072TIP3   OH269630   6.237   0.833  13.412 -0.3843  0.3817  0.1875
16072TIP3    H169631   6.304   0.892  13.378 -0.4546  0.2303 -0.2198
16072TIP3    H269632   6.187   0.886  13.474  0.1626  0.4728  0.5541
16073TIP3   OH269633   4.987   2.646  16.852  0.0601 -0.1269  0.3591
16073TIP3    H169634   5.037   2.727  16.865  0.5837 -0.5393  0.9297
16073TIP3    H269635   4.939   2.635  16.933 -0.3465 -0.1599  0.1115
16074TIP3   OH269636   4.825   1.229   5.408 -0.2350  0.2600 -0.2688
16074TIP3    H169637   4.919   1.231   5.392 -0.6139  2.0406 -2.5476
16074TIP3    H269638   4.812   1.288   5.482  0.4178  0.0389  0.0286
16075TIP3   OH269639   4.535   0.220  12.946  0.3501 -0.0533  0.4175
16075TIP3    H169640   4.500   0.182  12.866  0.1371  1.0867 -0.0513
16075TIP3    H269641   4.562   0.145  12.999  1.6965 -0.7976 -1.2554
16076TIP3   OH269642   0.373   5.356   0.777 -0.0020  0.1305  0.3629
16076TIP3    H169643   0.292   5.358   0.724 -0.3853  1.9177  0.9971
16076TIP3    H269644   0.351   5.300   0.852  0.4624 -2.2080 -1.1838
16077TIP3   OH269645   2.097   0.585   4.673  0.0020  0.2632 -0.2090
16077TIP3    H169646   2.190   0.566   4.667  0.1303  1.6565 -3.6137
16077TIP3    H269647   2.093   0.680   4.687 -0.9087  0.2098 -0.0844
16078TIP3   OH269648   3.135   2.405  13.736 -0.4176 -0.1666 -0.2933
16078TIP3    H169649   3.140   2.445  13.823  0.2076 -1.4421  0.2681
16078TIP3    H269650   3.041   2.395  13.720 -0.5487  0.4255  0.0596
16079TIP3   OH269651   6.074   5.492   3.349  0.3919  0.0288  0.6081
16079TIP3    H169652   6.031   5.556   3.407 -0.4968 -1.1757  1.3008
16079TIP3    H269653   6.002   5.440   3.315  1.0709 -0.2693 -0.3644
16080TIP3   OH269654   5.265   6.002  17.098  1.0224  0.5343 -0.0400
16080TIP3    H169655   5.185   6.030  17.054  1.4424  1.5249 -0.1877
16080TIP3    H269656   5.320   5.967  17.028  0.2428 -1.2937  0.2366
16081TIP3   OH269657   0.454   3.424   5.139 -0.4858 -0.0567 -0.9852
16081TIP3    H169658   0.449   3.428   5.234 -0.9490  0.5130 -1.0272
16081TIP3    H269659   0.462   3.331   5.119  0.1465 -0.1414 -0.3699
16082TIP3   OH269660   0.618   3.308  14.662  0.4020  0.1432  0.3124
16082TIP3    H169661   0.615   3.364  14.585 -4.4659  1.4005  1.2699
16082TIP3    H269662   0.631   3.368  14.735  1.3303 -0.6478  0.8078
16083TIP3   OH269663   4.963   6.709  16.652  0.0341 -0.3375  0.0535
16083TIP3    H169664   5.055   6.721  16.674 -0.1239  0.6349  0.1939
16083TIP3    H269665   4.950   6.614  16.654  1.0309 -0.4795  0.0230
16084TIP3   OH269666   5.742   3.423  14.689 -0.5031 -0.1699 -0.1842
16084TIP3    H169667   5.691   3.412  14.609 -1.1503  0.0870  0.1913
16084TIP3    H269668   5.677   3.445  14.756  0.0998  0.1481  0.2975
16085TIP3   OH269669   0.253   2.766  14.685  0.3205 -0.6727 -0.1393
16085TIP3    H169670   0.341   2.745  14.655  1.3234 -0.4421  2.4943
16085TIP3    H269671   0.222   2.833  14.624  1.4546 -1.6718 -1.8382
16086TIP3   OH269672   3.708   6.029   5.978  0.6622  0.0597 -0.0127
16086TIP3    H169673   3.668   6.020   6.065  1.4244  0.4530  0.3873
16086TIP3    H269674   3.636   6.016   5.917 -0.2761  1.7075  0.7112
16087TIP3   OH269675   1.298   2.292   0.543 -0.3626 -0.1895 -0.0240
16087TIP3    H169676   1.215   2.303   0.590  0.1419  0.5403  0.7141
16087TIP3    H269677   1.277   2.310   0.452 -1.1281 -0.5270  0.0825
16088TIP3   OH269678   3.082   3.753  11.953 -0.4039 -0.1812  0.2508
16088TIP3    H169679   3.008   3.805  11.984 -2.4608 -2.5784 -0.5413
16088TIP3    H269680   3.084   3.768  11.859 -0.5565 -0.9558  0.1215
16089TIP3   OH269681   3.023   0.953   1.270  0.1733  0.4342  0.2843
16089TIP3    H169682   2.933   0.925   1.284  0.3776 -0.2976  0.1788
16089TIP3    H269683   3.021   1.000   1.186  0.1624 -0.9566 -0.5245
16090TIP3   OH269684   2.660   3.201   0.254 -0.2176  1.3409  0.0489
16090TIP3    H169685   2.670   3.221   0.347 -2.2411  0.9037  0.3877
16090TIP3    H269686   2.590   3.259   0.224 -1.0723 -0.0224 -0.6645
16091TIP3   OH269687   6.393   1.582  15.545  0.5033  0.1691 -0.0570
16091TIP3    H169688   6.387   1.607  15.453  1.4198  2.5283  0.4722
16091TIP3    H269689   6.482   1.547  15.554  0.5581  0.3272  0.0174
16092TIP3   OH269690   2.841   4.426  17.170 -0.0403 -0.1824 -0.1454
16092TIP3    H169691   2.906   4.496  17.162  1.4148 -1.5320 -0.4944
16092TIP3    H269692   2.776   4.460  17.231  1.6785  0.7199  1.2396
16093TIP3   OH269693   2.442   3.326  14.578 -0.3606  0.0660 -0.1341
16093TIP3    H169694   2.522   3.378  14.570  0.2792 -0.3612  2.8307
16093TIP3    H269695   2.372   3.387  14.555  0.6038  1.2967  0.1195
16094TIP3   OH269696   0.812   5.208   4.934  0.1153  0.8392 -0.6631
16094TIP3    H169697   0.802   5.183   5.026  3.7850  0.0637 -0.4302
16094TIP3    H269698   0.788   5.301   4.932  0.3971  0.9740  1.1301
16095TIP3   OH269699   1.851   4.663   1.813 -0.1997 -0.1257  0.1134
16095TIP3    H169700   1.916   4.734   1.805  0.0439 -0.4794 -1.1449
16095TIP3    H269701   1.897   4.594   1.860  0.3179 -0.3289 -0.6728
16096TIP3   OH269702   2.383   1.238  16.686 -0.8493  0.1300  0.2159
16096TIP3    H169703   2.372   1.147  16.658  1.1277 -0.8220  2.3346
16096TIP3    H269704   2.432   1.279  16.615 -0.5983 -0.8130 -0.1603
16097TIP3   OH269705   0.585   5.517   2.845 -0.2083  0.3501 -0.0213
16097TIP3    H169706   0.625   5.441   2.888  2.0343  1.3622 -0.2054
16097TIP3    H269707   0.510   5.540   2.900  0.9773 -0.0818  1.8018
16098TIP3   OH269708   0.700   1.877  14.864  0.0225  0.0297  0.7089
16098TIP3    H169709   0.606   1.879  14.846  0.2398  0.7215 -0.3237
16098TIP3    H269710   0.724   1.968  14.880  0.6612 -0.0578  0.2574
16099TIP3   OH269711   0.172   0.896  12.192  0.4764  0.4447 -0.3864
16099TIP3    H169712   0.207   0.808  12.176  1.4917  0.7573  0.0777
16099TIP3    H269713   0.083   0.881  12.223  0.6454 -0.4219 -0.3017
16100TIP3   OH269714   6.024   1.554   3.708 -0.0022  0.5404 -0.2887
16100TIP3    H169715   5.995   1.483   3.651  0.7075 -0.1288  0.1627
16100TIP3    H269716   6.103   1.520   3.750 -0.4123  1.0797  0.9629
16101TIP3   OH269717   2.406   2.541  14.211 -0.2892  0.3182  0.0908
16101TIP3    H169718   2.408   2.467  14.150 -0.9600  0.0886  0.3451
16101TIP3    H269719   2.330   2.524  14.267  0.2181  0.6242  0.8741
16102TIP3   OH269720   6.348   0.031   5.227  0.2592  0.3828  0.2232
16102TIP3    H169721   6.348   0.075   5.312  0.1298 -0.3730  0.6247
16102TIP3    H269722   6.399  -0.049   5.242  0.0964  0.1667 -0.3716
16103TIP3   OH269723   4.382   6.002  16.750 -0.5078 -0.6780  0.0275
16103TIP3    H169724   4.309   6.064  16.758 -0.2095 -0.4146  0.7738
16103TIP3    H269725   4.433   6.016  16.830 -0.4917 -1.9610  0.2461
16104TIP3   OH269726   4.017   2.341   3.444 -0.0578  0.5812 -0.7137
16104TIP3    H169727   4.103   2.373   3.418 -0.3783  0.1808 -2.3257
16104TIP3    H269728   4.003   2.263   3.391 -0.6624 -0.3902  0.8395
16105TIP3   OH269729   2.960   4.673   4.750 -0.1104 -0.3081 -0.0886
16105TIP3    H169730   2.897   4.604   4.769 -0.2659 -0.0128  0.4735
16105TIP3    H269731   3.042   4.643   4.791 -0.5977  0.6116  1.6056
16106TIP3   OH269732   5.917   2.316   0.422  0.5431 -0.1052  0.4981
16106TIP3    H169733   5.834   2.324   0.375  0.2559  0.4106  1.0892
16106TIP3    H269734   5.916   2.228   0.457  0.9789 -0.6762 -0.8688
16107TIP3   OH269735   0.785   4.802  11.555  0.1072  0.5575 -0.3679
16107TIP3    H169736   0.853   4.736  11.562  0.8065  0.8887 -3.3027
16107TIP3    H269737   0.826   4.883  11.588  0.1739  0.1521  0.5552
16108TIP3   OH269738   2.673   0.282   0.829 -0.6867  0.1305  0.0816
16108TIP3    H169739   2.677   0.271   0.924 -0.9754  0.2103  0.1021
16108TIP3    H269740   2.618   0.359   0.816  1.1269  1.4210 -0.0778
16109TIP3   OH269741   0.476   1.883  13.246  0.0737  0.4142 -0.7386
16109TIP3    H169742   0.400   1.888  13.304 -0.6964 -1.4586 -1.5304
16109TIP3    H269743   0.551   1.889  13.305 -0.6937 -2.0018  0.5792
16110TIP3   OH269744   6.679   4.464   5.400  0.0516 -0.6616 -0.2469
16110TIP3    H169745   6.645   4.534   5.344 -0.4770  0.1437  1.0736
16110TIP3    H269746   6.601   4.428   5.443  0.3798 -1.7198 -0.5065
16111TIP3   OH269747   4.072   0.200  10.458 -0.0174 -0.2102 -0.2630
16111TIP3    H169748   4.147   0.257  10.472 -0.6729  0.5150  0.3245
16111TIP3    H269749   4.080   0.133  10.526 -1.4449  1.4885  1.6394
16112TIP3   OH269750   2.024   6.214  15.886  0.3124  0.3942  0.3628
16112TIP3    H169751   2.035   6.121  15.903  3.6416  0.6599  0.0609
16112TIP3    H269752   2.110   6.252  15.904 -0.6187  3.2166 -0.8229
16113TIP3   OH269753   6.449   3.517   2.006 -0.9104 -0.1372 -0.7580
16113TIP3    H169754   6.539   3.484   2.005 -1.5180 -1.8786 -1.0469
16113TIP3    H269755   6.450   3.592   1.946  0.6047  0.6142  0.1822
16114TIP3   OH269756   6.569   5.604  13.421 -0.6420 -0.6587 -0.2656
16114TIP3    H169757   6.530   5.679  13.466 -1.0704 -0.9542 -0.1402
16114TIP3    H269758   6.660   5.602  13.452 -0.7556 -0.4670  0.0796
16115TIP3   OH269759   1.323   2.835  15.732 -0.1277  0.5525 -0.6920
16115TIP3    H169760   1.285   2.747  15.732 -0.3905  0.6673 -1.4429
16115TIP3    H269761   1.397   2.829  15.793  0.5760 -0.4971 -1.6357
16116TIP3   OH269762   3.093   0.580   1.050  0.4268 -0.6314 -0.5857
16116TIP3    H169763   3.056   0.532   0.977 -1.6721  0.3709 -0.2404
16116TIP3    H269764   3.037   0.557   1.125  1.4496 -0.2859  0.2978
16117TIP3   OH269765   2.679   4.614   1.807 -0.0715  0.4905  0.3336
16117TIP3    H169766   2.659   4.641   1.717 -1.5625 -1.6180 -0.0183
16117TIP3    H269767   2.601   4.637   1.857 -1.2933 -2.6985  0.0665
16118TIP3   OH269768   0.755   2.752  12.859  0.2455 -0.7544  0.0546
16118TIP3    H169769   0.676   2.806  12.863 -0.2814 -1.4121 -1.1362
16118TIP3    H269770   0.729   2.668  12.895  0.6724 -0.6829  0.5457
16119TIP3   OH269771   2.877   1.336  13.537 -0.1391 -0.5276  0.1591
16119TIP3    H169772   2.900   1.371  13.623  0.2947  0.9804 -0.5647
16119TIP3    H269773   2.959   1.335  13.488 -0.8783  1.2277 -1.1449
16120TIP3   OH269774   2.156   2.231  14.099  0.1726  0.0191  0.2495
16120TIP3    H169775   2.248   2.231  14.074  0.0426  0.9008 -0.2338
16120TIP3    H269776   2.144   2.312  14.148 -0.0030 -0.8227  1.6154
16121TIP3   OH269777   0.537   1.223  13.950 -0.3419 -0.1403  0.3905
16121TIP3    H169778   0.467   1.289  13.947 -1.4466 -1.3647 -1.3407
16121TIP3    H269779   0.614   1.270  13.919 -0.4950  1.0714  1.7741
16122TIP3   OH269780   1.378   5.005  15.055 -1.2146  0.6807  0.0723
16122TIP3    H169781   1.437   4.935  15.082 -1.6275 -0.6747 -2.4504
16122TIP3    H269782   1.319   5.017  15.130  0.8640  0.5857  1.7764
16123TIP3   OH269783   4.603   1.104  11.548 -0.0030 -0.2596  0.4195
16123TIP3    H169784   4.677   1.102  11.488 -1.0381 -0.3828 -0.8909
16123TIP3    H269785   4.544   1.170  11.511 -0.9830 -0.8648  0.8809
16124TIP3   OH269786   4.530   1.184   4.393 -0.1339  0.3125  0.4910
16124TIP3    H169787   4.504   1.187   4.301  0.8931 -1.4389  0.1069
16124TIP3    H269788   4.616   1.227   4.395 -0.1138  0.2669  0.6064
16125TIP3   OH269789   4.447   6.087  14.109 -0.3455  0.1853 -0.5445
16125TIP3    H169790   4.405   6.044  14.184 -1.0612  0.5557 -0.7222
16125TIP3    H269791   4.471   6.016  14.050 -0.7600 -0.0317 -0.4524
16126TIP3   OH269792   5.475   6.383  14.969 -0.0378 -0.4937  0.0771
16126TIP3    H169793   5.526   6.440  14.912 -0.0042 -0.8838 -0.2825
16126TIP3    H269794   5.385   6.416  14.960  0.5056  1.9113  2.7799
16127TIP3   OH269795   1.996   6.626  11.645 -0.3528 -0.2902  0.2370
16127TIP3    H169796   1.971   6.566  11.575  0.2411 -2.9295  2.2313
16127TIP3    H269797   1.914   6.650  11.687 -0.8238  2.1125 -1.9234
16128TIP3   OH269798   2.824   3.315  11.460  0.0101 -0.2288  0.6095
16128TIP3    H169799   2.833   3.308  11.365  0.4721  0.8099  0.5669
16128TIP3    H269800   2.906   3.355  11.489 -0.2013 -0.3701  1.4291
16129TIP3   OH269801   3.311   0.119  11.242  0.1457  0.1439 -0.7210
16129TIP3    H169802   3.300   0.042  11.186 -0.1688 -0.9093  0.7514
16129TIP3    H269803   3.259   0.100  11.320  0.9780  1.3622  0.1605
16130TIP3   OH269804   0.324   3.595  16.473  0.0277 -0.2337 -0.1750
16130TIP3    H169805   0.249   3.652  16.458 -0.5481 -1.6370 -2.9737
16130TIP3    H269806   0.397   3.641  16.431 -0.3365 -1.2749 -1.9914
16131TIP3   OH269807   1.668   4.674   3.847  0.4395  0.5458  0.4232
16131TIP3    H169808   1.756   4.638   3.856  1.0282  1.4356 -1.5495
16131TIP3    H269809   1.631   4.669   3.936  1.3920 -2.5376  0.7298
16132TIP3   OH269810   3.524   0.504   2.114 -0.7287  0.3314  0.2962
16132TIP3    H169811   3.540   0.462   2.030 -0.2398  0.3396  0.3821
16132TIP3    H269812   3.576   0.453   2.176  1.5042  2.2885  0.0810
16133TIP3   OH269813   5.819   0.413   2.952 -0.1501  0.2044 -0.1060
16133TIP3    H169814   5.746   0.436   2.894  0.7566  0.2913 -1.2342
16133TIP3    H269815   5.875   0.358   2.897  0.2763 -0.4508  0.9793
16134TIP3   OH269816   3.697   0.339   1.140  0.4916 -0.3419 -0.2189
16134TIP3    H169817   3.779   0.382   1.116  0.7508 -0.1897  0.9189
16134TIP3    H269818   3.717   0.294   1.222 -0.6694  0.0348  0.2788
16135TIP3   OH269819   3.172   6.056  13.771 -0.5943 -0.6827  0.2779
16135TIP3    H169820   3.142   6.024  13.856 -0.2547 -0.3595  0.5200
16135TIP3    H269821   3.109   6.126  13.749 -0.6146 -0.6880  0.3183
16136TIP3   OH269822   6.609   1.084   5.097  0.3993  0.5679  0.2754
16136TIP3    H169823   6.669   1.036   5.041  0.9533  1.2756  0.2650
16136TIP3    H269824   6.617   1.041   5.183  0.1610  0.0193  0.0284
16137TIP3   OH269825   5.278   5.773   3.343  0.8822 -0.0529  0.0348
16137TIP3    H169826   5.213   5.722   3.393  1.3151 -1.0951 -0.4522
16137TIP3    H269827   5.339   5.805   3.409  0.4536  0.0700  0.3775
16138TIP3   OH269828   0.342   1.631  12.623 -0.4428 -0.5321  0.2426
16138TIP3    H169829   0.420   1.675  12.658 -1.1042  0.8983 -0.0306
16138TIP3    H269830   0.374   1.547  12.591  0.9677 -0.0135  0.2434
16139TIP3   OH269831   2.859   1.851   5.298 -0.0350 -0.8789  0.1638
16139TIP3    H169832   2.903   1.872   5.216  2.6891 -0.1149  1.7434
16139TIP3    H269833   2.919   1.792   5.343 -1.2499 -0.8630  1.8568
16140TIP3   OH269834   0.661   1.238   3.577  0.1414  0.0428  0.3620
16140TIP3    H169835   0.592   1.282   3.628 -0.2998 -0.7788  0.4817
16140TIP3    H269836   0.670   1.293   3.499 -0.6790  0.1450  0.3271
16141TIP3   OH269837   0.462   5.946   1.398  0.2358  0.5652 -0.3086
16141TIP3    H169838   0.455   5.851   1.413  0.8571  0.7146  0.9817
16141TIP3    H269839   0.372   5.978   1.405  0.3347  0.4519  2.0661
16142TIP3   OH269840   3.764   2.740  12.631 -0.0838  0.5743  0.5274
16142TIP3    H169841   3.748   2.660  12.681 -1.9562  0.7155  0.1982
16142TIP3    H269842   3.681   2.758  12.588  0.7464  1.9109 -0.5499
16143TIP3   OH269843   3.406   3.595  11.386 -0.4237  0.0821  0.4701
16143TIP3    H169844   3.388   3.607  11.479 -0.4838 -0.3546  0.5171
16143TIP3    H269845   3.498   3.619  11.375  0.1755 -1.9024  1.0260
16144TIP3   OH269846   3.584   3.719  15.037 -0.5553  0.2234 -0.8274
16144TIP3    H169847   3.550   3.808  15.043  0.9752  0.8225 -0.9302
16144TIP3    H269848   3.575   3.684  15.126  2.3048  1.7800  0.1148
16145TIP3   OH269849   4.255   5.625   3.520  0.0034 -0.1893  0.0393
16145TIP3    H169850   4.279   5.713   3.493 -0.7846  0.1278  0.3424
16145TIP3    H269851   4.274   5.622   3.614  3.5160 -1.5554 -0.6506
16146TIP3   OH269852   4.119   0.749  13.581 -0.6676 -0.1174 -0.2979
16146TIP3    H169853   4.104   0.655  13.574  2.0412 -0.4896 -1.6744
16146TIP3    H269854   4.143   0.763  13.673  0.7552 -1.0689 -0.5170
16147TIP3   OH269855   2.139   6.165   0.089 -0.0449  0.1776  0.3795
16147TIP3    H169856   2.131   6.071   0.106 -0.8429 -0.3578 -2.6919
16147TIP3    H269857   2.234   6.181   0.089  0.1760 -1.0224 -0.9686
16148TIP3   OH269858   5.648   6.181  15.689 -0.8519  0.0077  0.2591
16148TIP3    H169859   5.608   6.220  15.766 -1.6847  0.2622 -0.3055
16148TIP3    H269860   5.717   6.124  15.724 -1.8650 -0.6234  1.2419
16149TIP3   OH269861   4.725   1.701  15.240 -0.4773  0.0669 -0.0578
16149TIP3    H169862   4.762   1.775  15.192 -1.5048  1.7703  1.7231
16149TIP3    H269863   4.665   1.740  15.303 -2.7370 -2.4400 -0.5711
16150TIP3   OH269864   4.822   2.217   6.331 -0.4184 -0.8425  0.4539
16150TIP3    H169865   4.872   2.161   6.390  1.7439 -2.9652 -3.1945
16150TIP3    H269866   4.885   2.283   6.302 -0.8434 -1.0505 -1.0003
16151TIP3   OH269867   3.336   5.102   4.126  0.4996  0.0712  0.2943
16151TIP3    H169868   3.392   5.171   4.090  1.2327 -0.0136  1.2381
16151TIP3    H269869   3.323   5.127   4.218 -1.4268  0.3445 -0.0392
16152TIP3   OH269870   3.887   6.753  13.577 -0.0202 -0.2858 -0.1751
16152TIP3    H169871   3.843   6.775  13.495 -0.1852  0.8871  0.2228
16152TIP3    H269872   3.821   6.768  13.645  0.8709  1.1448  0.3940
16153TIP3   OH269873   3.015   4.565  15.377 -0.1011 -0.5084 -0.0990
16153TIP3    H169874   2.950   4.619  15.421  0.7550  1.3367 -1.0141
16153TIP3    H269875   2.964   4.504  15.324 -1.1106  1.3192 -1.2857
16154TIP3   OH269876   5.345   2.152   0.506 -0.0039  0.3214  0.3138
16154TIP3    H169877   5.413   2.115   0.451 -0.2234 -0.1615  0.3666
16154TIP3    H269878   5.334   2.089   0.578 -0.7363  0.2300  0.1291
16155TIP3   OH269879   1.501   2.637  12.214 -0.1349  0.0833  0.0995
16155TIP3    H169880   1.481   2.546  12.191  0.3485 -0.5481  1.9813
16155TIP3    H269881   1.567   2.664  12.150 -0.0414 -1.0166 -0.2864
16156TIP3   OH269882   3.048   4.701  17.132 -0.1132  0.5914 -0.1111
16156TIP3    H169883   3.031   4.744  17.215 -0.7384 -0.1230  0.1414
16156TIP3    H269884   3.143   4.690  17.129  0.2454  3.4372 -0.9321
16157TIP3   OH269885   0.816   6.030  12.826  0.1283 -0.0208 -0.2492
16157TIP3    H169886   0.876   6.075  12.887 -0.7863  0.4316  0.3318
16157TIP3    H269887   0.867   5.957  12.792  0.4452 -0.6995  1.5954
16158TIP3   OH269888   3.212   4.513   2.525  0.0574  0.0674 -0.4938
16158TIP3    H169889   3.274   4.447   2.557  0.6046  1.9755  2.6462
16158TIP3    H269890   3.199   4.571   2.600 -2.5362  1.9517 -2.3278
16159TIP3   OH269891   0.474   4.359   0.289  0.6408 -0.4145  0.0150
16159TIP3    H169892   0.502   4.419   0.358 -0.8259 -3.0545  3.0858
16159TIP3    H269893   0.379   4.363   0.290  0.5988 -0.5247 -1.8614
16160TIP3   OH269894   1.104   1.953  14.477 -0.2025 -0.2063  0.4777
16160TIP3    H169895   1.189   1.965  14.518 -0.5864  0.4389  1.1190
16160TIP3    H269896   1.047   2.017  14.521 -0.9548 -0.4574 -0.1057
16161TIP3   OH269897   3.216   1.692  15.229 -0.1461  0.5022  0.1864
16161TIP3    H169898   3.230   1.737  15.145 -0.2820 -1.7194 -1.0517
16161TIP3    H269899   3.130   1.721  15.257  0.7477  2.8980  0.6420
16162TIP3   OH269900   0.373   5.033   4.433  0.0240  0.6382 -0.0695
16162TIP3    H169901   0.459   5.050   4.471 -0.8833  1.4343  1.6758
16162TIP3    H269902   0.363   5.100   4.365 -0.5391  2.6567  1.9315
16163TIP3   OH269903   1.793   6.473   5.070 -0.6951  0.1410 -0.1874
16163TIP3    H169904   1.852   6.541   5.036 -0.6931  1.3313  2.0458
16163TIP3    H269905   1.850   6.400   5.092  0.0517  1.4366  2.3284
16164TIP3   OH269906   2.118   2.044  12.154 -0.9734  0.3448  0.6401
16164TIP3    H169907   2.077   2.125  12.123  1.6019  0.9183 -1.4611
16164TIP3    H269908   2.073   1.974  12.107  0.0990  0.9343 -1.3054
16165TIP3   OH269909   3.886   0.787   3.043 -0.2044  0.5404  0.0587
16165TIP3    H169910   3.868   0.754   2.955 -0.0547  0.3495  0.0997
16165TIP3    H269911   3.960   0.846   3.032 -0.8431  1.3212 -0.1098
16166TIP3   OH269912   1.257   5.053   6.164 -0.0599 -0.0350 -0.4142
16166TIP3    H169913   1.222   4.974   6.123 -1.1311 -0.0134  0.4560
16166TIP3    H269914   1.306   5.020   6.240  0.7693  0.0368 -0.9009
16167TIP3   OH269915   2.597   6.315   5.767  0.3442 -0.0550  0.0026
16167TIP3    H169916   2.522   6.265   5.737 -0.1713  1.8539 -2.0396
16167TIP3    H269917   2.569   6.354   5.849  0.4010 -2.2540  1.0930
16168TIP3   OH269918   0.012   3.817  12.774 -0.1600 -0.0504  0.1784
16168TIP3    H169919   0.036   3.838  12.683 -0.3272  1.1659  0.4063
16168TIP3    H269920  -0.004   3.903  12.815 -2.9358 -0.6956  0.5745
16169TIP3   OH269921   6.675   3.333  10.949  0.0655 -0.4126  0.4098
16169TIP3    H169922   6.709   3.416  10.916 -1.7526  0.5963  1.0497
16169TIP3    H269923   6.632   3.355  11.031 -0.8025 -1.9214  0.3784
16170TIP3   OH269924   5.809   4.267  11.175 -0.5335 -0.1130 -0.4958
16170TIP3    H169925   5.727   4.312  11.153  0.3303  0.0625 -3.5988
16170TIP3    H269926   5.824   4.207  11.102  0.4526 -2.5193  1.6265
16171TIP3   OH269927   6.681   4.741  15.834 -0.2889  0.0878  0.3348
16171TIP3    H169928   6.743   4.727  15.905  1.1049 -0.2679 -0.9272
16171TIP3    H269929   6.686   4.835  15.817 -0.1853  0.0822  0.3302
16172TIP3   OH269930   1.291   5.344   4.535 -0.4413 -0.0791 -0.4142
16172TIP3    H169931   1.241   5.380   4.608  1.4688  1.8246  0.0173
16172TIP3    H269932   1.280   5.407   4.465  0.3468 -0.2706 -0.7146
16173TIP3   OH269933   6.748   6.343  15.969 -0.0566 -0.7924  0.4311
16173TIP3    H169934   6.713   6.314  16.053 -0.9988  0.1026  0.3685
16173TIP3    H269935   6.686   6.411  15.940 -1.4402 -3.1698 -2.4183
16174TIP3   OH269936   4.592   4.289  15.227  0.1318 -0.2628 -0.9782
16174TIP3    H169937   4.501   4.316  15.216 -0.3102 -1.2926 -0.0406
16174TIP3    H269938   4.617   4.252  15.142 -0.5433 -0.5764 -1.0435
16175TIP3   OH269939   1.323   4.296   5.515 -0.2521  0.4267 -0.0250
16175TIP3    H169940   1.355   4.227   5.573  0.3473 -0.3035 -1.1918
16175TIP3    H269941   1.305   4.370   5.572  0.4932 -0.2230  1.0630
16176TIP3   OH269942   0.459   5.062  15.202 -0.2134  0.4137  0.1276
16176TIP3    H169943   0.394   4.993  15.191 -1.5582  1.5420  0.9058
16176TIP3    H269944   0.523   5.046  15.133 -0.2395 -1.9171  0.6153
16177TIP3   OH269945   3.532   5.016   0.031  0.4303  0.1719 -0.4847
16177TIP3    H169946   3.575   5.006  -0.054  2.2360 -2.1795  0.6350
16177TIP3    H269947   3.467   4.945   0.034  0.5602  0.0754  0.1942
16178TIP3   OH269948   0.953   4.117  12.926  0.2788  0.3047 -0.2654
16178TIP3    H169949   1.021   4.067  12.881 -1.1023 -1.4182 -0.4898
16178TIP3    H269950   0.934   4.190  12.868  0.7625 -0.1399 -0.9835
16179TIP3   OH269951   6.350   1.005  15.114  0.1004  0.4437  0.5225
16179TIP3    H169952   6.411   0.953  15.063  1.1118 -0.0620  2.2394
16179TIP3    H269953   6.288   0.942  15.150  1.5198  0.3688  2.8707
16180TIP3   OH269954   0.960   6.590   1.337 -0.2225 -0.2159  0.5072
16180TIP3    H169955   0.940   6.501   1.307  0.8957 -1.1456  2.4272
16180TIP3    H269956   0.958   6.585   1.432 -1.0171  2.0470  0.6493
16181TIP3   OH269957   4.942   5.465   0.035 -0.3742 -0.0927 -0.4912
16181TIP3    H169958   4.892   5.403  -0.018 -1.6149  0.1856  0.3302
16181TIP3    H269959   4.898   5.549   0.023  1.6543  0.7762 -2.0691
16182TIP3   OH269960   5.706   6.465   0.147  0.1287 -0.0750  0.0125
16182TIP3    H169961   5.709   6.399   0.077  0.6131 -0.2031  0.1486
16182TIP3    H269962   5.679   6.415   0.224 -0.8162  0.1450 -0.1642
16183TIP3   OH269963   1.276   6.769  11.418  0.2341 -0.1756  0.3563
16183TIP3    H169964   1.241   6.842  11.366  1.1774 -0.5226 -0.7965
16183TIP3    H269965   1.319   6.712  11.353  2.6117  0.0513  1.6810
16184TIP3   OH269966   3.598   4.149  12.387 -0.4979  0.2368  0.2732
16184TIP3    H169967   3.615   4.197  12.306  0.7335 -0.1182  0.3207
16184TIP3    H269968   3.597   4.057  12.360 -0.1638  0.1216  0.6527
16185TIP3   OH269969   0.862   6.247   3.641 -0.3549 -0.5038 -0.0591
16185TIP3    H169970   0.782   6.280   3.599 -1.1831 -3.1171 -0.6098
16185TIP3    H269971   0.830   6.200   3.718  0.6789 -1.5050 -0.2412
16186TIP3   OH269972   1.848   4.973  16.120  0.1505  0.2371 -0.0726
16186TIP3    H169973   1.870   4.988  16.212  0.7113 -0.6918 -0.0488
16186TIP3    H269974   1.896   4.894  16.096 -0.6168  0.0168 -0.9430
16187TIP3   OH269975   5.338   6.321  11.417  0.1015  0.4932  0.5357
16187TIP3    H169976   5.244   6.321  11.398  0.3748  2.4098 -0.8977
16187TIP3    H269977   5.349   6.389  11.483  0.4547  0.0045  0.9915
16188TIP3   OH269978   5.474   0.670   3.525 -0.1725 -0.6768 -0.7896
16188TIP3    H169979   5.549   0.613   3.507  2.0177  1.7358  0.1303
16188TIP3    H269980   5.406   0.642   3.464  1.3355 -3.2263 -1.3698
16189TIP3   OH269981   4.340   0.210  15.208  0.3464 -0.6760  1.0903
16189TIP3    H169982   4.410   0.208  15.273 -0.4032 -1.3991  1.8886
16189TIP3    H269983   4.298   0.124  15.216 -1.5255  0.2689  1.6159
16190TIP3   OH269984   4.472   3.115   5.306  0.9740  0.5149 -0.1196
16190TIP3    H169985   4.410   3.188   5.307  2.9951  2.2975  2.2262
16190TIP3    H269986   4.553   3.153   5.272  2.0517 -0.6198  1.1160
16191TIP3   OH269987   5.021   2.593   4.443 -0.0963 -0.4866 -0.5190
16191TIP3    H169988   5.063   2.607   4.358 -0.9313  0.6053 -0.7664
16191TIP3    H269989   5.082   2.538   4.491  1.2915  0.4859 -1.1274
16192TIP3   OH269990   5.015   2.006   6.211  0.1206 -0.4826 -0.7821
16192TIP3    H169991   4.966   2.040   6.136 -0.8803  0.1420  0.1392
16192TIP3    H269992   5.097   1.973   6.173 -0.9138 -1.3554 -2.3201
16193TIP3   OH269993   0.193   1.721   5.858  0.5275  0.6949 -0.1004
16193TIP3    H169994   0.199   1.694   5.950  1.2870 -1.7966 -0.8611
16193TIP3    H269995   0.139   1.655   5.816  1.3338  1.0577 -1.7458
16194TIP3   OH269996   2.575   2.960  12.524  0.1090 -0.3591  0.8849
16194TIP3    H169997   2.635   2.940  12.596  0.8659 -2.2767 -0.2484
16194TIP3    H269998   2.527   2.878  12.509 -0.0319  0.0154 -0.7832
16195TIP3   OH269999   4.663   2.163  11.904 -0.1595  0.2314 -0.1131
16195TIP3    H170000   4.600   2.105  11.947 -0.4161  1.4769  1.1913
16195TIP3    H270001   4.739   2.163  11.961  0.6607 -0.4717 -1.1797
16196TIP3   OH270002   1.471   3.462   0.847 -0.1472 -0.0830 -0.1428
16196TIP3    H170003   1.506   3.374   0.860  4.9826  1.6540 -1.1130
16196TIP3    H270004   1.436   3.487   0.932  1.7186 -1.6644  1.1163
16197TIP3   OH270005   4.352   1.604  13.265 -0.3111 -0.0446 -0.3131
16197TIP3    H170006   4.427   1.557  13.301 -0.3209  1.1449  1.3236
16197TIP3    H270007   4.380   1.631  13.177  1.1623  0.3243  0.2580
16198TIP3   OH270008   5.116   1.147  13.411  1.1420  0.2367 -0.5271
16198TIP3    H170009   5.129   1.158  13.505 -0.6730  0.4484 -0.2872
16198TIP3    H270010   5.176   1.076  13.387  2.6588  1.1403  0.5083
16199TIP3   OH270011   1.037   0.576  15.603 -0.6369 -0.4296 -0.4773
16199TIP3    H170012   0.956   0.564  15.652  0.1309 -0.6751  0.7466
16199TIP3    H270013   1.035   0.668  15.576 -1.2531 -0.3969 -0.3273
16200TIP3   OH270014   3.152   6.716   5.820 -0.0098  0.1406 -0.1052
16200TIP3    H170015   3.123   6.682   5.904  0.2593  0.2535  0.0333
16200TIP3    H270016   3.200   6.796   5.841  2.5089 -1.3202 -0.1216
16201TIP3   OH270017   6.667   5.993   4.795 -0.2665  0.0762 -0.1520
16201TIP3    H170018   6.622   5.950   4.723  1.1055 -0.7121 -0.5547
16201TIP3    H270019   6.636   6.083   4.793 -0.5292 -0.0405 -1.4722
16202TIP3   OH270020   4.915   4.818   2.259  0.1856  0.2536 -0.9259
16202TIP3    H170021   5.006   4.788   2.249  0.0649 -0.4343 -0.0004
16202TIP3    H270022   4.877   4.805   2.172  0.7832 -0.1052 -1.1431
16203TIP3   OH270023   1.688   2.958  12.304  0.6144  0.2404  0.3989
16203TIP3    H170024   1.597   2.966  12.277  0.1024  3.3275  2.7598
16203TIP3    H270025   1.738   3.002  12.236  0.2460 -0.5676 -0.3943
16204TIP3   OH270026   1.537   5.008   1.608  0.2047 -0.5637  0.0997
16204TIP3    H170027   1.555   4.945   1.679  2.0548  0.9307  0.9852
16204TIP3    H270028   1.605   4.992   1.544 -1.5010 -1.9478 -1.4304
16205TIP3   OH270029   6.330   4.092   1.491 -0.6308  0.3120 -0.3124
16205TIP3    H170030   6.343   4.025   1.425 -3.1177 -0.4522 -0.1018
16205TIP3    H270031   6.314   4.172   1.442  2.6907  0.8881 -0.5642
16206TIP3   OH270032   2.280   1.358   2.919 -0.7357 -0.4680 -0.0367
16206TIP3    H170033   2.228   1.288   2.957 -0.6544 -0.8183 -0.5725
16206TIP3    H270034   2.221   1.434   2.919 -1.2460 -0.8555 -0.6246
16207TIP3   OH270035   0.110   1.676   3.133 -0.4371 -0.1256 -0.3529
16207TIP3    H170036   0.196   1.700   3.099 -0.2887  0.3828  0.3913
16207TIP3    H270037   0.094   1.589   3.096  0.9399 -0.7671  0.5123
16208TIP3   OH270038   5.303   1.833   4.903  0.4397  0.3330 -0.0816
16208TIP3    H170039   5.313   1.796   4.991  1.5195  2.1424  0.5781
16208TIP3    H270040   5.248   1.910   4.917  0.2759  0.3905 -1.0616
16209TIP3   OH270041   5.662   5.046   0.581  0.2432  0.4203  0.2438
16209TIP3    H170042   5.682   5.130   0.624  0.2619  0.9330 -0.7406
16209TIP3    H270043   5.672   4.981   0.650  1.0774  1.1429  0.8240
16210TIP3   OH270044   1.797   2.232   4.435  0.5440  0.0109  0.3756
16210TIP3    H170045   1.873   2.249   4.379  0.2048  0.6298  0.0937
16210TIP3    H270046   1.741   2.174   4.384  0.0219  0.9386 -0.1187
16211TIP3   OH270047   3.332   3.267  12.215  0.2913 -0.4012  0.2753
16211TIP3    H170048   3.418   3.226  12.219  0.8489  0.8007  0.8362
16211TIP3    H270049   3.345   3.344  12.159  0.1716  1.2063  2.4307
16212TIP3   OH270050   3.707   4.360  14.022 -0.4896  0.3844  0.1396
16212TIP3    H170051   3.643   4.386  13.956 -1.1063  0.3978  0.7339
16212TIP3    H270052   3.671   4.281  14.061  1.1476 -1.1565 -1.3317
16213TIP3   OH270053   1.590   1.530   5.639 -0.0113 -0.2581 -0.5690
16213TIP3    H170054   1.565   1.480   5.561 -1.9522 -0.8005  0.3846
16213TIP3    H270055   1.592   1.621   5.609 -0.8886 -0.4461 -1.2077
16214TIP3   OH270056   3.385   1.536  13.963  0.0550  0.1971 -0.7258
16214TIP3    H170057   3.372   1.452  14.007  0.4654 -1.3689 -3.4554
16214TIP3    H270058   3.305   1.585  13.981 -0.0918 -0.6696  1.1053
16215TIP3   OH270059   0.870   2.981   6.262  0.1743  0.2347  0.4832
16215TIP3    H170060   0.923   2.950   6.335  4.1060  0.3934 -2.1657
16215TIP3    H270061   0.836   2.902   6.220  1.3029 -0.0365  0.0786
16216TIP3   OH270062   3.150   5.704  15.068 -0.3769 -0.3193  0.3738
16216TIP3    H170063   3.227   5.677  15.118 -0.6151 -0.0475  0.8839
16216TIP3    H270064   3.077   5.694  15.128 -0.5535  0.8209  0.3552
16217TIP3   OH270065   2.797   4.792  10.967  0.3534 -0.5417 -0.1805
16217TIP3    H170066   2.885   4.769  10.937  0.6127  1.5723 -1.1247
16217TIP3    H270067   2.746   4.800  10.887  0.1007  1.3786  0.1521
16218TIP3   OH270068   1.293   5.729  11.457  0.1512 -0.0947 -0.2368
16218TIP3    H170069   1.237   5.664  11.415  0.8195 -1.2348  0.6178
16218TIP3    H270070   1.370   5.680  11.485  0.8448  1.1421  0.0602
16219TIP3   OH270071   2.639   6.219   6.823  0.2351 -0.3172 -0.5105
16219TIP3    H170072   2.572   6.160   6.857  0.8299 -0.3102  0.7223
16219TIP3    H270073   2.610   6.307   6.850  0.4413 -0.2635 -0.4571
16220TIP3   OH270074   1.505   6.610   0.286  0.3538 -0.1199 -0.1870
16220TIP3    H170075   1.578   6.571   0.239  1.4662 -0.8971  2.1331
16220TIP3    H270076   1.532   6.700   0.302  0.3484 -0.1131 -0.2174
16221TIP3   OH270077   3.673   4.609   1.833  0.1973 -0.1637 -0.5077
16221TIP3    H170078   3.750   4.649   1.792  1.2758 -1.3490  0.3072
16221TIP3    H270079   3.659   4.660   1.912 -0.0539  0.2527 -0.8194
16222TIP3   OH270080   2.266   0.720   2.806  0.4118  0.5203 -0.2266
16222TIP3    H170081   2.240   0.651   2.867 -0.9392 -0.7614 -2.2200
16222TIP3    H270082   2.184   0.755   2.772  1.0582  3.5241  1.1548
16223TIP3   OH270083   6.570   2.114  16.785  0.0241  0.4917  0.0762
16223TIP3    H170084   6.655   2.087  16.749  0.4330  1.1607  0.5445
16223TIP3    H270085   6.563   2.066  16.868 -0.5061 -0.3347 -0.4400
16224TIP3   OH270086   1.384   2.851   5.436  0.0809  0.1916  0.5036
16224TIP3    H170087   1.458   2.862   5.376 -0.0305  1.4143  0.5715
16224TIP3    H270088   1.376   2.756   5.447  0.2784 -0.0378 -1.1886
16225TIP3   OH270089   1.036   6.162   5.224 -0.5783 -0.0953  0.0678
16225TIP3    H170090   0.972   6.108   5.177 -0.9228 -0.8877  1.4080
16225TIP3    H270091   1.038   6.125   5.312 -0.1916  1.5588  0.7797
16226TIP3   OH270092   4.123   4.477   0.741 -0.1172  0.0503 -0.4855
16226TIP3    H170093   4.178   4.401   0.760  0.3538  0.4398 -0.3164
16226TIP3    H270094   4.167   4.522   0.669  0.2611  0.8576  0.2465
16227TIP3   OH270095   2.282   2.960  12.393  0.2918 -0.2640  0.0056
16227TIP3    H170096   2.366   2.938  12.351  1.1258  0.3883  1.3180
16227TIP3    H270097   2.233   3.007  12.325  1.3464  0.1598 -0.4716
16228TIP3   OH270098   1.658   2.611   1.155 -0.1344 -0.1805 -0.0761
16228TIP3    H170099   1.749   2.639   1.159 -0.5451  1.0245  2.1201
16228TIP3    H270100   1.621   2.661   1.082  1.1418 -1.3677 -1.5806
16229TIP3   OH270101   1.510   1.881   0.145 -0.7536  0.3317  0.4600
16229TIP3    H170102   1.468   1.950   0.195  0.4133  1.8334 -0.6029
16229TIP3    H270103   1.593   1.866   0.190 -0.1328  1.0135 -0.4315
16230TIP3   OH270104   1.595   5.914  16.454 -0.7474 -0.2221  0.0569
16230TIP3    H170105   1.550   5.909  16.539  1.3814 -2.1777  1.1290
16230TIP3    H270106   1.686   5.929  16.477 -0.1681 -0.6859 -1.9289
16231TIP3   OH270107   5.486   4.580   1.462 -0.1921 -0.1907  0.4429
16231TIP3    H170108   5.467   4.672   1.441 -0.7146 -0.5465 -0.7167
16231TIP3    H270109   5.560   4.584   1.522  1.0381  0.9386 -1.0852
16232TIP3   OH270110   3.859   1.569  15.558  0.2601  0.5500  0.4067
16232TIP3    H170111   3.851   1.622  15.638  1.2914 -2.6744  2.7675
16232TIP3    H270112   3.857   1.479  15.590  3.0724 -0.8125 -2.9903
16233TIP3   OH270113   6.407   1.726   0.072 -0.3827 -0.0331 -0.0462
16233TIP3    H170114   6.360   1.803   0.040 -0.5796 -0.6219 -1.2083
16233TIP3    H270115   6.354   1.652   0.042  0.0531 -0.6281  0.6548
16234TIP3   OH270116   1.032   2.593   5.026  0.0020  0.0590 -0.6233
16234TIP3    H170117   1.109   2.639   5.060  1.6194 -1.1331 -2.5713
16234TIP3    H270118   0.999   2.650   4.956  0.5525 -0.5444 -1.3874
16235TIP3   OH270119   6.742   3.544   4.478  0.0505 -1.0409 -0.6399
16235TIP3    H170120   6.675   3.477   4.494 -0.7061 -0.1154  0.1128
16235TIP3    H270121   6.743   3.596   4.558 -0.6831  0.9915 -1.9259
16236TIP3   OH270122   2.023   5.488  11.655 -0.2394  0.4619  0.1921
16236TIP3    H170123   2.069   5.567  11.684  0.9919  0.4716 -1.6713
16236TIP3    H270124   1.958   5.520  11.592  0.1586  0.0086 -0.4497
16237TIP3   OH270125   2.335   5.349  13.001 -0.0237  0.4183 -0.1711
16237TIP3    H170126   2.340   5.408  13.076  0.4023 -1.0299  0.9707
16237TIP3    H270127   2.414   5.295  13.008 -0.5820 -0.5292 -0.9787
16238TIP3   OH270128   4.654   6.251  16.775 -0.3022 -0.5360  0.2842
16238TIP3    H170129   4.647   6.172  16.829  2.7060 -0.9077  0.2105
16238TIP3    H270130   4.643   6.220  16.685  0.6714 -0.8550  0.2714
16239TIP3   OH270131   5.837   4.923  14.159  1.0770 -0.5900  0.2080
16239TIP3    H170132   5.823   5.018  14.164 -2.3570 -0.9410 -1.0429
16239TIP3    H270133   5.884   4.910  14.077  0.0012 -0.0603 -0.5172
16240TIP3   OH270134   2.868   4.926  12.524  1.1139 -0.6590 -0.1589
16240TIP3    H170135   2.925   4.901  12.597  0.9538 -0.6109 -0.0155
16240TIP3    H270136   2.906   4.883  12.448  1.2241 -0.7940 -0.0276
16241TIP3   OH270137   2.988   0.238  13.907 -0.3139 -0.0528  0.2253
16241TIP3    H170138   3.021   0.268  13.991  0.2324  2.9862 -1.0058
16241TIP3    H270139   2.899   0.207  13.925  0.5753 -1.4945  2.2719
16242TIP3   OH270140   1.785   5.472  14.930  0.6842 -0.1216  0.7748
16242TIP3    H170141   1.737   5.389  14.926  0.1958  0.2265 -0.9130
16242TIP3    H270142   1.810   5.481  15.022 -1.1334 -1.0657  1.3776
16243TIP3   OH270143   1.413   2.761  10.983 -0.4622  0.7907  0.2574
16243TIP3    H170144   1.471   2.710  10.927 -1.9771 -0.8826  0.1633
16243TIP3    H270145   1.378   2.698  11.046 -0.4967  2.2120  1.6918
16244TIP3   OH270146   3.637   0.257  11.625  0.3169  0.3321  0.3288
16244TIP3    H170147   3.655   0.277  11.533 -0.0475  2.2949  0.6683
16244TIP3    H270148   3.710   0.297  11.673 -2.0065  3.6781  1.2659
16245TIP3   OH270149   0.404   6.133   2.691  0.2687 -0.5456  0.1398
16245TIP3    H170150   0.386   6.171   2.605 -0.5382 -2.6045 -0.6316
16245TIP3    H270151   0.331   6.162   2.746  0.2873 -0.0009 -0.1269
16246TIP3   OH270152   1.496   4.125  12.556 -0.0342 -1.7186  0.1226
16246TIP3    H170153   1.547   4.078  12.622  0.5731 -0.3170  0.6785
16246TIP3    H270154   1.517   4.217  12.571 -0.7359 -1.3062 -1.3266
16247TIP3   OH270155   5.662   0.487   1.537 -0.2234 -0.4479 -0.6750
16247TIP3    H170156   5.641   0.579   1.546  0.5118 -0.0551 -2.6274
16247TIP3    H270157   5.621   0.461   1.454  2.1675 -1.0564 -1.7123
16248TIP3   OH270158   0.894   6.456   4.891 -0.1901 -0.0520 -0.3916
16248TIP3    H170159   0.954   6.467   4.817  1.2185 -1.8445  0.4521
16248TIP3    H270160   0.951   6.438   4.966 -1.8338 -5.5641 -0.2828
16249TIP3   OH270161   1.991   3.789  13.211 -0.5257  0.3895 -0.0599
16249TIP3    H170162   2.005   3.694  13.214 -0.1702  0.3962 -1.2914
16249TIP3    H270163   2.073   3.826  13.243 -1.0022  0.2797  1.3390
16250TIP3   OH270164   0.407   2.040   0.937 -0.3941  0.0446 -0.5989
16250TIP3    H170165   0.425   2.106   1.004 -3.2584 -0.0597  0.3528
16250TIP3    H270166   0.473   1.972   0.953 -0.0433  0.7596  1.1439
16251TIP3   OH270167   4.292   4.018   0.565  0.7686 -0.4477 -0.6332
16251TIP3    H170168   4.352   3.958   0.521  3.5011  0.6450  1.5065
16251TIP3    H270169   4.290   3.989   0.656 -0.6621  0.5431 -0.3237
16252TIP3   OH270170   4.984   4.446  12.255  0.3590 -0.1206 -0.5215
16252TIP3    H170171   4.935   4.490  12.325 -0.9765 -0.9280 -0.9201
16252TIP3    H270172   4.986   4.510  12.183 -1.4973 -0.6332 -1.0690
16253TIP3   OH270173   5.350   0.883  11.981  0.7125 -0.1858 -0.1422
16253TIP3    H170174   5.378   0.948  12.046  1.5581 -0.1654 -0.5257
16253TIP3    H270175   5.431   0.846  11.947  0.2255 -1.8596  0.4742
16254TIP3   OH270176   3.251   5.373  11.237 -0.0327  0.2300 -0.3753
16254TIP3    H170177   3.235   5.355  11.145  1.8459 -1.3242 -0.4350
16254TIP3    H270178   3.259   5.286  11.277 -3.8700  0.8040  1.8664
16255TIP3   OH270179   3.991   4.334  10.518  0.3543  0.0706 -0.1589
16255TIP3    H170180   3.925   4.271  10.489  0.4405  0.2138 -0.6583
16255TIP3    H270181   3.955   4.419  10.495  0.6609  0.1568 -0.3237
16256TIP3   OH270182   4.456   4.170   5.505 -0.1039 -0.2246 -0.2751
16256TIP3    H170183   4.520   4.127   5.561 -0.7227 -1.1268 -0.2511
16256TIP3    H270184   4.387   4.104   5.492  0.3144 -0.2630 -2.5754
16257TIP3   OH270185   2.071   0.707   1.389 -0.2442  0.2508 -0.2967
16257TIP3    H170186   2.131   0.780   1.407 -0.7461  0.5825  0.0808
16257TIP3    H270187   1.992   0.749   1.355 -0.8582 -0.0448  0.7486
16258TIP3   OH270188   4.837   3.597  15.168  0.4560  0.8773 -0.1605
16258TIP3    H170189   4.766   3.648  15.128 -0.3416  1.0892  1.4344
16258TIP3    H270190   4.824   3.610  15.262  1.0951 -1.1501  0.2202
16259TIP3   OH270191   6.399   6.213  12.423 -0.8909 -0.5378 -0.6682
16259TIP3    H170192   6.329   6.261  12.468 -0.6091  2.3298 -3.1645
16259TIP3    H270193   6.363   6.193  12.336  0.2990 -1.8120 -0.8922
16260TIP3   OH270194   0.422   3.362  13.294 -0.4239  0.1969  0.0769
16260TIP3    H170195   0.437   3.428  13.226 -0.9428  2.1765  1.8394
16260TIP3    H270196   0.373   3.409  13.362 -1.4403 -2.2040  1.0434
16261TIP3   OH270197   1.924   0.498   4.484  0.2189 -0.3147 -0.1651
16261TIP3    H170198   1.849   0.465   4.533 -0.1850  1.9889  0.8498
16261TIP3    H270199   1.991   0.515   4.550 -0.1022  2.2068 -0.4198
16262TIP3   OH270200   6.160   4.890   1.316  0.6052  0.5607 -0.2089
16262TIP3    H170201   6.138   4.960   1.377 -0.2893  0.1342 -0.0293
16262TIP3    H270202   6.171   4.813   1.372  1.0908  0.4534 -0.4526
16263TIP3   OH270203   4.632   0.047  14.931  0.5843 -0.1198 -0.1718
16263TIP3    H170204   4.711   0.082  14.972  1.1605 -0.6594 -0.8076
16263TIP3    H270205   4.654   0.040  14.838 -0.6999  1.0460 -0.5779
16264TIP3   OH270206   1.034   6.353   3.977 -1.1630  0.0860 -0.1776
16264TIP3    H170207   1.050   6.392   4.063 -0.6805  1.2473 -0.7955
16264TIP3    H270208   0.950   6.308   3.987 -0.8005 -0.3540  1.0903
16265TIP3   OH270209   3.815   4.010  14.283  0.0218 -0.6930 -0.2676
16265TIP3    H170210   3.722   3.987  14.282 -0.0396 -0.4250 -0.8458
16265TIP3    H270211   3.859   3.934  14.243 -0.0415 -0.4215 -0.8562
16266TIP3   OH270212   0.448   3.754   5.982 -0.5056  0.1803  0.1133
16266TIP3    H170213   0.485   3.709   6.058  1.7048  0.0130 -1.0118
16266TIP3    H270214   0.402   3.686   5.934  2.0685 -0.7683 -1.1143
16267TIP3   OH270215   0.586   5.064  12.916  0.3066  0.0419 -0.1051
16267TIP3    H170216   0.573   5.141  12.972  1.3734  0.1829 -0.0460
16267TIP3    H270217   0.555   5.092  12.830  2.0718  1.0589 -0.4463
16268TIP3   OH270218   4.133   2.000   5.181  0.3598 -0.2345  0.4404
16268TIP3    H170219   4.210   1.979   5.128 -1.4992  0.1387 -2.5686
16268TIP3    H270220   4.093   1.916   5.200 -0.4891 -0.2122 -1.1894
16269TIP3   OH270221   3.223   2.255  16.811  0.2031  0.1061 -0.1673
16269TIP3    H170222   3.228   2.161  16.829 -0.6557 -0.2799 -1.8712
16269TIP3    H270223   3.136   2.281  16.841  0.4177  0.3557  0.2508
16270TIP3   OH270224   6.062   4.245   2.347 -0.4073  0.6354  0.3556
16270TIP3    H170225   6.084   4.336   2.329 -2.1972  0.8588 -0.7409
16270TIP3    H270226   6.122   4.195   2.292  0.5523  1.1341  0.9307
16271TIP3   OH270227   4.503   6.001   3.232 -0.3584 -0.3470 -0.4072
16271TIP3    H170228   4.467   5.914   3.247 -0.3096 -0.3019 -0.0432
16271TIP3    H270229   4.495   6.046   3.316 -0.9753  0.2144 -0.7597
16272TIP3   OH270230   1.842   4.001   3.903  0.4659 -0.1392  0.3867
16272TIP3    H170231   1.883   3.958   3.828 -0.8821 -0.4535 -0.1733
16272TIP3    H270232   1.910   4.061   3.936  1.5784 -1.0828 -0.1592
16273TIP3   OH270233   5.251   0.982  13.713  0.0699 -0.4770  0.5146
16273TIP3    H170234   5.333   0.982  13.762 -0.0635  1.0951  0.7551
16273TIP3    H270235   5.245   1.070  13.676 -0.8067 -1.0244 -0.6943
16274TIP3   OH270236   5.571   0.098  16.444 -0.3645 -0.6103 -0.5026
16274TIP3    H170237   5.500   0.060  16.497 -1.2531  0.2594 -1.0396
16274TIP3    H270238   5.634   0.131  16.509 -1.1198 -0.1568  0.0151
16275TIP3   OH270239   4.356   4.052  14.231  0.5083  0.2815 -0.4560
16275TIP3    H170240   4.316   3.966  14.217 -1.0321  0.9761 -0.4543
16275TIP3    H270241   4.404   4.043  14.313 -1.9194  0.1724  1.0279
16276TIP3   OH270242   5.409   4.747   0.970  0.5392  0.3646  0.2301
16276TIP3    H170243   5.350   4.813   0.932  1.1738  0.9571  0.2634
16276TIP3    H270244   5.381   4.665   0.930 -0.3896  0.6211  0.3380
16277TIP3   OH270245   5.727   4.446  12.878  0.0554 -0.1208  0.1579
16277TIP3    H170246   5.744   4.473  12.968  0.0059  0.0148  0.1272
16277TIP3    H270247   5.769   4.514  12.824  0.4684 -0.4422  0.0782
16278TIP3   OH270248   5.343   4.207  16.554 -0.0377 -0.0359  0.1464
16278TIP3    H170249   5.393   4.129  16.529 -0.3777 -0.0114 -0.6286
16278TIP3    H270250   5.409   4.276  16.562 -0.1855  0.5462 -3.1432
16279TIP3   OH270251   3.997   5.602  13.213 -0.2068  0.1275 -0.0493
16279TIP3    H170252   3.973   5.556  13.132 -0.0771  0.6956 -0.4202
16279TIP3    H270253   3.914   5.633  13.249 -0.1826  0.8064 -0.5449
16280TIP3   OH270254   6.298   1.139  12.681 -0.1398 -0.0692  0.3577
16280TIP3    H170255   6.355   1.087  12.737  0.5531  0.3751  0.0648
16280TIP3    H270256   6.228   1.079  12.656 -0.6169 -0.1983  1.9283
16281TIP3   OH270257   3.244   6.067  11.387  0.3482  0.0386  0.6981
16281TIP3    H170258   3.330   6.046  11.425  0.4523  0.9976  1.0203
16281TIP3    H270259   3.206   5.982  11.365  1.6260 -0.3702  0.0175
16282TIP3   OH270260   6.440   6.774   0.485  0.0854  0.0268  0.9366
16282TIP3    H170261   6.352   6.762   0.449 -0.6606  2.2670  1.9490
16282TIP3    H270262   6.428   6.767   0.580  1.0366  0.1292  1.0680
16283TIP3   OH270263   1.655   3.247   0.652 -0.4380 -0.3439 -0.1374
16283TIP3    H170264   1.702   3.327   0.631  0.9281 -0.7402  1.2935
16283TIP3    H270265   1.687   3.222   0.739 -0.7176 -2.5194 -0.6212
16284TIP3   OH270266   1.907   3.453   0.995 -0.1312 -0.0920  0.1309
16284TIP3    H170267   1.826   3.500   1.016 -0.2056 -0.7400  1.2965
16284TIP3    H270268   1.971   3.486   1.058  0.7164  0.9228 -1.2215
16285TIP3   OH270269   3.569   1.082  12.431 -0.1704 -0.1835 -0.2091
16285TIP3    H170270   3.508   1.058  12.500 -1.0260 -0.8886 -1.1928
16285TIP3    H270271   3.530   1.160  12.391 -0.5631 -0.7666 -0.9837
16286TIP3   OH270272   3.428   5.923  13.665  0.1252  0.2751  0.1887
16286TIP3    H170273   3.460   5.965  13.745 -0.8248 -0.6014  1.0395
16286TIP3    H270274   3.337   5.899  13.686  0.1182 -0.6286 -0.8953
16287TIP3   OH270275   5.956   5.699   2.482 -0.1248  0.0783 -0.5404
16287TIP3    H170276   5.863   5.721   2.486 -0.6532 -2.2380  0.3924
16287TIP3    H270277   5.981   5.718   2.392 -1.3701  1.1532 -0.6848
16288TIP3   OH270278   1.562   4.403  13.607  0.1207  0.7340  0.9272
16288TIP3    H170279   1.610   4.379  13.528  0.8804  0.7744  1.3694
16288TIP3    H270280   1.529   4.491  13.589 -1.3450 -0.0050 -0.0836
16289TIP3   OH270281   2.794   5.627  13.904 -0.2974  0.4620  0.0393
16289TIP3    H170282   2.841   5.707  13.926 -0.7405  0.5468  0.7081
16289TIP3    H270283   2.862   5.559  13.898 -0.1898  0.3728  1.9933
16290TIP3   OH270284   4.194   6.736  12.966 -0.2036  0.1349 -0.0434
16290TIP3    H170285   4.169   6.643  12.970 -1.3148  0.4232  0.0897
16290TIP3    H270286   4.152   6.775  13.043  0.4224  0.7050  0.0079
16291TIP3   OH270287   2.347   5.804   5.762 -0.2147  0.3117 -0.3499
16291TIP3    H170288   2.280   5.864   5.796  1.6722  2.1805  0.1650
16291TIP3    H270289   2.398   5.857   5.701  0.7898 -1.1030 -0.7600
16292TIP3   OH270290   0.948   2.761  14.258 -0.5817 -0.0451 -0.1667
16292TIP3    H170291   0.920   2.682  14.212 -2.0423 -0.5628  1.5449
16292TIP3    H270292   0.895   2.831  14.221  1.6720  0.4235 -2.6548
16293TIP3   OH270293   1.368   5.736   2.097  0.2965  0.0207 -0.2074
16293TIP3    H170294   1.319   5.776   2.025  0.9589  0.9700 -0.1403
16293TIP3    H270295   1.436   5.685   2.054  1.4996  1.6312 -0.2424
16294TIP3   OH270296   5.612   5.511   5.290 -0.3208  0.4521  0.4227
16294TIP3    H170297   5.623   5.431   5.342  0.3891 -1.3372 -2.3393
16294TIP3    H270298   5.521   5.506   5.259 -0.4126  0.9627  0.6149
16295TIP3   OH270299   0.952   3.384   4.488 -0.2933  0.0778  0.6815
16295TIP3    H170300   1.039   3.347   4.505 -0.4759 -1.1403 -0.8874
16295TIP3    H270301   0.941   3.374   4.394 -2.1570  0.1728  0.8885
16296TIP3   OH270302   0.465   0.904  11.604  0.3294  0.2458  0.2518
16296TIP3    H170303   0.392   0.857  11.565 -0.5987 -1.2651  3.6965
16296TIP3    H270304   0.532   0.837  11.617  1.0482  0.9603  0.2548
16297TIP3   OH270305   3.397   0.726   2.903 -0.2494 -0.5123  0.2474
16297TIP3    H170306   3.384   0.802   2.846 -2.2982 -1.7260 -0.9507
16297TIP3    H270307   3.312   0.682   2.905  0.1302 -1.2201  3.2335
16298TIP3   OH270308   0.839   4.757  16.345  0.0830  0.4595 -0.7893
16298TIP3    H170309   0.866   4.707  16.422  1.7356  0.9139 -1.0599
16298TIP3    H270310   0.754   4.793  16.368 -0.6954 -1.6461 -0.2163
16299TIP3   OH270311   4.650   1.995   3.833  0.6326  0.2520 -0.2399
16299TIP3    H170312   4.708   2.023   3.903  1.0283 -1.6115  0.2066
16299TIP3    H270313   4.708   1.982   3.758  0.3985  0.9438 -0.5479
16300TIP3   OH270314   4.773   1.307  16.148 -0.1252  0.2017  0.1204
16300TIP3    H170315   4.800   1.355  16.070  0.5228  0.5933  0.5867
16300TIP3    H270316   4.832   1.231  16.151 -0.8302 -0.3787 -0.3446
16301TIP3   OH270317   6.412   0.878  12.425 -0.4743  0.2148  0.1982
16301TIP3    H170318   6.390   0.785  12.426 -0.9038  0.3225  1.3908
16301TIP3    H270319   6.350   0.919  12.486  0.5827  1.0698  0.7268
16302TIP3   OH270320   4.543   1.549   5.069 -0.1622 -0.0645 -0.8021
16302TIP3    H170321   4.631   1.525   5.098  0.2276  0.3095 -1.6560
16302TIP3    H270322   4.488   1.537   5.147  0.8704  1.0012  0.1114
16303TIP3   OH270323   0.578   0.010  11.758 -0.2385 -0.1363 -0.3153
16303TIP3    H170324   0.564   0.010  11.853 -2.9746  1.6692 -0.6396
16303TIP3    H270325   0.552  -0.077  11.730 -1.4444 -0.0083  0.3596
16304TIP3   OH270326   2.040   0.813   5.580 -0.0812 -0.5543 -0.8602
16304TIP3    H170327   2.033   0.847   5.669  1.2319 -0.8721 -0.6184
16304TIP3    H270328   1.970   0.747   5.573  0.6605 -1.5030  0.3994
16305TIP3   OH270329   5.040   3.322   0.324  0.8234  0.0023 -0.2409
16305TIP3    H170330   5.034   3.417   0.327  0.4945 -0.0590  1.6528
16305TIP3    H270331   5.122   3.305   0.277  0.7129  1.2065 -0.8814
16306TIP3   OH270332   2.547   3.375  15.489 -0.3674 -0.1334 -0.3147
16306TIP3    H170333   2.558   3.349  15.581  0.1274  0.0742 -0.3149
16306TIP3    H270334   2.619   3.436  15.473 -0.5278 -0.0766 -0.8056
16307TIP3   OH270335   0.599   5.277   2.099  0.0203 -0.2291 -0.1075
16307TIP3    H170336   0.523   5.333   2.081  0.7777  1.2439  1.1462
16307TIP3    H270337   0.673   5.338   2.102  0.9878 -1.4192  0.4450
16308TIP3   OH270338   4.072   2.535   5.677 -0.0095 -0.3353 -0.4157
16308TIP3    H170339   4.122   2.614   5.657  0.0901  0.0470  1.2250
16308TIP3    H270340   4.052   2.543   5.770  0.1332 -2.3087 -0.1939
16309TIP3   OH270341   6.479   4.274   5.151 -0.1560 -0.1588 -0.1614
16309TIP3    H170342   6.510   4.361   5.124 -0.4863 -0.3569 -1.2197
16309TIP3    H270343   6.397   4.290   5.196 -1.1701 -0.0607 -1.9986
16310TIP3   OH270344   1.032   1.532  12.401 -0.2367 -0.3680 -0.3780
16310TIP3    H170345   1.120   1.552  12.369 -0.1116 -2.1985 -1.1773
16310TIP3    H270346   1.002   1.460  12.347 -2.8463  1.2268 -1.1219
16311TIP3   OH270347   1.988   5.478  15.968 -0.1286  0.4761 -0.2063
16311TIP3    H170348   1.902   5.497  16.005  0.3580  0.5714  0.8979
16311TIP3    H270349   2.049   5.496  16.039  0.8159  0.5002 -1.0110
16312TIP3   OH270350   5.055   1.888  14.328  0.0621  0.2541 -0.2278
16312TIP3    H170351   5.066   1.798  14.359 -0.9645  0.0251 -0.5177
16312TIP3    H270352   5.094   1.888  14.241  0.5410  0.2333 -0.0188
16313TIP3   OH270353   0.806   5.108  12.051  0.4180  0.3125  0.5072
16313TIP3    H170354   0.725   5.118  12.103  0.9166  0.9286  1.1732
16313TIP3    H270355   0.807   5.184  11.993  0.5531  0.3386  0.5443
16314TIP3   OH270356   3.014   1.765   5.500 -0.1178  0.4999  0.1385
16314TIP3    H170357   2.998   1.705   5.573 -1.1045  1.1593  0.4816
16314TIP3    H270358   3.049   1.844   5.542 -1.3389  1.1368 -0.0105
16315TIP3   OH270359   2.690   4.099   1.732 -0.6152  0.0171  0.4155
16315TIP3    H170360   2.618   4.037   1.745  1.0029 -1.8938  0.4752
16315TIP3    H270361   2.734   4.068   1.653 -0.2859  1.6119 -0.0390
16316TIP3   OH270362   6.056   2.997  15.018 -0.1002  0.4919 -0.1231
16316TIP3    H170363   6.024   3.053  15.089 -1.6152 -0.2346 -0.2070
16316TIP3    H270364   5.998   2.921  15.019  1.2489 -0.5609 -0.7325
16317TIP3   OH270365   2.267   2.711   5.111  0.2665  0.1984 -0.1270
16317TIP3    H170366   2.341   2.755   5.068 -0.9687 -0.3829 -2.9862
16317TIP3    H270367   2.295   2.620   5.120  0.6234  0.3720  0.5611
16318TIP3   OH270368   4.476   5.064   1.873  0.0049  0.7525 -0.1531
16318TIP3    H170369   4.558   5.070   1.922  0.1745 -1.2218 -0.1462
16318TIP3    H270370   4.485   4.984   1.822 -1.4403  1.1616 -1.0752
16319TIP3   OH270371   0.482   5.482   6.170 -0.0143  0.1180 -0.1261
16319TIP3    H170372   0.397   5.478   6.213  0.5277 -0.9036  0.8729
16319TIP3    H270373   0.499   5.576   6.159 -0.4005  0.3789  1.4222
16320TIP3   OH270374   2.300   4.097   0.118  0.0097  0.2786  0.3187
16320TIP3    H170375   2.280   4.040   0.192 -0.4844  0.8293  0.6112
16320TIP3    H270376   2.282   4.186   0.150 -0.4314  0.4975 -0.5320
16321TIP3   OH270377   4.888   0.531   0.646  0.6437  0.8962  0.9281
16321TIP3    H170378   4.937   0.605   0.682  0.9902  0.2495  1.8136
16321TIP3    H270379   4.940   0.454   0.671 -0.9878  0.1803  2.1504
16322TIP3   OH270380   1.398   0.420  11.539  0.1261 -0.4592 -0.3109
16322TIP3    H170381   1.435   0.480  11.474  0.1352 -0.1431 -0.0152
16322TIP3    H270382   1.311   0.400  11.506 -0.4247  0.8526  0.3209
16323TIP3   OH270383   3.570   0.199   2.866 -0.0502 -0.1223 -0.9774
16323TIP3    H170384   3.508   0.157   2.925 -1.0910  0.5299 -1.6016
16323TIP3    H270385   3.644   0.139   2.862 -0.5838 -0.8350 -0.1202
16324TIP3   OH270386   3.121   0.259  15.466  0.0678  0.1396  0.5884
16324TIP3    H170387   3.035   0.301  15.466 -0.3497 -0.7160  0.7819
16324TIP3    H270388   3.174   0.314  15.524 -0.9119 -0.4806  2.1193
16325TIP3   OH270389   5.362   4.703   2.860 -0.4500 -0.0714 -0.2077
16325TIP3    H170390   5.345   4.792   2.830  1.9673  0.6810  0.5787
16325TIP3    H270391   5.379   4.653   2.781  1.2928  0.8733 -0.4369
16326TIP3   OH270392   0.034   5.900   1.630  0.1721  0.1681 -0.0813
16326TIP3    H170393   0.006   5.818   1.670 -2.2393  0.9396 -0.1165
16326TIP3    H270394   0.041   5.961   1.703 -1.1167  0.7479 -0.4445
16327TIP3   OH270395   6.718   0.936   4.418 -0.1828 -0.1017 -0.7389
16327TIP3    H170396   6.721   0.860   4.359  0.4865 -1.2969  0.7778
16327TIP3    H270397   6.661   0.908   4.489  1.2056  0.2708  0.5524
16328TIP3   OH270398   6.549   5.954   3.397  0.0036  0.7612 -0.3189
16328TIP3    H170399   6.520   5.955   3.489 -1.0857 -0.1518 -0.6407
16328TIP3    H270400   6.479   5.907   3.351  0.8875  0.6014 -1.5023
16329TIP3   OH270401   2.373   3.695   0.479  0.2791  0.0322  0.2319
16329TIP3    H170402   2.405   3.730   0.562  0.8290 -0.4791  0.2359
16329TIP3    H270403   2.443   3.714   0.416  0.6160 -1.1272  0.2533
16330TIP3   OH270404   0.273   5.157   4.724 -0.3335 -0.0497  0.2186
16330TIP3    H170405   0.315   5.112   4.650  0.3620  0.6924  0.1578
16330TIP3    H270406   0.277   5.250   4.701  2.1138  0.4287  2.2806
16331TIP3   OH270407   2.972   3.977  15.057 -0.3589 -0.0119  0.2710
16331TIP3    H170408   3.017   3.940  15.133 -0.5022 -1.1591 -0.2018
16331TIP3    H270409   2.882   3.991  15.087 -0.4427 -0.5707  0.2730
16332TIP3   OH270410   3.568   6.683  13.390  0.1663 -0.1739 -0.1544
16332TIP3    H170411   3.602   6.770  13.371 -0.4733  0.0193 -0.4526
16332TIP3    H270412   3.640   6.624  13.369  0.8355  0.3215  0.6926
16333TIP3   OH270413   0.897   0.767   4.794 -0.9087 -0.1330  0.2513
16333TIP3    H170414   0.819   0.767   4.848 -2.1354 -1.9465 -1.4428
16333TIP3    H270415   0.919   0.675   4.782  2.5670  0.3573  2.1463
16334TIP3   OH270416   2.418   3.120  13.146  0.4527 -0.2390 -0.4363
16334TIP3    H170417   2.399   3.035  13.186 -1.4034  1.0608  1.5602
16334TIP3    H270418   2.503   3.145  13.184 -0.4005  0.1172  1.2801
16335TIP3   OH270419   1.559   2.815   2.148 -0.0710  0.7502  0.1562
16335TIP3    H170420   1.552   2.795   2.055  0.1668 -1.9754  0.6712
16335TIP3    H270421   1.469   2.814   2.180  0.1099 -2.8324  0.7644
16336TIP3   OH270422   3.795   3.009   0.620  0.1344 -0.9408 -0.0178
16336TIP3    H170423   3.710   2.969   0.603  0.0615 -0.6997 -0.2273
16336TIP3    H270424   3.816   3.057   0.540 -1.2207  1.9730  1.3055
16337TIP3   OH270425   5.181   2.863   3.359  0.1855  0.7841  0.2803
16337TIP3    H170426   5.204   2.948   3.322 -2.1003  1.0079 -0.7610
16337TIP3    H270427   5.181   2.804   3.284 -3.4540  1.0140  0.0154
16338TIP3   OH270428   5.317   3.202  16.321  0.3948 -0.2706  0.0925
16338TIP3    H170429   5.255   3.187  16.392  0.0735  1.5821  0.2397
16338TIP3    H270430   5.277   3.271  16.269  1.8893  0.2749 -0.3588
16339TIP3   OH270431   4.285   2.207   2.192 -0.3123 -0.2465  0.1028
16339TIP3    H170432   4.205   2.215   2.139 -1.1856  3.4479  1.8820
16339TIP3    H270433   4.274   2.124   2.239 -2.2465 -0.6632 -1.0237
16340TIP3   OH270434   1.076   0.006   0.665 -0.6913  0.1622  0.1796
16340TIP3    H170435   1.162   0.047   0.678 -0.1381 -0.3998 -1.5585
16340TIP3    H270436   1.038   0.051   0.590 -0.6692 -1.5105 -0.8743
16341TIP3   OH270437   5.912   3.422   2.338  0.0317  0.5465  0.0933
16341TIP3    H170438   5.845   3.363   2.374  0.2658 -0.1738 -0.6270
16341TIP3    H270439   5.944   3.376   2.260  1.2209  0.9843  0.3151
16342TIP3   OH270440   3.827   4.761   4.579 -0.1143  0.3245 -0.3338
16342TIP3    H170441   3.800   4.708   4.653 -1.9450  0.6769 -0.7310
16342TIP3    H270442   3.773   4.840   4.583 -0.0585  0.4700 -1.8893
16343TIP3   OH270443   6.013   5.327  13.615 -0.1810  0.6370  0.4806
16343TIP3    H170444   6.027   5.240  13.653  2.5729  0.9190  0.2154
16343TIP3    H270445   6.036   5.388  13.686 -3.4642  1.2338  1.1519
16344TIP3   OH270446   2.608   3.242  12.574 -0.0853 -0.0622 -0.7342
16344TIP3    H170447   2.517   3.268  12.587 -0.3160 -1.0408 -0.3787
16344TIP3    H270448   2.604   3.150  12.548  0.7962 -0.0971 -0.7785
16345TIP3   OH270449   0.198   4.093   1.365 -0.0475  0.7742 -0.2596
16345TIP3    H170450   0.155   4.048   1.438  0.2270  1.1258  0.1253
16345TIP3    H270451   0.272   4.138   1.405  0.6289  0.2418 -0.9119
16346TIP3   OH270452   6.187   5.891  15.208 -0.1493  0.8010 -0.3155
16346TIP3    H170453   6.141   5.808  15.215  1.4822 -0.0444  0.8197
16346TIP3    H270454   6.244   5.893  15.284  2.5213  1.2491 -2.2374
16347TIP3   OH270455   1.065   2.250  14.614 -0.2194  0.4156  0.4280
16347TIP3    H170456   1.069   2.272  14.521 -2.8275  1.4726  0.5408
16347TIP3    H270457   1.110   2.322  14.658 -0.7594  0.9352  0.1324
16348TIP3   OH270458   4.718   6.194  12.672  0.0404 -0.2923 -0.2396
16348TIP3    H170459   4.644   6.150  12.629  1.1160 -0.3258 -2.1173
16348TIP3    H270460   4.779   6.123  12.692  0.9233  0.0649 -1.5380
16349TIP3   OH270461   1.812   6.582   4.440 -0.1060 -0.7798 -0.4929
16349TIP3    H170462   1.856   6.499   4.460  2.0462  0.2325 -0.9553
16349TIP3    H270463   1.806   6.583   4.344  3.0201  1.1607 -0.7082
16350TIP3   OH270464   3.303   0.217  13.397 -0.7192  0.8151  0.5761
16350TIP3    H170465   3.213   0.231  13.427 -0.9746  2.0443 -0.7038
16350TIP3    H270466   3.344   0.303  13.401 -0.1883  0.6430 -0.7060
16351TIP3   OH270467   5.176   3.725  13.013 -0.0841 -0.0811 -0.4659
16351TIP3    H170468   5.262   3.690  13.035  0.6512  0.9686 -1.6524
16351TIP3    H270469   5.194   3.810  12.973 -1.6119 -0.3489 -1.7492
16352TIP3   OH270470   0.070   1.107   6.104  0.3102 -0.0121 -0.0552
16352TIP3    H170471   0.090   1.200   6.102  0.4976 -0.0707 -0.9992
16352TIP3    H270472   0.077   1.083   6.197  1.5636  0.6366  0.0331
16353TIP3   OH270473   1.522   5.329  12.353  0.3975  0.2904  0.3945
16353TIP3    H170474   1.522   5.292  12.442  2.0837 -0.2213  0.1912
16353TIP3    H270475   1.612   5.319  12.323 -0.0225  1.0500 -1.1435
16354TIP3   OH270476   5.092   1.653  16.231 -0.2019  0.2560  0.4071
16354TIP3    H170477   5.180   1.684  16.211  0.0673 -0.1740  0.9104
16354TIP3    H270478   5.095   1.559  16.217 -0.8023  0.3443 -0.3505
16355TIP3   OH270479   4.575   1.153  16.571 -0.0386  0.6649 -0.1035
16355TIP3    H170480   4.613   1.066  16.560  2.3486  1.2966  2.6153
16355TIP3    H270481   4.623   1.208  16.510 -0.3923  0.4184 -0.6110
16356TIP3   OH270482   5.938   1.902   6.326  0.0860 -0.2821  0.0455
16356TIP3    H170483   6.030   1.905   6.352 -0.0052 -0.8986  0.4462
16356TIP3    H270484   5.900   1.832   6.378 -0.8431  0.6089  0.5845
16357TIP3   OH270485   0.967   4.480   2.892 -0.5253 -0.0087  0.0119
16357TIP3    H170486   0.950   4.520   2.978  0.5529 -2.2094  1.2843
16357TIP3    H270487   0.882   4.443   2.866 -1.3432  2.3581 -0.8202
16358TIP3   OH270488   5.150   3.542   0.479  0.2410 -0.2573 -0.3524
16358TIP3    H170489   5.096   3.619   0.497 -0.4764 -1.0530  0.9114
16358TIP3    H270490   5.184   3.557   0.390 -2.0361  0.2573 -1.1548
16359TIP3   OH270491   1.586   6.073   1.151  0.2974 -0.0272 -0.5602
16359TIP3    H170492   1.558   5.984   1.173 -0.9569  0.4364 -0.2595
16359TIP3    H270493   1.657   6.092   1.213 -0.4826 -0.2317  0.3916
16360TIP3   OH270494   3.860   3.635   1.637  0.2382  0.6285 -0.3103
16360TIP3    H170495   3.940   3.687   1.634  0.3475  0.4088 -1.4121
16360TIP3    H270496   3.889   3.545   1.629 -0.1420  0.5728 -1.1093
16361TIP3   OH270497   0.964   4.155   2.944 -0.4446 -0.2192  0.1174
16361TIP3    H170498   1.016   4.129   3.021  1.8714  0.3442 -1.2075
16361TIP3    H270499   1.007   4.111   2.871 -1.1046  1.2587 -1.1796
16362TIP3   OH270500   2.446   6.687   0.346 -0.0683 -0.3054 -0.3486
16362TIP3    H170501   2.448   6.680   0.441 -2.4255 -3.3593 -0.4172
16362TIP3    H270502   2.527   6.646   0.317  0.8913  1.0875  0.3527
16363TIP3   OH270503   2.028   6.286  14.666 -0.0436 -0.0410 -0.2153
16363TIP3    H170504   1.994   6.196  14.669 -0.8507  0.2999  1.1315
16363TIP3    H270505   2.063   6.301  14.754  0.5516  0.7813 -0.5934
16364TIP3   OH270506   4.056   4.652   1.271 -0.1368 -0.2063  0.3237
16364TIP3    H170507   4.134   4.631   1.219 -1.2887 -1.1278 -1.0732
16364TIP3    H270508   3.994   4.583   1.248 -1.6061  0.9343  0.8799
16365TIP3   OH270509   6.139   4.630   5.773  0.0865 -0.3856  0.2310
16365TIP3    H170510   6.066   4.661   5.827  0.5119 -1.6571  1.5614
16365TIP3    H270511   6.152   4.700   5.709 -0.0884  1.3884  2.0752
16366TIP3   OH270512   4.333   0.333   4.133 -0.7551  0.2737 -0.6091
16366TIP3    H170513   4.268   0.353   4.200  0.0135 -0.6496  0.4393
16366TIP3    H270514   4.292   0.359   4.051 -1.1418  2.8280  0.3498
16367TIP3   OH270515   2.236   5.397   2.544  0.2266  0.0206  0.6819
16367TIP3    H170516   2.169   5.350   2.593 -0.6836  1.2486  0.6362
16367TIP3    H270517   2.316   5.345   2.557 -0.2562 -0.3200  2.4496
16368TIP3   OH270518   3.970   4.682   3.363 -0.3432  1.1012  0.2175
16368TIP3    H170519   3.909   4.740   3.408 -1.1923  0.4304 -0.0361
16368TIP3    H270520   3.953   4.697   3.270  0.6745  1.7287  0.1330
16369TIP3   OH270521   4.996   2.092   3.503 -0.0342 -0.3209 -0.2818
16369TIP3    H170522   4.940   2.130   3.435 -0.2402 -0.7314 -0.3431
16369TIP3    H270523   4.947   2.105   3.584  0.2435  0.2330 -0.2008
16370TIP3   OH270524   3.719   0.047  15.848 -0.1805  0.9208  0.0820
16370TIP3    H170525   3.782   0.044  15.920  0.5262  1.3806 -0.5101
16370TIP3    H270526   3.769   0.082  15.774 -1.0400  0.9574 -0.4859
16371TIP3   OH270527   2.455   5.107  13.255 -0.2425 -0.3142  0.5210
16371TIP3    H170528   2.418   5.190  13.287 -0.9327  0.3481 -1.8832
16371TIP3    H270529   2.435   5.044  13.324 -1.8544  1.0000  1.2985
16372TIP3   OH270530   4.256   2.272  16.919 -0.1332  0.3297 -0.4530
16372TIP3    H170531   4.289   2.331  16.851 -0.6165  0.8128 -0.2706
16372TIP3    H270532   4.321   2.202  16.924  0.3119  0.7183 -0.8431
16373TIP3   OH270533   4.757   1.003  14.904 -0.4945 -0.0628  0.0131
16373TIP3    H170534   4.703   1.064  14.954 -2.2009 -1.3074 -0.2652
16373TIP3    H270535   4.695   0.939  14.869  1.0584 -1.0104 -1.0754
16374TIP3   OH270536   2.092   4.776  12.884  0.0276  0.1741  0.8775
16374TIP3    H170537   2.041   4.843  12.837  1.1600  1.1011  0.9543
16374TIP3    H270538   2.129   4.721  12.815  0.6499  0.7741  0.7282
16375TIP3   OH270539   1.851   2.569   4.848  0.3371  0.0798 -0.8358
16375TIP3    H170540   1.909   2.625   4.900  0.0705 -1.4158  1.1263
16375TIP3    H270541   1.775   2.624   4.829  0.9939  1.0413 -0.7209
16376TIP3   OH270542   3.158   3.364  14.478 -0.1254 -0.1010 -0.2998
16376TIP3    H170543   3.121   3.399  14.397 -1.7004 -0.1585  0.3695
16376TIP3    H270544   3.082   3.354  14.536  0.9870 -0.0218  1.1869
16377TIP3   OH270545   0.383   6.135   0.524  0.2200 -0.6558  0.3707
16377TIP3    H170546   0.438   6.173   0.593 -0.2329 -2.2720  1.6696
16377TIP3    H270547   0.312   6.198   0.513 -0.1906 -0.7782  2.0547
16378TIP3   OH270548   5.625   1.292  15.894  0.0072  0.0801 -0.2722
16378TIP3    H170549   5.646   1.254  15.979 -2.8006  0.2144  0.5101
16378TIP3    H270550   5.647   1.223  15.831  2.6994  0.2187  0.4571
16379TIP3   OH270551   4.043   3.553   4.739 -0.0563  0.0021  0.2680
16379TIP3    H170552   4.006   3.465   4.734 -0.2661  0.0717  0.5752
16379TIP3    H270553   3.969   3.611   4.725 -0.1005  0.1445  1.0603
16380TIP3   OH270554   1.659   3.945  11.016  0.0680 -0.2751 -0.7421
16380TIP3    H170555   1.686   3.862  10.978  1.0285  0.0522 -0.7811
16380TIP3    H270556   1.602   3.984  10.949  0.1335 -0.6107 -0.9960
16381TIP3   OH270557   6.157   6.556  14.170  0.0150  0.2421  0.0465
16381TIP3    H170558   6.209   6.636  14.177  1.2778 -0.4199 -1.4653
16381TIP3    H270559   6.114   6.548  14.255  0.9402  1.7937  0.6886
16382TIP3   OH270560   3.956   1.878   2.105  0.2683  0.0151  0.1307
16382TIP3    H170561   3.955   1.950   2.168 -0.4058 -0.1282  0.2932
16382TIP3    H270562   4.003   1.913   2.030  1.3179  0.0924  0.8194
16383TIP3   OH270563   3.147   4.816   0.186  0.3872 -0.0652  0.2492
16383TIP3    H170564   3.207   4.803   0.112 -0.6036  0.4315 -0.6615
16383TIP3    H270565   3.197   4.867   0.249  1.6638 -1.5328  0.4696
16384TIP3   OH270566   4.378   4.130   3.003 -0.3578 -0.2767 -0.1190
16384TIP3    H170567   4.311   4.063   2.992 -2.2954  1.6494 -0.3572
16384TIP3    H270568   4.402   4.126   3.096 -0.9031 -0.8667 -0.0047
16385TIP3   OH270569   2.483   6.189  14.607  0.3761 -0.4667  0.2404
16385TIP3    H170570   2.505   6.129  14.678  0.1357  0.3964  1.0533
16385TIP3    H270571   2.452   6.132  14.536  2.0456 -1.4630  0.2634
16386TIP3   OH270572   2.924   3.894  11.410  0.0693 -0.4135 -0.3871
16386TIP3    H170573   2.984   3.819  11.417 -0.8160 -1.0308  0.7264
16386TIP3    H270574   2.895   3.909  11.500 -0.0809  1.0131 -0.6779
16387TIP3   OH270575   1.165   0.821  12.788  0.0101 -0.0578 -0.1026
16387TIP3    H170576   1.203   0.908  12.799 -1.2904  0.5529 -0.3231
16387TIP3    H270577   1.119   0.826  12.704  1.0558 -1.3790 -0.7545
16388TIP3   OH270578   0.308   4.742  14.094 -0.0054  0.2813  0.1238
16388TIP3    H170579   0.331   4.812  14.155 -1.8809  2.8292 -1.9706
16388TIP3    H270580   0.214   4.732  14.101 -0.0171 -0.6548 -1.0474
16389TIP3   OH270581   1.224   4.925  11.354 -0.2838 -0.6396  0.0473
16389TIP3    H170582   1.159   4.878  11.302 -2.0530  0.6909  0.9794
16389TIP3    H270583   1.195   4.914  11.445 -0.6325  1.9922  0.3012
16390TIP3   OH270584   6.259   1.738   1.325 -0.0483 -0.3071 -0.0473
16390TIP3    H170585   6.210   1.748   1.407  0.1944  0.6038 -0.0084
16390TIP3    H270586   6.349   1.717   1.353 -0.9465 -4.7122 -0.1380
16391TIP3   OH270587   6.473   3.985   3.505 -0.1212 -0.6833  0.1303
16391TIP3    H170588   6.475   4.079   3.524  0.5577 -0.6913  0.1127
16391TIP3    H270589   6.474   3.943   3.591  1.1910 -0.6938  0.1215
16392TIP3   OH270590   1.044   0.256   0.346 -0.2279  0.6229  0.4595
16392TIP3    H170591   1.135   0.231   0.357 -0.8097 -1.9559 -0.1266
16392TIP3    H270592   1.002   0.230   0.428 -0.9358 -0.8044 -0.3301
16393TIP3   OH270593   1.264   4.814   5.590  0.0176 -0.1540  0.0854
16393TIP3    H170594   1.273   4.779   5.501 -4.3530  1.3115 -1.0515
16393TIP3    H270595   1.343   4.865   5.604  0.7641 -0.3776 -2.9872
16394TIP3   OH270596   1.194   6.363  11.431 -0.2844 -0.0895 -0.4541
16394TIP3    H170597   1.281   6.322  11.424 -0.8010 -1.1497 -0.8110
16394TIP3    H270598   1.177   6.398  11.344 -1.9650 -3.5377 -1.6137
16395TIP3   OH270599   5.592   5.150  13.967  0.2166  0.3143 -0.0887
16395TIP3    H170600   5.687   5.147  13.970  0.2743 -0.3024 -2.1240
16395TIP3    H270601   5.570   5.239  13.995  1.3998  0.6331 -0.1585
16396TIP3   OH270602   5.489   6.142   5.991  0.0020  0.0850  0.0104
16396TIP3    H170603   5.529   6.173   5.910 -1.7136 -1.0813 -1.2967
16396TIP3    H270604   5.548   6.072   6.022  0.6372  0.5115 -0.2325
16397TIP3   OH270605   2.739   1.095  15.185 -0.2961  0.5156 -0.9479
16397TIP3    H170606   2.805   1.042  15.229 -0.6755  0.4301 -0.4737
16397TIP3    H270607   2.769   1.185  15.197 -1.2134  0.5996  0.8766
16398TIP3   OH270608   2.202   5.471   4.312  0.4661  0.2955  0.0477
16398TIP3    H170609   2.278   5.480   4.370  0.4931 -0.2488  0.0988
16398TIP3    H270610   2.129   5.454   4.371  0.0085  2.4150  0.1240
16399TIP3   OH270611   6.104   3.721  17.074  0.4270 -0.1755  0.2490
16399TIP3    H170612   6.076   3.794  17.129 -0.2963  0.9446 -1.5673
16399TIP3    H270613   6.029   3.701  17.019  0.7317 -2.0784  0.4637
16400TIP3   OH270614   0.475   5.950   4.133  0.6729  0.3378  0.3943
16400TIP3    H170615   0.442   5.918   4.049  1.7846  1.6189 -0.5621
16400TIP3    H270616   0.428   5.899   4.199  1.1162 -1.9694 -1.0327
16401TIP3   OH270617   0.884   4.922   2.396  0.0944 -0.4422 -0.2013
16401TIP3    H170618   0.844   4.980   2.461 -0.9264 -1.0868 -0.2353
16401TIP3    H270619   0.875   4.968   2.313  0.0645 -0.2630 -0.0979
16402TIP3   OH270620   4.222   5.966  14.602  0.0593 -0.4468 -0.3327
16402TIP3    H170621   4.288   5.943  14.667 -0.5075 -2.1031 -0.3231
16402TIP3    H270622   4.153   6.008  14.652  0.5879  0.2368 -0.1750
16403TIP3   OH270623   1.657   6.621   5.519 -0.1826 -0.3548 -0.5840
16403TIP3    H170624   1.687   6.608   5.609 -1.3054  0.6961 -0.0302
16403TIP3    H270625   1.620   6.710   5.519  0.6221 -0.0026 -2.3145
16404TIP3   OH270626   2.990   4.895   4.176  0.9981 -0.3656  0.6469
16404TIP3    H170627   3.044   4.892   4.256  0.6066  0.2226  0.9287
16404TIP3    H270628   2.971   4.987   4.163  0.7229 -0.5006  0.0917
16405TIP3   OH270629   0.229   0.191   1.890  0.2775 -0.1120 -0.4711
16405TIP3    H170630   0.169   0.127   1.852 -1.5598  1.7731 -0.8245
16405TIP3    H270631   0.175   0.242   1.950  1.2891  2.2233 -1.4757
16406TIP3   OH270632   5.944   3.975  14.557  0.0803 -0.0250  0.0326
16406TIP3    H170633   5.928   4.067  14.538  1.9234  0.1673 -0.7468
16406TIP3    H270634   5.987   3.942  14.478 -1.4187 -1.8013 -0.0787
16407TIP3   OH270635   6.729   6.622   3.753 -0.2569  0.4001 -0.3009
16407TIP3    H170636   6.714   6.716   3.747 -2.2801  0.0690 -0.8590
16407TIP3    H270637   6.743   6.605   3.847  0.4325  1.2786 -0.2394
16408TIP3   OH270638   3.534   5.869   3.757  0.2255  0.0843 -0.2072
16408TIP3    H170639   3.469   5.885   3.689 -0.1084  0.4881  0.2045
16408TIP3    H270640   3.583   5.793   3.726 -2.1527 -1.8679  0.7364
16409TIP3   OH270641   1.726   4.687  16.814  0.1667 -0.0084  0.2826
16409TIP3    H170642   1.723   4.723  16.725  0.7326 -1.0599 -0.1712
16409TIP3    H270643   1.777   4.606  16.805  0.9604  0.3111  1.7089
16410TIP3   OH270644   1.704   2.884   5.556 -0.1796 -0.1746 -0.3993
16410TIP3    H170645   1.663   2.798   5.558 -2.7765  0.9723 -2.0368
16410TIP3    H270646   1.748   2.888   5.471 -1.6487  0.8030 -1.1249
16411TIP3   OH270647   3.855   4.973  15.820  0.2737 -0.1246 -0.4477
16411TIP3    H170648   3.931   4.943  15.772 -0.3319 -2.0952 -0.2215
16411TIP3    H270649   3.813   4.893  15.851 -1.3684  0.9655  0.2206
16412TIP3   OH270650   2.389   5.716  11.535 -0.0286  0.5701  0.8657
16412TIP3    H170651   2.367   5.809  11.542  2.3608  1.2780 -0.3855
16412TIP3    H270652   2.442   5.697  11.613  0.3777  0.5405  0.5864
16413TIP3   OH270653   4.066   3.823   4.961 -0.3008  0.6513  0.0122
16413TIP3    H170654   4.039   3.911   4.985 -2.7164 -0.1250  0.2647
16413TIP3    H270655   4.023   3.807   4.877 -0.9947 -0.7699  0.6171
16414TIP3   OH270656   3.400   3.604   2.503 -0.2034 -0.3926 -0.1620
16414TIP3    H170657   3.348   3.546   2.447 -0.1132 -0.2919 -0.3496
16414TIP3    H270658   3.468   3.639   2.445 -0.4664  0.1724 -0.1343
16415TIP3   OH270659   1.048   1.852  15.737 -0.6439  0.3248  0.0323
16415TIP3    H170660   1.031   1.795  15.812 -2.1538  0.8187  0.0796
16415TIP3    H270661   1.029   1.940  15.769  1.0142  0.7881 -0.2424
16416TIP3   OH270662   3.665   0.858  16.784 -0.3255 -0.4093  0.1669
16416TIP3    H170663   3.660   0.950  16.758 -0.9829 -0.4346  0.1901
16416TIP3    H270664   3.739   0.854  16.844 -0.3409  0.1172  0.2219
16417TIP3   OH270665   1.031   5.185   1.553  0.4720  0.3443 -0.5223
16417TIP3    H170666   0.996   5.212   1.638  0.5749 -0.0567 -0.3484
16417TIP3    H270667   1.125   5.182   1.566  0.4233 -0.6461 -0.3739
16418TIP3   OH270668   2.065   4.027  16.490 -0.0068 -0.7069  0.0210
16418TIP3    H170669   1.998   3.961  16.509 -0.0210  0.0603  2.9469
16418TIP3    H270670   2.144   3.993  16.533  0.8932 -0.4639 -1.3944
16419TIP3   OH270671   2.268   0.932   5.897 -0.0017 -0.0123 -0.2555
16419TIP3    H170672   2.277   0.845   5.934 -2.9227 -0.3309 -0.1480
16419TIP3    H270673   2.300   0.924   5.807 -1.0258 -1.4308 -0.5122
16420TIP3   OH270674   4.154   6.135   0.303 -0.4080  0.7203  0.3939
16420TIP3    H170675   4.130   6.047   0.331 -0.8520  0.6565 -0.1738
16420TIP3    H270676   4.078   6.189   0.326 -1.6652  0.3026 -2.4960
16421TIP3   OH270677   4.780   6.760  14.246  0.0695  0.0498  0.0107
16421TIP3    H170678   4.735   6.844  14.250 -0.1980 -0.1708  2.0231
16421TIP3    H270679   4.798   6.747  14.153 -1.1207  1.6712 -0.4695
16422TIP3   OH270680   0.781   1.055   1.053 -0.2102 -0.0066 -0.5731
16422TIP3    H170681   0.739   1.005   1.123 -2.0000 -0.0435 -1.6376
16422TIP3    H270682   0.762   1.005   0.974  0.9985  0.5264 -1.2131
16423TIP3   OH270683   1.448   5.433   4.894 -0.9702 -0.5152 -0.0247
16423TIP3    H170684   1.403   5.352   4.868 -0.5950 -0.5528 -0.5764
16423TIP3    H270685   1.535   5.425   4.855 -0.0694 -0.9718  2.0162
16424TIP3   OH270686   2.861   0.112  17.145 -0.7419 -0.2495  0.4754
16424TIP3    H170687   2.766   0.123  17.145 -0.4823  2.2201  0.2598
16424TIP3    H270688   2.895   0.199  17.124  1.5358 -1.4028 -0.6919
16425TIP3   OH270689   3.755   0.108  13.362  0.4362  0.7350  0.2242
16425TIP3    H170690   3.790   0.197  13.367 -0.7729  1.2192  0.0969
16425TIP3    H270691   3.779   0.078  13.275  1.5035  0.6470  0.5320
16426TIP3   OH270692   5.443   5.461   2.299  0.5673 -0.1683  0.2762
16426TIP3    H170693   5.386   5.529   2.262  0.5096 -0.1093  0.4699
16426TIP3    H270694   5.491   5.506   2.369  0.1025 -0.4652  0.7954
16427TIP3   OH270695   5.250   0.090   5.393  0.4386  0.1136 -0.5643
16427TIP3    H170696   5.184   0.045   5.341  0.6182 -0.4854 -0.2858
16427TIP3    H270697   5.225   0.182   5.391 -0.2683 -0.0804 -0.6522
16428TIP3   OH270698   1.514   0.454   3.891 -0.4242 -0.0757  0.1129
16428TIP3    H170699   1.496   0.471   3.798 -1.3807  1.1913  0.5048
16428TIP3    H270700   1.487   0.364   3.905  0.5533 -0.5583 -1.0397
16429TIP3   OH270701   5.816   6.077   4.012 -0.3945  0.2633 -0.2763
16429TIP3    H170702   5.731   6.069   4.055  0.2647  0.0647  1.0151
16429TIP3    H270703   5.840   6.169   4.020  0.2115  0.0288  0.7496
16430TIP3   OH270704   1.231   4.937  13.414  0.5839  0.6762 -0.6283
16430TIP3    H170705   1.232   4.842  13.400  1.0547  0.4884  0.6633
16430TIP3    H270706   1.189   4.972  13.335 -2.8105 -0.8669  0.3645
16431TIP3   OH270707   1.294   0.882   4.472 -0.3161 -0.1065  0.2035
16431TIP3    H170708   1.344   0.810   4.509  0.1509 -1.2153 -2.4600
16431TIP3    H270709   1.211   0.842   4.444 -1.5241  1.1242  1.9139
16432TIP3   OH270710   0.579   4.100   1.154 -0.6595 -0.2692 -0.1681
16432TIP3    H170711   0.666   4.096   1.195 -0.5329 -0.7443 -0.4818
16432TIP3    H270712   0.597   4.101   1.060 -0.9607  0.5333 -0.2217
16433TIP3   OH270713   6.654   3.582  15.937  0.0537 -0.7881 -0.1321
16433TIP3    H170714   6.663   3.651  15.871  1.0558 -1.1057 -0.3387
16433TIP3    H270715   6.592   3.618  16.001 -0.5711 -0.2926 -1.0054
16434TIP3   OH270716   4.263   4.478  16.608  0.6222 -0.3696  0.1776
16434TIP3    H170717   4.217   4.474  16.691  2.4992 -0.7629  1.2154
16434TIP3    H270718   4.272   4.571  16.589  0.1826 -0.2816  0.4108
16435TIP3   OH270719   4.958   6.641   3.481 -0.0632 -0.1161 -0.1180
16435TIP3    H170720   4.905   6.565   3.457  0.2695 -0.4364  0.1491
16435TIP3    H270721   4.998   6.617   3.565  0.1902  0.2780 -0.1246
16436TIP3   OH270722   2.232   2.909   5.322 -0.8491 -0.3255  0.2437
16436TIP3    H170723   2.195   2.852   5.255 -0.4345 -0.4523  0.1235
16436TIP3    H270724   2.294   2.854   5.369 -1.1878 -0.2560  0.7788
16437TIP3   OH270725   4.338   2.309   1.770 -0.4243  0.2772 -0.2468
16437TIP3    H170726   4.397   2.338   1.701  1.1395 -0.1391  0.8966
16437TIP3    H270727   4.275   2.380   1.779  1.3060  1.7615  0.1446
16438TIP3   OH270728   1.602   0.750   5.116 -0.1279 -0.6398 -0.5945
16438TIP3    H170729   1.526   0.693   5.114 -1.0676  0.5905 -0.6304
16438TIP3    H270730   1.589   0.810   5.043  1.0898 -0.6863 -0.8623
16439TIP3   OH270731   1.605   5.458  13.908  0.5958  0.1383  0.2298
16439TIP3    H170732   1.626   5.375  13.864 -0.3375  0.2026 -0.3406
16439TIP3    H270733   1.636   5.525  13.847 -0.2368  0.2208 -0.1091
16440TIP3   OH270734   3.722   2.884   0.182 -0.1313 -0.7139  0.3018
16440TIP3    H170735   3.778   2.876   0.259 -2.1841 -1.9853  1.6924
16440TIP3    H270736   3.732   2.801   0.136  2.0812  0.5094 -1.5500
16441TIP3   OH270737   3.884   6.090   4.049  0.3307 -0.2435  0.0675
16441TIP3    H170738   3.977   6.094   4.072  0.4049 -0.3585 -0.2065
16441TIP3    H270739   3.839   6.102   4.132  0.6212 -3.9678  0.8658
16442TIP3   OH270740   5.409   3.346   3.249 -0.7772  0.0263 -0.0953
16442TIP3    H170741   5.446   3.411   3.189  0.8277  1.0467  1.9305
16442TIP3    H270742   5.366   3.397   3.317  2.7583 -0.8371  2.9738
16443TIP3   OH270743   1.035   3.655  10.899  0.6807  0.4989  0.1627
16443TIP3    H170744   1.020   3.671  10.806  0.9535  1.8936  0.3422
16443TIP3    H270745   1.058   3.741  10.935 -2.0175  0.5091  2.0201
16444TIP3   OH270746   1.931   2.380  11.517 -0.4493 -0.3241 -0.8053
16444TIP3    H170747   1.841   2.352  11.536  0.0269 -0.4171  1.5188
16444TIP3    H270748   1.922   2.448  11.451 -2.1705 -0.8827 -1.1745
16445TIP3   OH270749   6.287   2.690  13.145  0.2258  0.7713  0.1976
16445TIP3    H170750   6.266   2.757  13.210 -2.9105 -0.4025  0.5113
16445TIP3    H270751   6.292   2.737  13.062 -0.2146  1.6654  0.6715
16446TIP3   OH270752   2.633   6.151  14.916 -0.2402 -0.1815  0.0763
16446TIP3    H170753   2.581   6.198  14.981 -1.1617  1.1190 -1.5500
16446TIP3    H270754   2.663   6.219  14.856  0.9540 -1.2980 -0.6148
16447TIP3   OH270755   4.518   1.939   5.367 -0.2803  0.2084  0.0993
16447TIP3    H170756   4.475   1.855   5.358 -0.8114  0.4195  0.6103
16447TIP3    H270757   4.596   1.921   5.421  0.0859 -0.1087 -0.5328
16448TIP3   OH270758   5.347   5.294  15.961  0.0952  0.1474  0.0911
16448TIP3    H170759   5.350   5.317  15.869  0.9563  1.4489  0.4342
16448TIP3    H270760   5.407   5.356  16.004 -1.7302  0.8264  1.7663
16449TIP3   OH270761   0.717   2.117   3.498  0.3309  0.0288 -0.4012
16449TIP3    H170762   0.622   2.131   3.498  0.5015  1.2740 -1.5383
16449TIP3    H270763   0.750   2.179   3.563  0.2944 -1.0804  0.7028
16450TIP3   OH270764   2.763   1.193   5.835  0.4808  0.2963 -0.2415
16450TIP3    H170765   2.742   1.099   5.836  0.7009  0.2469  1.7219
16450TIP3    H270766   2.859   1.196   5.835  0.4796  0.5456 -0.8100
16451TIP3   OH270767   1.834   3.487  13.757  0.4788  0.9362  0.0359
16451TIP3    H170768   1.749   3.444  13.757  0.9822 -0.0900 -0.4244
16451TIP3    H270769   1.830   3.551  13.686  0.1452  0.7767 -0.0878
16452TIP3   OH270770   0.046   5.166  16.377  0.4795  0.7422 -0.1407
16452TIP3    H170771   0.017   5.257  16.382  0.3458  0.7205 -0.5443
16452TIP3    H270772   0.058   5.140  16.469 -0.3612  0.8875  0.0196
16453TIP3   OH270773   4.013   4.232  16.125  0.5262 -0.1528 -0.9766
16453TIP3    H170774   4.056   4.272  16.201 -0.9008  0.1735 -0.3163
16453TIP3    H270775   3.965   4.158  16.161  0.4951 -0.4809 -1.6889
16454TIP3   OH270776   1.237   1.090  14.397 -0.5109  0.1650 -0.2761
16454TIP3    H170777   1.147   1.123  14.391 -0.3263  0.7825  0.3062
16454TIP3    H270778   1.268   1.120  14.483 -0.1959 -1.1614  0.0893
16455TIP3   OH270779   3.924   5.504  14.008 -0.4020 -0.1118  0.3982
16455TIP3    H170780   4.015   5.479  14.015 -0.1151  0.3816 -1.1883
16455TIP3    H270781   3.910   5.567  14.079  0.6723  0.2936  0.2625
16456TIP3   OH270782   2.570   5.953  16.115 -0.1789  0.0720 -0.3528
16456TIP3    H170783   2.542   6.043  16.129  0.5206  0.2778 -0.2640
16456TIP3    H270784   2.512   5.901  16.170 -1.5669  0.3341 -1.5508
16457TIP3   OH270785   3.048   6.664   3.115 -0.1501  0.4306  0.2200
16457TIP3    H170786   3.067   6.575   3.142 -0.6486  0.5347  0.9457
16457TIP3    H270787   3.104   6.680   3.040 -0.4856 -0.6922 -0.2712
16458TIP3   OH270788   5.682   1.049   3.621  0.0119 -0.3934  0.0293
16458TIP3    H170789   5.696   0.992   3.697 -0.6614 -0.7945 -0.1390
16458TIP3    H270790   5.623   1.117   3.653  0.1465 -0.2643  0.0037
16459TIP3   OH270791   4.442   1.945   6.673  0.3542 -0.1576  0.1244
16459TIP3    H170792   4.400   1.926   6.756  0.3714  0.0878  0.1897
16459TIP3    H270793   4.429   1.866   6.620 -0.3738  0.0028  0.0669
16460TIP3   OH270794   2.177   2.055   3.412 -0.4102  0.0511  0.2243
16460TIP3    H170795   2.202   2.100   3.331  3.0599 -1.0499  0.6031
16460TIP3    H270796   2.119   2.116   3.457  1.4464  2.7106 -0.8807
16461TIP3   OH270797   0.921   2.555   6.487  0.6111 -0.0729 -0.2976
16461TIP3    H170798   0.921   2.592   6.399 -0.0885 -0.1461 -0.3348
16461TIP3    H270799   1.005   2.509   6.494  1.8646  2.1836  0.0519
16462TIP3   OH270800   3.768   4.266   3.083 -0.5547  0.0977  0.1452
16462TIP3    H170801   3.690   4.237   3.132 -1.0666  1.3602  0.0943
16462TIP3    H270802   3.829   4.294   3.151 -0.1738 -0.8073  0.1810
16463TIP3   OH270803   6.052   0.251   5.631 -0.0299  0.7546  0.3511
16463TIP3    H170804   6.119   0.186   5.612 -1.4333 -0.4821 -0.4436
16463TIP3    H270805   6.085   0.297   5.708  1.4179 -0.2611  0.3646
16464TIP3   OH270806   3.025   6.217   3.762 -0.3235  0.2657  0.2845
16464TIP3    H170807   3.043   6.143   3.705 -0.7973  0.0720  0.3872
16464TIP3    H270808   3.104   6.271   3.756  0.5414 -0.8778  1.1937
16465TIP3   OH270809   5.379   1.521   1.602  0.0115 -0.1360  0.2274
16465TIP3    H170810   5.389   1.461   1.528 -1.2198 -0.1181  0.0428
16465TIP3    H270811   5.432   1.597   1.578 -1.6398  0.5453 -1.3746
16466TIP3   OH270812   1.142   4.608   0.721  0.2024 -0.4471 -0.4509
16466TIP3    H170813   1.163   4.614   0.815  1.5489  1.2792 -0.8469
16466TIP3    H270814   1.050   4.636   0.716  0.6779  1.2614  0.1321
16467TIP3   OH270815   1.021   3.469  14.471 -0.0823 -0.5690  0.6625
16467TIP3    H170816   1.024   3.374  14.460  0.3381 -0.6113  1.1220
16467TIP3    H270817   0.995   3.502  14.385 -1.5619 -1.1746  0.8623
16468TIP3   OH270818   3.523   6.051   5.791 -0.0031  0.1847 -0.0992
16468TIP3    H170819   3.446   5.995   5.795 -0.4237  0.8875  2.5544
16468TIP3    H270820   3.492   6.138   5.817  2.1049 -0.0616  3.6281
16469TIP3   OH270821   6.392   5.605  13.825 -0.2374  0.3889 -0.3908
16469TIP3    H170822   6.363   5.684  13.779 -1.7545  2.0845  3.3318
16469TIP3    H270823   6.465   5.634  13.879 -0.7218 -0.7705  0.9128
16470TIP3   OH270824   0.246   4.042  12.860 -0.3991 -0.1542  0.1271
16470TIP3    H170825   0.165   4.048  12.809 -0.5154 -0.7822  0.2336
16470TIP3    H270826   0.307   3.994  12.805 -0.5383 -0.8715  0.5857
16471TIP3   OH270827   5.113   3.014  12.632  0.5699 -0.1514 -0.4668
16471TIP3    H170828   5.199   3.023  12.672 -0.6125  1.2553  1.8690
16471TIP3    H270829   5.078   2.933  12.669 -0.1282  0.6331  0.6183
16472TIP3   OH270830   5.583   3.579   2.470 -0.6933 -0.3681 -0.0887
16472TIP3    H170831   5.581   3.553   2.378 -1.1600 -0.1702 -0.1332
16472TIP3    H270832   5.533   3.660   2.474  0.6035  0.4369  0.0874
16473TIP3   OH270833   4.316   5.740   5.452 -0.3202 -0.3157 -0.4092
16473TIP3    H170834   4.340   5.756   5.361 -0.9475 -3.3297 -1.1280
16473TIP3    H270835   4.244   5.800   5.468 -0.4033  0.0285 -1.9808
16474TIP3   OH270836   2.332   2.301  10.934 -0.2524 -0.3937  0.2104
16474TIP3    H170837   2.359   2.345  10.853  0.1621  0.1710  0.6534
16474TIP3    H270838   2.406   2.245  10.956  0.7213  1.3733  1.5835
16475TIP3   OH270839   3.933   1.353   5.238 -0.1002 -0.0559 -0.1883
16475TIP3    H170840   3.929   1.406   5.159 -2.3017 -0.5649 -0.4572
16475TIP3    H270841   3.962   1.267   5.207 -1.3343 -0.3616 -0.5131
16476TIP3   OH270842   1.003   0.528  14.423  0.1054 -0.1453  0.4678
16476TIP3    H170843   0.970   0.568  14.504 -1.1312 -1.1868  0.4933
16476TIP3    H270844   0.932   0.472  14.394 -0.6148  2.3686 -2.9157
16477TIP3   OH270845   4.412   2.541  13.941 -0.4978 -0.0266  0.8206
16477TIP3    H170846   4.483   2.477  13.942 -1.2319 -0.8607  0.0722
16477TIP3    H270847   4.417   2.583  14.027  0.8184 -0.1496  0.8268
16478TIP3   OH270848   5.390   6.548  11.563 -0.6376 -0.1081  0.2025
16478TIP3    H170849   5.399   6.641  11.543 -0.4842 -0.0765  0.4201
16478TIP3    H270850   5.456   6.531  11.630 -1.2206 -0.1878  0.7658
16479TIP3   OH270851   5.748   1.474  12.792  0.2807 -0.3410  0.1217
16479TIP3    H170852   5.727   1.530  12.867 -3.6382  0.1084 -1.1882
16479TIP3    H270853   5.715   1.388  12.816  0.5789 -0.6004 -0.3906
16480TIP3   OH270854   3.922   5.736  16.976  0.6963 -0.3581  0.4841
16480TIP3    H170855   3.836   5.733  16.934  0.4261  0.8530  0.9217
16480TIP3    H270856   3.977   5.680  16.921 -0.7156 -2.3575  1.0273
16481TIP3   OH270857   3.595   3.141   1.791  0.0641  0.3598  0.5171
16481TIP3    H170858   3.632   3.208   1.734 -1.7937 -0.0067 -1.1761
16481TIP3    H270859   3.607   3.059   1.743 -1.2567  0.0027  0.7784
16482TIP3   OH270860   0.770   4.956  15.824 -0.1429  0.3934 -0.3259
16482TIP3    H170861   0.856   4.981  15.858 -1.3610  0.9191  2.4267
16482TIP3    H270862   0.757   4.866  15.854 -0.8956  0.5898 -0.0542
16483TIP3   OH270863   4.953   1.042  17.073 -1.1160 -0.0808 -0.1087
16483TIP3    H170864   4.958   0.949  17.095 -1.9574  0.1697  1.1970
16483TIP3    H270865   5.023   1.082  17.124 -1.6742  0.1987  0.4426
16484TIP3   OH270866   1.367   1.413  16.264 -0.3574 -0.0611 -0.2933
16484TIP3    H170867   1.439   1.363  16.302 -0.3988  0.2692  0.2263
16484TIP3    H270868   1.370   1.393  16.171  1.8972  1.7501 -0.6625
16485TIP3   OH270869   2.360   3.022  14.350 -0.3552  0.0718 -0.1656
16485TIP3    H170870   2.376   3.091  14.286  1.5399  0.3638  0.5830
16485TIP3    H270871   2.305   2.958  14.304 -0.9149  1.3761 -1.3268
16486TIP3   OH270872   0.725   6.245  14.830  0.2355 -0.1844 -0.3171
16486TIP3    H170873   0.807   6.229  14.878 -1.0496 -0.8568  1.7435
16486TIP3    H270874   0.656   6.223  14.893 -1.5710  2.7898 -1.1791
16487TIP3   OH270875   1.208   3.212  12.836 -0.3841  0.0709 -0.2896
16487TIP3    H170876   1.204   3.260  12.919  0.7056  1.5575 -1.0636
16487TIP3    H270877   1.302   3.200  12.820 -0.6281 -2.0772 -0.2688
16488TIP3   OH270878   4.077   0.488  16.145 -0.1343 -0.1930  0.1565
16488TIP3    H170879   4.009   0.520  16.087  0.4211 -0.0610 -0.4244
16488TIP3    H270880   4.042   0.406  16.180 -1.2853  0.7063  1.1615
16489TIP3   OH270881   0.256   2.483  10.954 -0.3526 -0.3024 -0.0122
16489TIP3    H170882   0.213   2.453  10.874 -3.8225 -0.8284  1.9572
16489TIP3    H270883   0.321   2.416  10.973 -0.6923 -1.0619 -1.4617
16490TIP3   OH270884   2.586   4.989   5.126 -0.1344  1.0529 -0.2612
16490TIP3    H170885   2.672   4.985   5.168  0.3649 -1.8962 -1.4281
16490TIP3    H270886   2.547   4.903   5.144 -1.9477  1.5717 -1.5855
16491TIP3   OH270887   1.308   2.862   0.815 -0.7416 -0.4759  0.1515
16491TIP3    H170888   1.292   2.792   0.878  0.5565  0.7056  1.8534
16491TIP3    H270889   1.276   2.941   0.858  1.4767  0.5670 -0.0259
16492TIP3   OH270890   3.474   1.051  12.113 -0.1458  0.0838 -0.4674
16492TIP3    H170891   3.399   1.067  12.171 -0.7807 -1.2667 -0.8894
16492TIP3    H270892   3.437   1.057  12.025 -0.1193 -2.2516 -0.6471
16493TIP3   OH270893   5.256   3.355  14.913  0.3850  0.1243 -0.4580
16493TIP3    H170894   5.208   3.389  14.989 -3.4556  0.7717 -3.0467
16493TIP3    H270895   5.266   3.430  14.855  1.1839 -0.8839 -1.6547
16494TIP3   OH270896   2.437   5.235   2.565  0.8452 -0.0172  0.6379
16494TIP3    H170897   2.529   5.236   2.594  0.8652  1.7345  0.6166
16494TIP3    H270898   2.430   5.159   2.509  1.9724 -0.9028  1.6549
16495TIP3   OH270899   0.479   0.561   3.757  0.2754  0.8929 -0.1771
16495TIP3    H170900   0.514   0.608   3.681  0.7640  0.6510 -0.1046
16495TIP3    H270901   0.442   0.630   3.812 -0.2529  1.0515 -0.7213
16496TIP3   OH270902   0.582   4.975  14.053 -0.1910 -0.6674 -0.0187
16496TIP3    H170903   0.488   4.984  14.064 -0.5310 -1.5765 -1.8776
16496TIP3    H270904   0.604   5.033  13.980  0.4022 -1.6399 -0.6385
16497TIP3   OH270905   4.978   1.537  17.047  0.3143 -0.0631  0.8561
16497TIP3    H170906   4.924   1.458  17.058  2.0146 -1.4697 -0.4940
16497TIP3    H270907   4.949   1.595  17.117 -0.8800 -1.9507  2.0019
16498TIP3   OH270908   5.502   3.959  12.063 -0.1734  0.6863 -0.1472
16498TIP3    H170909   5.502   4.035  12.121 -1.0184 -0.2859  1.1514
16498TIP3    H270910   5.414   3.960  12.024 -0.1693  0.3840 -0.1591
16499TIP3   OH270911   2.285   1.971   2.749 -0.3991 -0.7002  0.1273
16499TIP3    H170912   2.261   1.888   2.709  0.0223 -0.5385 -0.4693
16499TIP3    H270913   2.326   1.947   2.832  0.4138 -1.1276 -0.3928
16500TIP3   OH270914   1.825   3.067   0.509 -0.6468 -0.3245 -0.4542
16500TIP3    H170915   1.750   3.104   0.555 -1.1848 -1.7392 -0.1663
16500TIP3    H270916   1.856   3.137   0.452 -2.2608  0.2314 -0.6529
16501TIP3   OH270917   0.426   5.191   4.206  0.2901 -0.2470  0.4305
16501TIP3    H170918   0.482   5.198   4.128  0.1335  1.0716  0.4167
16501TIP3    H270919   0.337   5.201   4.171  0.0408 -2.1527  0.4740
16502TIP3   OH270920   4.095   0.883   2.015  0.5593 -0.3952 -0.5368
16502TIP3    H170921   4.100   0.906   1.922  0.7181 -0.5337 -0.5642
16502TIP3    H270922   4.165   0.818   2.027 -0.0914 -1.1113 -0.5366
16503TIP3   OH270923   0.486   2.927  12.444 -0.5064  0.5589 -0.0006
16503TIP3    H170924   0.413   2.874  12.476 -0.4486  0.4174 -0.0989
16503TIP3    H270925   0.454   2.963  12.361 -0.5379  0.6582  0.0543
16504TIP3   OH270926   2.972   3.687  11.167 -0.6298 -0.3505 -0.3503
16504TIP3    H170927   3.028   3.760  11.141  1.4363 -0.9209  2.2736
16504TIP3    H270928   3.024   3.609  11.146 -1.6636 -0.9997 -0.5266
16505TIP3   OH270929   3.568   0.960  15.936  0.0750  0.2345 -0.3202
16505TIP3    H170930   3.542   0.946  16.027  1.2719  0.7917  0.1183
16505TIP3    H270931   3.633   1.030  15.940 -1.6960  2.0261 -1.8829
16506TIP3   OH270932   4.103   3.202  11.339  1.3637 -0.0919  0.6374
16506TIP3    H170933   4.079   3.293  11.324  0.2391 -0.5428 -0.5032
16506TIP3    H270934   4.064   3.180  11.424  0.7517  0.2077  0.4388
16507TIP3   OH270935   1.036   5.432   4.178  0.1479 -0.1054 -0.3894
16507TIP3    H170936   1.047   5.486   4.099 -1.5442 -1.0297 -1.2715
16507TIP3    H270937   1.007   5.494   4.245  2.1564  0.7894 -0.3010
16508TIP3   OH270938   3.289   4.737   0.584  0.5739  0.1149  0.0882
16508TIP3    H170939   3.317   4.655   0.544  1.8228 -0.3037  1.7635
16508TIP3    H270940   3.369   4.788   0.594  0.0666  0.8269  0.6321
16509TIP3   OH270941   2.568   5.559   7.037  0.1219 -0.4729  0.0305
16509TIP3    H170942   2.663   5.543   7.039  0.0325 -1.0108  0.0101
16509TIP3    H270943   2.548   5.571   6.944  0.1204 -0.6337  0.0113
16510TIP3   OH270944   0.067   1.607  14.649  0.2391 -0.1018 -0.1338
16510TIP3    H170945   0.008   1.636  14.579 -1.2760  0.6149  1.4325
16510TIP3    H270946   0.071   1.512  14.638  0.5017  0.0631 -1.5716
16511TIP3   OH270947   1.621   6.211   0.411 -0.4477 -0.2988  0.5027
16511TIP3    H170948   1.656   6.296   0.437  0.0780 -0.8429  1.6141
16511TIP3    H270949   1.534   6.231   0.376  0.6707  0.9825 -1.6416
16512TIP3   OH270950   0.902   4.814  16.669  0.0308  0.2597 -0.3326
16512TIP3    H170951   0.930   4.727  16.640 -1.2605 -0.4260  0.4139
16512TIP3    H270952   0.834   4.797  16.734  0.5048  1.8142  0.6151
16513TIP3   OH270953   3.122   3.396   2.481 -0.5736  0.8953  0.2635
16513TIP3    H170954   3.171   3.392   2.564  0.7570  1.0472 -0.5016
16513TIP3    H270955   3.182   3.359   2.416 -1.4690  1.1248 -0.7030
16514TIP3   OH270956   0.724   3.909   2.334  0.2140  0.0962  0.1414
16514TIP3    H170957   0.661   3.961   2.383 -1.1122 -0.2069 -1.1919
16514TIP3    H270958   0.671   3.847   2.285  1.6692 -1.3490  0.3429
16515TIP3   OH270959   0.588   3.472   2.821 -0.3678 -0.2620 -0.2270
16515TIP3    H170960   0.584   3.566   2.837  1.3612  0.4756 -3.5953
16515TIP3    H270961   0.507   3.452   2.774 -0.0227 -0.1326 -0.8852
16516TIP3   OH270962   6.673   4.137  12.414 -0.2277  0.0746  0.2557
16516TIP3    H170963   6.653   4.062  12.470 -2.5731  2.2683  2.4729
16516TIP3    H270964   6.603   4.138  12.349 -0.6815  0.8185  0.7499
16517TIP3   OH270965   1.004   0.413   0.087 -0.0746 -0.3476  0.2233
16517TIP3    H170966   1.029   0.405   0.179 -0.1248 -1.7797  0.1226
16517TIP3    H270967   0.938   0.481   0.086  1.8315  1.5791  0.8849
16518TIP3   OH270968   5.402   3.938  15.183 -0.4933 -0.8071 -0.3398
16518TIP3    H170969   5.470   3.961  15.120 -1.6149  0.3592 -1.1424
16518TIP3    H270970   5.358   3.862  15.144 -0.4152 -0.8299 -0.3841
16519TIP3   OH270971   5.939   3.107  15.963 -0.2850 -0.2960  0.3399
16519TIP3    H170972   5.870   3.067  16.016 -0.2153  0.0264  0.6734
16519TIP3    H270973   5.949   3.195  15.999  0.1557 -0.2687  0.1514
16520TIP3   OH270974   3.848   6.022  13.083  0.1656  0.0907 -0.3077
16520TIP3    H170975   3.774   6.036  13.024  0.8396  1.8616 -0.7737
16520TIP3    H270976   3.926   6.034  13.028  0.8310 -1.8408  0.1491
16521TIP3   OH270977   3.259   4.388  16.946  0.2885 -0.4303 -0.0968
16521TIP3    H170978   3.330   4.447  16.922 -0.8895  1.0794  0.0539
16521TIP3    H270979   3.250   4.399  17.041  0.3943 -1.2336  0.0111
16522TIP3   OH270980   3.306   3.694   0.850  0.2219  0.4265 -0.0488
16522TIP3    H170981   3.279   3.784   0.865 -1.8910  0.2627 -2.4414
16522TIP3    H270982   3.260   3.644   0.917 -1.0830  0.8017 -0.6507
16523TIP3   OH270983   4.066   5.648   2.672 -0.5789 -0.5146 -0.1469
16523TIP3    H170984   4.086   5.674   2.582  0.4903 -1.4807 -0.1972
16523TIP3    H270985   4.122   5.704   2.726 -1.3414  0.1800 -0.0653
16524TIP3   OH270986   5.261   1.810  16.530  0.0483 -0.5612  0.4700
16524TIP3    H170987   5.312   1.800  16.449  0.1736 -2.9364  0.8134
16524TIP3    H270988   5.177   1.845  16.501  1.1334  1.5265 -0.3157
16525TIP3   OH270989   5.198   6.630  16.119 -0.1916 -0.2244 -0.0723
16525TIP3    H170990   5.232   6.719  16.126 -0.9013  0.0258  0.1616
16525TIP3    H270991   5.206   6.594  16.207  1.1877 -0.7917 -0.4187
16526TIP3   OH270992   4.349   4.539  16.106  0.1813 -0.2607 -0.0226
16526TIP3    H170993   4.419   4.581  16.055  0.7931  0.5937  1.4869
16526TIP3    H270994   4.371   4.446  16.105 -1.1938 -0.6292 -3.4236
16527TIP3   OH270995   0.811   4.917   3.339  0.3958  0.5414 -0.1248
16527TIP3    H170996   0.751   4.991   3.343 -0.6968 -0.2809 -1.0858
16527TIP3    H270997   0.777   4.861   3.269  0.9881 -1.0529  0.8134
16528TIP3   OH270998   5.638   2.962   1.619 -0.1456 -0.0482 -0.1130
16528TIP3    H170999   5.642   3.057   1.614  0.1189 -0.1533 -2.1995
16528TIP3    H271000   5.544   2.943   1.622 -0.1843  0.3116  1.6230
16529TIP3   OH271001   2.739   6.421   5.207 -0.0753 -0.5853 -0.3112
16529TIP3    H171002   2.652   6.415   5.247 -0.3832  0.6117 -0.7834
16529TIP3    H271003   2.721   6.433   5.114  0.5254  2.9312 -0.0102
16530TIP3   OH271004   3.897   2.787  14.169 -0.1276  0.2180  0.8761
16530TIP3    H171005   3.867   2.732  14.097  1.0237  0.9413 -0.1565
16530TIP3    H271006   3.837   2.862  14.169  1.3306  1.4215 -0.8811
16531TIP3   OH271007   0.471   5.207   1.727  0.0964  0.2832 -0.1719
16531TIP3    H171008   0.435   5.174   1.645 -2.2795  1.3985  0.3688
16531TIP3    H271009   0.400   5.260   1.764  1.8175  1.3380  1.6773
16532TIP3   OH271010   3.147   4.100  12.415  1.0503 -0.4800 -0.2610
16532TIP3    H171011   3.219   4.148  12.375  0.9436 -0.7245 -0.7541
16532TIP3    H271012   3.182   4.013  12.433  1.8636  0.3671  2.4980
16533TIP3   OH271013   3.878   1.605  12.479 -0.4837  0.3409  0.0560
16533TIP3    H171014   3.922   1.604  12.564  0.7273  0.8079 -0.5594
16533TIP3    H271015   3.909   1.527  12.434 -1.9990 -0.5182  0.4660
16534TIP3   OH271016   1.292   1.109  13.994 -0.0510 -0.5064 -0.5349
16534TIP3    H171017   1.265   1.052  14.067  1.5097 -0.4725  0.0768
16534TIP3    H271018   1.361   1.164  14.031 -2.6745  3.0623 -0.5732
16535TIP3   OH271019   4.853   6.235   0.162 -0.1634  0.0600 -0.1238
16535TIP3    H171020   4.945   6.208   0.165 -0.2734 -0.4271 -0.9826
16535TIP3    H271021   4.804   6.153   0.158 -0.7599  0.2414  2.5484
16536TIP3   OH271022   2.232   0.307  13.311  0.0554 -0.1067  0.0509
16536TIP3    H171023   2.254   0.323  13.402 -2.8714  0.4821  0.6875
16536TIP3    H271024   2.219   0.394  13.273  1.8035 -0.3086 -1.1371
16537TIP3   OH271025   5.310   6.516  13.968 -0.3336  0.0794  0.3683
16537TIP3    H171026   5.306   6.490  14.060 -3.8581 -2.2809 -0.3467
16537TIP3    H271027   5.273   6.604  13.966  1.3194  0.8106  1.4084
16538TIP3   OH271028   2.010   0.859  10.881  0.2052  0.5270 -0.4687
16538TIP3    H171029   2.064   0.914  10.824 -0.0379  0.5134 -0.7125
16538TIP3    H271030   2.003   0.776  10.834 -1.3246  1.0429 -1.1698
16539TIP3   OH271031   2.716   3.481  14.520  0.2283 -0.0204  0.3726
16539TIP3    H171032   2.687   3.563  14.559 -1.0241 -0.3949  0.2651
16539TIP3    H271033   2.810   3.477  14.539  0.1520  1.0672  1.0314
16540TIP3   OH271034   3.168   3.233   6.007  0.0216  0.5612 -0.6493
16540TIP3    H171035   3.149   3.327   6.005 -0.2351  0.5716  1.3955
16540TIP3    H271036   3.134   3.203   6.091  1.2820 -1.1161 -0.7048
16541TIP3   OH271037   1.399   1.354  15.324 -0.3846 -0.9483  0.5801
16541TIP3    H171038   1.428   1.304  15.400  1.2858 -2.2314 -0.8330
16541TIP3    H271039   1.306   1.370  15.339 -0.2061 -1.6789  2.5988
16542TIP3   OH271040   4.889   3.868   2.685 -0.3059  0.0701  0.4045
16542TIP3    H171041   4.832   3.859   2.761 -0.0294  1.8026  0.8216
16542TIP3    H271042   4.977   3.871   2.721  0.0272 -1.8125 -0.1895
16543TIP3   OH271043   0.854   1.720   0.018 -0.5750  0.0414  0.4033
16543TIP3    H171044   0.922   1.666   0.059  0.1052  0.5261 -0.0876
16543TIP3    H271045   0.784   1.658  -0.001 -0.2413 -0.4788  0.8411
16544TIP3   OH271046   2.601   6.024   3.178  0.0674 -0.2128 -0.2731
16544TIP3    H171047   2.516   6.050   3.142 -0.0279  0.9853  0.8093
16544TIP3    H271048   2.659   6.025   3.102 -0.7379 -0.3871 -0.9034
16545TIP3   OH271049   0.191   3.783   0.114 -0.1590 -0.2731  0.2863
16545TIP3    H171050   0.264   3.802   0.056 -0.4350  1.9524  0.6278
16545TIP3    H271051   0.128   3.736   0.059 -0.1350  1.2417 -1.0311
16546TIP3   OH271052   3.777   3.975   2.326 -0.0164 -0.6994  0.2426
16546TIP3    H171053   3.695   4.022   2.312 -0.5167 -1.4390  0.6216
16546TIP3    H271054   3.783   3.915   2.252  1.0668  0.5684 -0.7164
16547TIP3   OH271055   2.567   0.123  17.237 -0.2617  0.1959  0.3542
16547TIP3    H171056   2.601   0.169  17.313 -0.3309  1.1039 -0.1558
16547TIP3    H271057   2.532   0.193  17.181 -1.2575 -0.5552  0.0221
16548TIP3   OH271058   4.564   5.223  13.511 -0.0989 -0.2701  0.4748
16548TIP3    H171059   4.543   5.279  13.586  1.1280 -2.5322  2.5472
16548TIP3    H271060   4.659   5.216  13.512 -0.2016 -1.8819 -0.1363
16549TIP3   OH271061   2.662   0.352  15.803  0.1898  0.6158 -0.1705
16549TIP3    H171062   2.672   0.436  15.848  1.5551 -0.0230  0.7637
16549TIP3    H271063   2.608   0.299  15.861  0.4106  0.4195 -0.1404
16550TIP3   OH271064   0.896   4.287   5.698  0.3630 -0.2005  0.0996
16550TIP3    H171065   0.934   4.215   5.749  1.7936 -1.7109 -2.9949
16550TIP3    H271066   0.801   4.277   5.709  0.5089 -3.1374 -1.0063
16551TIP3   OH271067   0.796   3.503  12.179  0.3795 -0.2902  0.6182
16551TIP3    H171068   0.706   3.527  12.159  0.1853 -0.0216  1.8032
16551TIP3    H271069   0.849   3.568  12.131 -0.1063  0.9979  1.7798
16552TIP3   OH271070   1.564   6.717   2.602 -0.0052 -0.4521  0.2702
16552TIP3    H171071   1.657   6.716   2.579 -0.0253  1.3973 -0.0387
16552TIP3    H271072   1.561   6.690   2.694  1.0660  1.3465  0.8713
16553TIP3   OH271073   3.705   6.260   4.679  0.5508  0.3708  0.5612
16553TIP3    H171074   3.711   6.206   4.758 -1.2655  0.0052  0.4895
16553TIP3    H271075   3.662   6.340   4.709  0.0259  0.3043 -0.0026
16554TIP3   OH271076   2.692   5.175   4.843  0.0494  0.1535  0.4264
16554TIP3    H171077   2.637   5.199   4.918  0.4017  0.9234  0.4336
16554TIP3    H271078   2.699   5.255   4.791 -1.3187 -0.7239 -1.1500
16555TIP3   OH271079   1.693   0.078   2.232 -0.2487  0.1624  0.0755
16555TIP3    H171080   1.747   0.042   2.302 -1.8822  0.8137  1.7478
16555TIP3    H271081   1.685   0.171   2.254 -1.7931  0.1332 -0.2768
16556TIP3   OH271082   5.692   5.936   4.841  0.1996 -0.6453 -0.1596
16556TIP3    H171083   5.738   5.920   4.923 -0.5920 -0.1080  0.3922
16556TIP3    H271084   5.631   6.007   4.861  0.6812  0.1455 -1.4625
16557TIP3   OH271085   4.483   2.400  17.119 -0.6395  0.1205 -0.0995
16557TIP3    H171086   4.432   2.434  17.193  1.3489 -1.4679  2.1054
16557TIP3    H271087   4.490   2.306  17.136  0.6949 -0.1117 -1.8072
16558TIP3   OH271088   1.189   0.042  16.172 -0.2290  0.6703 -0.3122
16558TIP3    H171089   1.144   0.108  16.224  0.6512  0.0946  1.2304
16558TIP3    H271090   1.209   0.086  16.089  1.1796  2.6825  1.0275
16559TIP3   OH271091   3.394   4.875   1.378 -0.0356  0.7908 -0.4190
16559TIP3    H171092   3.426   4.882   1.288 -0.7169  0.4699 -0.6944
16559TIP3    H271093   3.452   4.931   1.429  0.0155  1.4170 -1.1526
16560TIP3   OH271094   1.714   1.721   1.689 -0.9195 -0.4496 -0.4364
16560TIP3    H171095   1.737   1.809   1.720 -0.7654 -0.0230 -1.7555
16560TIP3    H271096   1.788   1.694   1.636 -0.9470 -1.4089  0.0094
16561TIP3   OH271097   0.870   2.566  14.941  0.4349 -0.3031  0.2345
16561TIP3    H171098   0.805   2.560  14.872  0.5431 -2.5480  0.3049
16561TIP3    H271099   0.954   2.569  14.895  0.4184 -0.1509  0.2164
16562TIP3   OH271100   6.223   3.550   1.741 -0.2419  0.2812 -0.0769
16562TIP3    H171101   6.291   3.602   1.784 -0.2188 -0.8816  1.3369
16562TIP3    H271102   6.180   3.502   1.813 -1.3828 -0.3416 -1.1513
16563TIP3   OH271103   4.675   5.327  16.365  0.5923 -0.0886 -0.4476
16563TIP3    H171104   4.624   5.404  16.393  0.6483 -0.3470  0.3811
16563TIP3    H271105   4.720   5.356  16.286  0.3665  0.6350 -0.3172
16564TIP3   OH271106   1.638   3.309   2.061  0.3259  0.0136  0.0994
16564TIP3    H171107   1.719   3.339   2.020 -0.0683  0.2173 -0.5335
16564TIP3    H271108   1.601   3.246   2.000 -0.3568  0.4549  0.0446
16565TIP3   OH271109   0.053   6.154  14.475 -0.0814 -0.2839  0.2150
16565TIP3    H171110  -0.033   6.152  14.518 -0.2626 -2.6129 -0.2070
16565TIP3    H271111   0.116   6.149  14.547 -0.3311 -0.4935  0.4200
16566TIP3   OH271112   4.449   1.570   2.758  0.1980  0.3868 -1.0346
16566TIP3    H171113   4.378   1.591   2.698 -0.6535 -0.0599 -0.1951
16566TIP3    H271114   4.491   1.493   2.719 -0.4370  0.0184 -1.0086
16567TIP3   OH271115   2.150   3.427   5.516  0.3692 -0.2584 -0.0522
16567TIP3    H171116   2.167   3.333   5.527  0.6087 -0.1671  0.3622
16567TIP3    H271117   2.231   3.463   5.481  0.3860 -0.1490  0.0994
16568TIP3   OH271118   2.686   3.948  10.718  0.0193 -0.2656  0.6894
16568TIP3    H171119   2.697   4.005  10.642  1.2287 -3.2388 -1.4694
16568TIP3    H271120   2.772   3.948  10.761 -0.0416 -0.2886  0.8129
16569TIP3   OH271121   4.524   4.925   3.546 -0.0279 -0.6828  0.3528
16569TIP3    H171122   4.544   4.948   3.637  0.4453 -0.9968  0.3296
16569TIP3    H271123   4.438   4.883   3.551  0.4061 -1.5310  0.7809
16570TIP3   OH271124   6.080   2.352   1.382 -0.1633 -0.0156  0.0256
16570TIP3    H171125   6.116   2.273   1.343  0.8531  0.0700  0.8024
16570TIP3    H271126   6.041   2.399   1.308  0.7889 -0.3883 -0.7224
16571TIP3   OH271127   5.166   4.163  15.036  0.4401  0.0102  0.8065
16571TIP3    H171128   5.242   4.109  15.060  0.5483 -0.7481 -1.1825
16571TIP3    H271129   5.094   4.127  15.088  1.3657  0.5776  2.5263
16572TIP3   OH271130   0.993   2.976   1.702 -0.4154 -0.0165  0.4192
16572TIP3    H171131   0.913   2.982   1.649 -0.4152  1.2301  0.5414
16572TIP3    H271132   0.961   2.980   1.792 -0.0963  2.5087  0.4610
16573TIP3   OH271133   3.934   3.209  17.162  0.4843  0.4565 -0.3489
16573TIP3    H171134   3.888   3.266  17.224 -0.5180  1.1441 -1.7164
16573TIP3    H271135   3.996   3.267  17.117  1.4739 -0.1170  0.2572
16574TIP3   OH271136   0.823   0.624  12.767  0.3498  0.5166  0.5119
16574TIP3    H171137   0.787   0.540  12.794 -1.5238  1.1284  0.0455
16574TIP3    H271138   0.894   0.642  12.829  0.0900 -0.9139  1.2325
16575TIP3   OH271139   0.837   2.869  11.430  0.2138 -0.3710 -0.1108
16575TIP3    H171140   0.911   2.925  11.455  0.4963 -0.4078 -0.8471
16575TIP3    H271141   0.797   2.914  11.356 -0.3403 -0.4943  0.1106
16576TIP3   OH271142   3.790   5.254   1.297 -0.0400 -0.5932  0.0429
16576TIP3    H171143   3.795   5.172   1.346 -0.8250 -0.4152  0.4353
16576TIP3    H271144   3.722   5.238   1.231  0.6303 -0.6498 -0.6331
16577TIP3   OH271145   0.252   2.517   2.164 -0.2458  0.3043  0.2655
16577TIP3    H171146   0.295   2.582   2.108  1.8442 -2.1983 -1.1445
16577TIP3    H271147   0.187   2.475   2.108 -1.6757  1.2245  1.2028
16578TIP3   OH271148   1.356   0.981   2.551  0.0566  0.2514 -0.1375
16578TIP3    H171149   1.378   0.890   2.533  0.0504  0.5283 -1.6144
16578TIP3    H271150   1.394   0.999   2.637 -1.3460 -1.6126  0.9007
16579TIP3   OH271151   3.728   4.976   0.796 -0.4577  0.8869 -0.0470
16579TIP3    H171152   3.789   5.035   0.750  0.3652 -0.3591 -0.5803
16579TIP3    H271153   3.785   4.918   0.846 -1.2420  0.0514 -0.1291
16580TIP3   OH271154   2.136   6.326   1.201  0.1458 -0.2974  1.2495
16580TIP3    H171155   2.186   6.252   1.166  1.6769  0.7536  1.1671
16580TIP3    H271156   2.097   6.293   1.282 -0.3301 -1.6012  0.5048
16581TIP3   OH271157   3.636   5.876  10.777 -0.4692 -0.4784  0.6239
16581TIP3    H171158   3.585   5.912  10.849 -0.0766 -2.4187  1.9084
16581TIP3    H271159   3.571   5.836  10.719 -0.7608  0.8568  0.0111
16582TIP3   OH271160   1.372   4.078   2.977  0.0508 -0.8411  0.3773
16582TIP3    H171161   1.308   4.149   2.970  0.2186 -0.6333  0.9859
16582TIP3    H271162   1.451   4.113   2.935  0.5032 -0.2353  1.7239
16583TIP3   OH271163   3.483   2.568  13.062  0.0083  0.4456  0.8761
16583TIP3    H171164   3.549   2.636  13.074  1.4000 -0.9798  1.5809
16583TIP3    H271165   3.462   2.571  12.969 -1.1057  2.8380  1.1609
16584TIP3   OH271166   1.576   6.273  15.078 -0.4304  0.4859 -0.3294
16584TIP3    H171167   1.514   6.215  15.035 -1.1447  0.7542  0.3186
16584TIP3    H271168   1.524   6.320  15.143  0.0507  2.1180 -1.0855
16585TIP3   OH271169   1.205   6.199   6.196  0.0845  0.1618 -0.0889
16585TIP3    H171170   1.173   6.286   6.222  1.0431 -0.0373  1.8773
16585TIP3    H271171   1.236   6.160   6.278  1.4448 -1.2934 -1.2719
16586TIP3   OH271172   4.867   2.945  13.153  0.4400 -0.1504  0.1305
16586TIP3    H171173   4.905   3.026  13.119 -1.4335  1.1038  0.9261
16586TIP3    H271174   4.842   2.896  13.075  0.9636  0.3482 -0.3560
16587TIP3   OH271175   5.605   0.297   0.913 -0.1385 -0.6947 -0.1837
16587TIP3    H171176   5.547   0.343   0.853  0.9761  1.0667  0.0167
16587TIP3    H271177   5.587   0.337   0.998  0.0718 -1.3990  0.1913
16588TIP3   OH271178   5.353   2.177   6.603 -0.3068 -0.2385 -0.1349
16588TIP3    H171179   5.289   2.208   6.538 -0.9028 -0.4543  0.3464
16588TIP3    H271180   5.395   2.101   6.561 -1.2729 -0.8843  0.0564
16589TIP3   OH271181   0.296   6.458   4.863 -0.7709  0.4351 -0.1566
16589TIP3    H171182   0.201   6.460   4.861 -0.8253 -0.5447  0.9967
16589TIP3    H271183   0.318   6.415   4.946  0.6619  0.0180 -0.7280
16590TIP3   OH271184   6.260   0.496   6.659 -0.2066 -0.4221  0.3633
16590TIP3    H171185   6.223   0.569   6.608  0.6973 -0.5274 -0.4608
16590TIP3    H271186   6.291   0.537   6.740  0.4546  0.1350 -0.1737
16591TIP3   OH271187   3.532   1.994  11.944 -0.3239  0.3693 -0.1032
16591TIP3    H171188   3.569   2.082  11.955 -1.5667  0.8274  0.4622
16591TIP3    H271189   3.458   2.007  11.885  0.3829 -0.5405 -1.1975
16592TIP3   OH271190   2.593   2.531   1.475  0.8988 -0.4303  0.3304
16592TIP3    H171191   2.660   2.590   1.509  0.8894  0.1394 -0.6347
16592TIP3    H271192   2.602   2.537   1.380 -2.1616  1.5539  0.1113
16593TIP3   OH271193   1.964   6.332   3.233  0.2149 -0.3445 -0.0256
16593TIP3    H171194   2.027   6.360   3.299  1.4022  0.1864 -1.3587
16593TIP3    H271195   1.980   6.239   3.222  1.2101 -0.0954 -0.7954
16594TIP3   OH271196   3.632   3.744   1.524  0.1862  0.1113 -0.6837
16594TIP3    H171197   3.724   3.732   1.547 -0.0052 -0.2174 -0.1024
16594TIP3    H271198   3.609   3.829   1.562 -0.1723 -0.5006  0.4804
16595TIP3   OH271199   3.659   6.707   0.323 -0.0290 -0.3979 -0.5181
16595TIP3    H171200   3.628   6.797   0.334  1.3228 -0.1630  1.7460
16595TIP3    H271201   3.732   6.714   0.262 -1.4291 -0.3098 -2.2069
16596TIP3   OH271202   4.771   0.242   0.794  0.2416  0.4426 -0.4841
16596TIP3    H171203   4.765   0.180   0.721  1.6215  2.0655 -2.0143
16596TIP3    H271204   4.680   0.263   0.815 -0.1819 -0.6106 -1.2410
16597TIP3   OH271205   3.391   0.492   4.716  0.1159 -0.4352 -0.5667
16597TIP3    H171206   3.368   0.576   4.756  0.2731 -1.2502  1.2747
16597TIP3    H271207   3.362   0.426   4.779 -0.6825 -1.8200 -2.3230
16598TIP3   OH271208   4.723   1.777   0.665 -0.3542 -0.0194  0.6879
16598TIP3    H171209   4.756   1.811   0.582  0.9060  0.2370  1.2795
16598TIP3    H271210   4.678   1.695   0.642  0.4208 -0.2082 -0.1803
16599TIP3   OH271211   2.748   3.702   5.272 -0.0474 -0.2216 -0.1699
16599TIP3    H171212   2.726   3.771   5.334  0.1239  0.5928 -1.0228
16599TIP3    H271213   2.761   3.746   5.189 -0.3006 -1.3225 -0.8072
16600TIP3   OH271214   3.371   1.153  15.778  0.1325 -0.3110 -0.1595
16600TIP3    H171215   3.418   1.165  15.695 -2.0097 -1.4752 -1.5893
16600TIP3    H271216   3.436   1.113  15.836  1.5790  0.2110 -1.3486
16601TIP3   OH271217   1.900   1.885  15.940 -0.1150 -0.2769 -0.8775
16601TIP3    H171218   1.848   1.869  16.018 -0.5969 -3.2827 -1.7348
16601TIP3    H271219   1.985   1.844  15.958  1.5861  3.4480  0.0021
16602TIP3   OH271220   3.862   1.293   2.675 -0.5415  0.4062  0.0999
16602TIP3    H171221   3.912   1.252   2.604 -0.2558  1.5564 -0.3787
16602TIP3    H271222   3.909   1.374   2.693 -0.9473  0.4004  1.2198
16603TIP3   OH271223   5.542   0.191  12.385  0.7223  0.3609  0.1717
16603TIP3    H171224   5.577   0.146  12.308  1.6253  0.0940  0.7458
16603TIP3    H271225   5.455   0.152  12.397  1.7195 -1.6931  1.0277
16604TIP3   OH271226   4.235   5.919   4.714  0.6523 -0.0487 -0.3906
16604TIP3    H171227   4.238   5.829   4.748  1.1744 -0.0241 -0.3801
16604TIP3    H271228   4.218   5.908   4.621 -0.0890 -0.1333 -0.2565
16605TIP3   OH271229   6.257   4.366  14.438  0.0379 -0.7375 -0.6337
16605TIP3    H171230   6.345   4.401  14.447 -0.3237  0.7566 -2.6133
16605TIP3    H271231   6.212   4.393  14.518  1.1447 -0.8565  0.0364
16606TIP3   OH271232   3.029   6.550   6.034  0.2358 -0.2977 -0.3033
16606TIP3    H171233   2.980   6.610   6.090  0.0946  0.7662 -1.5389
16606TIP3    H271234   3.055   6.479   6.092 -0.3898  0.5021  0.9840
16607TIP3   OH271235   3.871   0.206   3.078 -0.0186  0.2000 -1.2600
16607TIP3    H171236   3.942   0.145   3.099 -1.1241  0.0632  2.3749
16607TIP3    H271237   3.916   0.287   3.051  1.5264  0.0066  0.6284
16608TIP3   OH271238   4.362   6.680   3.178  0.0420 -0.4703  0.3822
16608TIP3    H171239   4.365   6.775   3.178  1.4681 -0.4936 -0.9808
16608TIP3    H271240   4.269   6.658   3.166 -0.4255  0.7110  1.6831
16609TIP3   OH271241   3.419   4.189   3.533 -0.1808  0.4179 -0.5515
16609TIP3    H171242   3.341   4.138   3.513  0.0880 -0.3895  0.4403
16609TIP3    H271243   3.492   4.131   3.512  0.1142 -0.2214  2.0814
16610TIP3   OH271244   2.747   6.121  13.775  0.0619  0.9200 -0.0064
16610TIP3    H171245   2.788   6.040  13.745  0.0711  0.5789  0.9151
16610TIP3    H271246   2.813   6.189  13.759 -0.4691  0.9759 -2.0665
16611TIP3   OH271247   3.192   1.624   1.470 -0.2132 -0.5833  0.0225
16611TIP3    H171248   3.155   1.557   1.528  0.0541 -0.5959  0.1811
16611TIP3    H271249   3.253   1.672   1.526  0.8565 -1.2857 -0.5339
16612TIP3   OH271250   0.032   2.845  13.685  0.0831  0.3417 -0.0477
16612TIP3    H171251   0.035   2.941  13.681 -0.0178  0.4192  1.4602
16612TIP3    H271252   0.123   2.818  13.683  0.2695  0.6329  2.3313
16613TIP3   OH271253   5.395   1.156   0.340  0.4662  0.4790 -0.1042
16613TIP3    H171254   5.328   1.190   0.280  0.7311  0.1760 -0.5764
16613TIP3    H271255   5.367   1.185   0.426 -2.1132 -2.5239  0.1622
16614TIP3   OH271256   3.904   2.946  10.673  0.8875 -0.7337  0.0154
16614TIP3    H171257   3.907   2.997  10.592  0.3059  0.4730  0.7251
16614TIP3    H271258   3.856   2.867  10.650 -0.5962  0.2775 -0.4711
16615TIP3   OH271259   3.098   3.276  13.803  0.6058 -0.5463 -0.2028
16615TIP3    H171260   3.129   3.269  13.712  0.2536  0.4633 -0.4084
16615TIP3    H271261   3.144   3.206  13.849  0.3524 -1.4374 -1.2797
16616TIP3   OH271262   5.530   4.975  13.304  0.1588 -0.3354 -0.3190
16616TIP3    H171263   5.540   5.038  13.232  2.5388 -0.8194 -0.4501
16616TIP3    H271264   5.617   4.968  13.342 -0.7020 -1.4276  1.5108
16617TIP3   OH271265   3.262   5.606   3.585 -0.2776  0.2917 -0.9938
16617TIP3    H171266   3.217   5.525   3.561  1.7217 -1.3121  0.4606
16617TIP3    H271267   3.335   5.611   3.524 -0.4893  1.0943 -1.1832
16618TIP3   OH271268   1.387   2.112   0.246 -0.3975 -0.1718  0.2434
16618TIP3    H171269   1.318   2.087   0.184 -0.7340  0.9149  0.1673
16618TIP3    H271270   1.371   2.205   0.263  0.6178 -0.0911  0.7821
16619TIP3   OH271271   2.343   2.693   5.780 -0.3324 -0.3569  0.4118
16619TIP3    H171272   2.347   2.663   5.689  0.5466 -1.4639  0.8095
16619TIP3    H271273   2.267   2.752   5.782 -0.3961 -0.3736 -1.0197
16620TIP3   OH271274   6.623   6.470  12.555 -0.2173 -0.2383  0.2824
16620TIP3    H171275   6.601   6.379  12.577 -0.5814 -0.0269  0.8099
16620TIP3    H271276   6.539   6.513  12.541 -0.0155 -0.1435 -0.6296
16621TIP3   OH271277   4.553   6.761   3.403  0.4322 -0.2664 -0.3481
16621TIP3    H171278   4.509   6.732   3.324  1.5606  0.5634 -1.2949
16621TIP3    H271279   4.496   6.829   3.439  0.4890  0.1840 -1.0919
16622TIP3   OH271280   0.401   2.366  14.311  0.5121 -0.9399 -0.4110
16622TIP3    H171281   0.410   2.460  14.323 -1.7112 -0.5429 -1.5236
16622TIP3    H271282   0.489   2.331  14.326  1.0980  1.1469  1.2749
16623TIP3   OH271283   0.731   2.329   6.509 -0.3765  0.2889 -0.7429
16623TIP3    H171284   0.804   2.356   6.453  0.8349 -0.4448  0.4237
16623TIP3    H271285   0.685   2.410   6.529  0.2293  0.7940 -1.3494
16624TIP3   OH271286   0.016   0.371   0.396  0.5528 -0.2960 -0.0634
16624TIP3    H171287  -0.026   0.297   0.439  1.3779 -0.5270  0.3557
16624TIP3    H271288   0.046   0.337   0.312  0.0546 -0.1750 -0.2913
16625TIP3   OH271289   0.553   5.839  12.612  1.0062 -0.1987  0.0041
16625TIP3    H171290   0.550   5.889  12.694  3.4246  0.2621 -0.1573
16625TIP3    H271291   0.570   5.749  12.639 -1.7954 -0.7363  0.1893
16626TIP3   OH271292   6.682   2.071  11.525  0.5890  0.1024  0.3058
16626TIP3    H171293   6.624   2.146  11.537  0.5636  0.0152  0.7352
16626TIP3    H271294   6.762   2.107  11.487 -0.1843  0.0617 -1.3981
16627TIP3   OH271295   1.434   2.692   4.385 -0.4081 -0.1652  0.4807
16627TIP3    H171296   1.424   2.713   4.292  0.0924  2.3924  0.9625
16627TIP3    H271297   1.523   2.658   4.393 -0.5067 -0.5415 -0.0019
16628TIP3   OH271298   1.915   2.997  12.679 -0.0682 -0.3427  0.4953
16628TIP3    H171299   1.964   2.915  12.680  0.5555  0.0249  0.4858
16628TIP3    H271300   1.823   2.971  12.670  0.0378 -1.0830  1.4579
16629TIP3   OH271301   6.676   4.469   1.983 -0.3711 -0.5868 -0.3976
16629TIP3    H171302   6.636   4.421   2.056 -1.1467 -0.7929 -0.9534
16629TIP3    H271303   6.699   4.554   2.020 -0.9375 -0.6208  0.0460
16630TIP3   OH271304   6.016   6.556  14.394 -1.1726  0.1213  0.0476
16630TIP3    H171305   5.924   6.567  14.420 -0.9029 -0.1446  1.1260
16630TIP3    H271306   6.048   6.485  14.449 -0.2999  0.2348 -0.3079
16631TIP3   OH271307   3.427   1.441   0.083 -0.3736  0.4157 -0.7492
16631TIP3    H171308   3.473   1.507   0.134 -1.6266 -0.5021  1.6054
16631TIP3    H271309   3.336   1.469   0.084 -1.1107 -1.9336  1.2694
16632TIP3   OH271310   5.011   3.925   5.255 -0.0842 -0.7867 -0.0427
16632TIP3    H171311   4.993   3.847   5.203 -1.8899  0.9653 -2.1118
16632TIP3    H271312   4.953   3.916   5.332 -1.8299 -0.5243 -1.2888
16633TIP3   OH271313   6.185   3.463   3.637  0.5500  0.0342  0.0064
16633TIP3    H171314   6.238   3.541   3.623 -0.2191  0.5431 -0.1188
16633TIP3    H271315   6.118   3.491   3.700  1.4445 -1.0613  1.4593
16634TIP3   OH271316   0.835   0.478  13.725  0.3598  0.3824  1.0213
16634TIP3    H171317   0.904   0.497  13.789  1.2965  0.2821  0.0594
16634TIP3    H271318   0.880   0.476  13.641 -1.1538  2.2238  0.1378
16635TIP3   OH271319   4.155   2.753   0.138  0.1898  0.0686  0.0410
16635TIP3    H171320   4.172   2.781   0.228 -1.2510 -0.7676  0.5974
16635TIP3    H271321   4.117   2.831   0.096  3.2576  1.2649 -0.6072
16636TIP3   OH271322   6.576   5.563  15.806 -0.5036 -0.6812 -0.0950
16636TIP3    H171323   6.604   5.490  15.751  2.2375 -1.0154  1.6586
16636TIP3    H271324   6.649   5.624  15.804 -1.0685  0.0779  1.8264
16637TIP3   OH271325   0.533   1.207  13.478  0.0059 -0.0179 -0.0893
16637TIP3    H171326   0.459   1.263  13.502  0.1107  0.3072 -0.5221
16637TIP3    H271327   0.506   1.119  13.504 -0.0968  0.2499  0.7419
16638TIP3   OH271328   3.469   2.819   6.033 -0.1395 -0.4141 -0.5323
16638TIP3    H171329   3.558   2.820   6.067 -0.2768  1.6275 -0.1868
16638TIP3    H271330   3.414   2.807   6.111 -0.2697  0.6336 -0.4545
16639TIP3   OH271331   3.547   6.005   4.188 -0.3755 -0.0206  0.7120
16639TIP3    H171332   3.576   6.092   4.217 -0.2085  0.1894 -0.0986
16639TIP3    H271333   3.614   5.945   4.220  0.4646  0.3584 -0.3586
16640TIP3   OH271334   5.515   2.351  15.329 -0.8804  0.2249 -0.2335
16640TIP3    H171335   5.558   2.428  15.292  0.7107 -0.7397 -0.4720
16640TIP3    H271336   5.588   2.295  15.357 -1.9725 -1.6717 -1.0769
16641TIP3   OH271337   5.446   2.498  14.551 -0.0370  0.0904 -0.5185
16641TIP3    H171338   5.497   2.535  14.623 -0.4585 -2.5061  1.1804
16641TIP3    H271339   5.390   2.570  14.521  1.0895  1.5622  0.8526
16642TIP3   OH271340   0.195   4.316  12.627 -0.6351 -0.0663 -0.4961
16642TIP3    H171341   0.136   4.313  12.703 -0.7625 -0.6634 -0.6147
16642TIP3    H271342   0.182   4.232  12.584  0.6844 -0.4110 -0.2460
16643TIP3   OH271343   3.196   5.643  13.796 -0.5293  0.4414  0.0728
16643TIP3    H171344   3.147   5.715  13.837 -2.5611 -1.0935  0.4169
16643TIP3    H271345   3.204   5.578  13.866  0.1500 -0.2142 -0.6161
16644TIP3   OH271346   0.581   3.557  15.297 -0.2411 -0.2600  0.4701
16644TIP3    H171347   0.512   3.491  15.287  2.2987 -2.6215 -3.1099
16644TIP3    H271348   0.657   3.507  15.328  1.0131  1.4304  0.1890
16645TIP3   OH271349   1.640   3.643   0.047 -0.1298 -0.7460 -0.0909
16645TIP3    H171350   1.605   3.629  -0.041 -0.6045  0.5520 -0.1339
16645TIP3    H271351   1.562   3.656   0.101  0.1704 -1.2330  0.4574
16646TIP3   OH271352   5.019   4.673   5.882  0.2568 -0.1246 -0.2477
16646TIP3    H171353   4.943   4.646   5.829 -0.3030  1.3585 -0.2286
16646TIP3    H271354   4.984   4.681   5.971 -0.4674  3.9471 -0.7937
16647TIP3   OH271355   1.152   4.454  15.732  0.0849 -0.4315 -0.8179
16647TIP3    H171356   1.234   4.499  15.749 -0.2160  0.0444 -0.6263
16647TIP3    H271357   1.088   4.499  15.787  0.0708 -2.0405  0.5420
16648TIP3   OH271358   0.749   4.642   6.031  0.0456 -0.4304  0.4921
16648TIP3    H171359   0.835   4.667   6.065 -0.1361 -0.1111  0.7139
16648TIP3    H271360   0.686   4.679   6.093 -0.2331 -1.4541  0.8467
16649TIP3   OH271361   4.280   6.728  15.435 -0.1025  0.0946 -0.2963
16649TIP3    H171362   4.368   6.763  15.426 -0.3257  0.8808  0.5272
16649TIP3    H271363   4.232   6.762  15.360 -0.5295  2.2393  0.9100
16650TIP3   OH271364   4.145   1.609   4.768  0.3136  0.0557 -0.2107
16650TIP3    H171365   4.235   1.598   4.737  0.6290 -1.8259  1.2877
16650TIP3    H271366   4.149   1.592   4.862 -1.7071 -0.7365 -0.2338
16651TIP3   OH271367   1.283   4.956  12.610 -0.1354  0.4475  0.2187
16651TIP3    H171368   1.207   4.955  12.552  0.9491 -0.2355 -1.2341
16651TIP3    H271369   1.249   4.929  12.695 -1.3184 -0.9687 -0.6796
16652TIP3   OH271370   3.059   4.770  14.439  0.0154  0.4068  0.0680
16652TIP3    H171371   3.063   4.808  14.527 -2.2622 -0.5860  0.6356
16652TIP3    H271372   3.074   4.676  14.453  0.0736  0.3123 -0.6339
16653TIP3   OH271373   3.727   3.633  14.271  0.8497 -0.4458  0.3674
16653TIP3    H171374   3.698   3.720  14.246  3.6195 -0.0459 -1.6751
16653TIP3    H271375   3.767   3.645  14.358 -3.0307 -0.6372  2.2642
16654TIP3   OH271376   0.136   3.859  10.877  0.2058 -0.4773  0.2172
16654TIP3    H171377   0.186   3.847  10.796 -1.7864  1.2678 -1.3528
16654TIP3    H271378   0.056   3.903  10.848 -0.9365 -0.6278  3.0467
16655TIP3   OH271379   3.517   4.806   4.744  0.0541  0.4725  0.1745
16655TIP3    H171380   3.565   4.810   4.827 -0.8224  1.2219  0.6522
16655TIP3    H271381   3.455   4.734   4.756  0.5521 -0.0165 -0.1729
16656TIP3   OH271382   0.127   1.236  15.678 -0.2804  0.1910  0.0770
16656TIP3    H171383   0.107   1.312  15.734 -0.2615  0.1550  0.1318
16656TIP3    H271384   0.195   1.189  15.726 -0.8304 -0.2725  0.4179
16657TIP3   OH271385   0.416   3.923   5.282  0.8501 -0.3616 -0.2220
16657TIP3    H171386   0.371   4.007   5.277  0.7744 -0.3332  0.7776
16657TIP3    H271387   0.347   3.859   5.301  1.0862 -0.4616  0.3080
16658TIP3   OH271388   0.365   1.774  16.431 -0.6235  0.2079 -0.3403
16658TIP3    H171389   0.436   1.733  16.481  0.4753  2.2802 -0.1375
16658TIP3    H271390   0.341   1.709  16.365  0.7778 -0.9239  0.2558
16659TIP3   OH271391   5.602   1.293   5.015  0.8934 -0.1469  0.0045
16659TIP3    H171392   5.570   1.223   5.073 -0.2606  0.0674 -0.3607
16659TIP3    H271393   5.647   1.247   4.945 -0.4466 -0.5810 -0.5941
16660TIP3   OH271394   4.484   2.739   0.008 -0.0715 -0.5377 -0.2420
16660TIP3    H171395   4.561   2.696  -0.030 -0.2110 -0.0806 -1.0493
16660TIP3    H271396   4.411   2.681  -0.012 -0.6334  1.1207 -3.3330
16661TIP3   OH271397   1.714   3.095   1.098 -0.2042 -0.5362  0.0423
16661TIP3    H171398   1.741   3.051   1.180 -0.1746 -0.5799  0.0095
16661TIP3    H271399   1.743   3.035   1.029  0.9086  0.1058 -0.0503
16662TIP3   OH271400   2.158   0.021   0.965 -0.0331  0.3051  0.4744
16662TIP3    H171401   2.176   0.080   0.891  0.6240  0.4577  0.7516
16662TIP3    H271402   2.187   0.070   1.042 -1.6675  0.5529  0.9380
16663TIP3   OH271403   0.273   1.718  12.389 -0.2510  0.3080  0.0274
16663TIP3    H171404   0.274   1.684  12.478  0.8185 -0.1777 -0.1701
16663TIP3    H271405   0.357   1.693  12.352  0.2826  2.5583 -0.3573
16664TIP3   OH271406   2.863   4.460  10.770 -0.2971  0.0607 -0.3096
16664TIP3    H171407   2.884   4.543  10.727 -0.9522  0.2405 -0.2927
16664TIP3    H271408   2.787   4.481  10.825 -1.4242 -0.9195 -1.4852
16665TIP3   OH271409   6.720   5.401   2.302 -0.3112  0.2063 -0.2213
16665TIP3    H171410   6.683   5.346   2.233 -1.0045 -0.2925  0.5317
16665TIP3    H271411   6.644   5.427   2.355  0.1813  0.8005  0.1917
16666TIP3   OH271412   2.789   5.328   2.829 -0.1309 -0.1174  0.0825
16666TIP3    H171413   2.779   5.417   2.796 -0.6868  0.4127  1.6369
16666TIP3    H271414   2.700   5.296   2.841  0.0401 -0.1152  1.5018
16667TIP3   OH271415   0.273   0.382   2.994  0.2778 -0.0596 -0.0105
16667TIP3    H171416   0.346   0.388   2.933  0.0111  0.6187 -0.2652
16667TIP3    H271417   0.245   0.472   3.007 -0.6158 -0.3321 -0.0310
16668TIP3   OH271418   0.019   4.597   1.017 -0.5424  0.7165  0.6196
16668TIP3    H171419   0.040   4.552   0.935 -0.2975  0.8484  0.6099
16668TIP3    H271420   0.068   4.549   1.084  1.4589  2.2675  0.3363
16669TIP3   OH271421   0.422   0.549  16.510  0.2118 -0.3287  0.3430
16669TIP3    H171422   0.442   0.626  16.457 -0.8603  0.2373  0.7561
16669TIP3    H271423   0.492   0.546  16.576  1.5251 -1.0157 -1.0716
16670TIP3   OH271424   5.222   5.861  13.062 -0.1472 -0.5978 -0.1532
16670TIP3    H171425   5.262   5.927  13.118  0.2546 -0.4168 -0.6500
16670TIP3    H271426   5.191   5.794  13.123  3.2391 -2.0152  0.1108
16671TIP3   OH271427   5.113   1.455  13.552  1.3779  0.6714  0.0300
16671TIP3    H171428   5.037   1.508  13.526 -0.5429 -1.5070  0.9794
16671TIP3    H271429   5.141   1.491  13.636  1.0907  1.1721 -0.0880
16672TIP3   OH271430   0.251   0.103  16.627  0.0696  0.2575  0.0358
16672TIP3    H171431   0.231   0.162  16.700  1.6917 -0.2564  0.9515
16672TIP3    H271432   0.273   0.161  16.554  2.4242  0.8610  1.1505
16673TIP3   OH271433   2.365   0.099   2.804  0.0583 -0.5309 -0.0265
16673TIP3    H171434   2.406   0.167   2.751  1.5653  0.3810  2.2076
16673TIP3    H271435   2.415   0.099   2.886 -1.9115 -2.1751  1.2398
16674TIP3   OH271436   1.281   2.761  16.954 -0.1924  0.1202  0.0635
16674TIP3    H171437   1.217   2.712  16.902  0.3786  1.9332 -2.4364
16674TIP3    H271438   1.360   2.706  16.951 -0.5815 -0.4593  0.2286
16675TIP3   OH271439   1.253   3.409  16.670  0.4027  0.8110 -0.2785
16675TIP3    H171440   1.241   3.482  16.731  3.5035  0.1663  1.2139
16675TIP3    H271441   1.241   3.448  16.583 -0.0194  2.6460  0.5934
16676TIP3   OH271442   0.892   1.424   3.280  0.3529  0.1809  0.1615
16676TIP3    H171443   0.908   1.426   3.186 -1.2908  0.7583 -0.1186
16676TIP3    H271444   0.849   1.507   3.300  3.2821  1.3660  1.9443
16677TIP3   OH271445   3.108   6.228  14.542  0.4162  0.2731 -0.4495
16677TIP3    H171446   3.041   6.215  14.475  0.5625 -1.5604 -0.2766
16677TIP3    H271447   3.069   6.191  14.622  0.6498  1.4915  0.2324
16678TIP3   OH271448   1.222   3.034   3.815  0.5157  0.1076 -0.4519
16678TIP3    H171449   1.178   2.949   3.804 -0.5071  0.1831  2.5603
16678TIP3    H271450   1.159   3.098   3.782  0.2802 -0.1432 -0.4940
16679TIP3   OH271451   4.693   3.159   3.578  0.1795 -0.0612 -0.1868
16679TIP3    H171452   4.674   3.069   3.552  1.0701 -0.1012 -0.7130
16679TIP3    H271453   4.788   3.160   3.594  0.0301  0.5607  0.6967
16680TIP3   OH271454   0.522   2.365  15.701 -0.1917 -0.2691  0.2059
16680TIP3    H171455   0.463   2.292  15.717 -1.2987  0.2580 -1.3551
16680TIP3    H271456   0.548   2.356  15.609  1.7790 -0.2009  0.7165
16681TIP3   OH271457   0.839   3.051   3.237 -0.6865 -0.5644  0.7655
16681TIP3    H171458   0.902   3.123   3.242 -0.3296 -0.6839 -1.4883
16681TIP3    H271459   0.800   3.047   3.324  1.5761  0.2868  1.8592
16682TIP3   OH271460   6.681   2.908  12.152 -0.3650 -0.0009  0.1917
16682TIP3    H171461   6.763   2.909  12.104 -0.5714  1.1402 -0.1705
16682TIP3    H271462   6.685   2.830  12.206  0.7160 -0.2493 -0.2366
16683TIP3   OH271463   5.455   1.664  12.117 -0.0277  0.2748  0.1208
16683TIP3    H171464   5.360   1.658  12.125 -0.0090 -0.1663  0.0201
16683TIP3    H271465   5.469   1.746  12.070 -0.3182  0.7784  0.9116
16684TIP3   OH271466   3.857   2.025  13.036  0.1418  0.4610  0.3636
16684TIP3    H171467   3.826   1.935  13.029 -0.4608  0.7071 -0.1742
16684TIP3    H271468   3.812   2.072  12.966  1.1800  0.9833  0.0438
16685TIP3   OH271469   0.898   1.237   2.343 -0.3306  0.7702 -0.6211
16685TIP3    H171470   0.835   1.177   2.383  0.1507 -0.4871 -1.6958
16685TIP3    H271471   0.883   1.321   2.386 -1.5216  0.0477  0.3874
16686TIP3   OH271472   1.866   3.608   4.621 -0.3082  0.1960 -0.4554
16686TIP3    H171473   1.793   3.613   4.561  0.2838  1.1051 -1.1089
16686TIP3    H271474   1.930   3.671   4.587  0.2050  0.4159  0.8726
16687TIP3   OH271475   2.399   4.780   1.323 -0.1536 -0.3763 -0.2483
16687TIP3    H171476   2.399   4.868   1.360  1.0700 -0.5549  0.1862
16687TIP3    H271477   2.384   4.723   1.399  2.0654 -0.7248 -0.0491
16688TIP3   OH271478   3.084   5.240  12.601  0.0732  0.2065  0.7125
16688TIP3    H171479   3.135   5.274  12.675  0.7719  1.1530 -0.1872
16688TIP3    H271480   3.140   5.173  12.562 -0.3269 -0.3452  1.0653
16689TIP3   OH271481   4.792   0.667   0.163  0.1923 -0.1711  0.5219
16689TIP3    H171482   4.875   0.649   0.208 -1.2829 -3.3037  2.1190
16689TIP3    H271483   4.773   0.586   0.115 -1.0224  1.1937 -1.3564
16690TIP3   OH271484   2.998   2.061   1.399 -0.3680 -0.2086  0.4424
16690TIP3    H171485   2.907   2.081   1.381 -0.1488 -0.3819 -0.9208
16690TIP3    H271486   2.999   1.967   1.417  0.0983 -1.1355 -3.7939
16691TIP3   OH271487   5.635   0.057  13.748 -0.0523  0.1375 -0.3123
16691TIP3    H171488   5.623   0.034  13.840  1.2652 -0.6246 -0.3217
16691TIP3    H271489   5.716   0.109  13.747  0.2943 -0.4205 -1.1347
16692TIP3   OH271490   1.833   4.962  15.160  0.1451  0.2164  0.2059
16692TIP3    H171491   1.765   5.029  15.165 -0.2794 -0.2312  0.5345
16692TIP3    H271492   1.800   4.891  15.216  0.7052 -0.1565  0.0615
16693TIP3   OH271493   3.632   4.176  10.535  0.0788 -0.0599 -0.3284
16693TIP3    H171494   3.600   4.239  10.470  1.5543 -0.0672 -1.0974
16693TIP3    H271495   3.568   4.105  10.533 -0.7289  0.6710 -0.6377
16694TIP3   OH271496   2.404   4.733   2.672 -0.0223 -0.7203 -0.7904
16694TIP3    H171497   2.337   4.710   2.607 -0.2138  0.4545 -1.0082
16694TIP3    H271498   2.487   4.713   2.629 -0.1793 -0.9502 -0.9953
16695TIP3   OH271499   0.509   2.735  11.731  0.1436 -0.6324  0.0739
16695TIP3    H171500   0.601   2.763  11.738  0.4732 -2.0277  1.6439
16695TIP3    H271501   0.501   2.702  11.642  2.0152 -3.2790  0.7981
16696TIP3   OH271502   1.105   1.050   1.296  0.2572  0.0321 -0.3245
16696TIP3    H171503   1.081   0.968   1.340  0.1051  0.0404 -0.3940
16696TIP3    H271504   1.063   1.044   1.210  0.3868  0.1077 -0.3924
16697TIP3   OH271505   5.217   4.793   6.618 -0.8276  0.2658 -0.5616
16697TIP3    H171506   5.300   4.809   6.573 -0.4123 -0.1221  0.0679
16697TIP3    H271507   5.170   4.876   6.610 -1.0174  0.0009 -2.2583
16698TIP3   OH271508   2.335   3.677   5.088  0.5757 -0.6394 -0.1870
16698TIP3    H171509   2.345   3.582   5.098 -1.0088 -0.9376 -1.1542
16698TIP3    H271510   2.241   3.689   5.076  0.8604  0.9747 -0.8589
16699TIP3   OH271511   6.124   3.364   4.586  0.1588 -0.7587 -0.0241
16699TIP3    H171512   6.152   3.449   4.622  0.1311 -0.1528 -1.4094
16699TIP3    H271513   6.045   3.343   4.635 -0.1790  0.3034 -0.0906
16700TIP3   OH271514   3.275   2.691  17.209  0.5007 -0.0379  0.8187
16700TIP3    H171515   3.332   2.614  17.205 -0.1268 -0.4657 -0.4089
16700TIP3    H271516   3.225   2.687  17.127  0.8848  2.0217  0.4687
16701TIP3   OH271517   5.371   4.037  13.088  0.0616  0.0085  0.0120
16701TIP3    H171518   5.331   4.115  13.051  0.7788  0.6670  0.6085
16701TIP3    H271519   5.385   3.979  13.013  2.3352  1.6885 -0.9045
16702TIP3   OH271520   3.878   3.241  15.651  0.1879  0.0003  0.2817
16702TIP3    H171521   3.900   3.325  15.612  0.3453 -0.0519  0.2563
16702TIP3    H271522   3.960   3.192  15.651  0.0021 -0.3214 -0.1232
16703TIP3   OH271523   0.560   2.362  16.412  0.3396  0.2713  0.0968
16703TIP3    H171524   0.504   2.436  16.436  0.6244  0.2027  0.9906
16703TIP3    H271525   0.572   2.370  16.318  0.1934  1.2440  0.1560
16704TIP3   OH271526   2.924   5.672   2.483 -0.4875 -0.3576  0.0346
16704TIP3    H171527   2.950   5.741   2.421  0.4070  0.3262  1.1504
16704TIP3    H271528   2.985   5.601   2.467  1.0306  0.5827  1.4631
16705TIP3   OH271529   3.485   3.846   5.070  0.8097  0.5952  0.5459
16705TIP3    H171530   3.500   3.913   5.137  0.5496  1.1349  0.0733
16705TIP3    H271531   3.399   3.809   5.092  0.3365  1.3536  0.0399
16706TIP3   OH271532   4.984   2.124   4.292  0.5015 -0.5517 -0.5488
16706TIP3    H171533   4.996   2.046   4.238  3.6420 -0.6187  0.1225
16706TIP3    H271534   5.013   2.096   4.379 -0.1716  0.8400  0.1302
16707TIP3   OH271535   3.149   6.303  15.303 -0.4821 -0.6658  0.3483
16707TIP3    H171536   3.064   6.313  15.262  0.9774 -0.3334 -2.6948
16707TIP3    H271537   3.153   6.374  15.368 -1.7718  0.4367 -0.7647
16708TIP3   OH271538   0.820   0.160   1.796 -0.2160 -0.5861 -0.0259
16708TIP3    H171539   0.863   0.113   1.867  3.1293  0.7080 -1.0886
16708TIP3    H271540   0.885   0.162   1.725 -2.0391  1.4572 -1.7253
16709TIP3   OH271541   0.763   5.087  10.798  0.1045  0.1153 -0.2218
16709TIP3    H171542   0.815   5.089  10.718 -0.5698  0.8467 -0.6564
16709TIP3    H271543   0.678   5.123  10.772 -0.1937  0.1519  0.7737
16710TIP3   OH271544   4.520   3.509  11.296  0.0661 -0.2191  0.2546
16710TIP3    H171545   4.586   3.491  11.230 -1.2610 -0.9450 -0.9185
16710TIP3    H271546   4.440   3.525  11.246 -0.7065  0.3493  1.6451
16711TIP3   OH271547   6.266   5.917   0.896 -0.2479 -0.2993 -0.0740
16711TIP3    H171548   6.257   5.952   0.807  0.4846  0.7158  0.2441
16711TIP3    H271549   6.359   5.926   0.915  0.2492 -3.7234 -0.5033
16712TIP3   OH271550   3.819   6.354  11.973  0.2205  0.6713  0.3912
16712TIP3    H171551   3.793   6.367  12.064 -0.2255 -0.2503  0.4000
16712TIP3    H271552   3.816   6.259  11.960  0.0878  0.8063 -0.6408
16713TIP3   OH271553   6.631   5.317  16.771 -0.3086  0.0808  0.0647
16713TIP3    H171554   6.570   5.383  16.738 -0.4542  0.3726  0.8978
16713TIP3    H271555   6.588   5.280  16.848 -0.0365 -0.6898 -0.1436
16714TIP3   OH271556   6.063   1.015  16.632  0.4457 -0.6153  0.3417
16714TIP3    H171557   5.981   1.004  16.679 -0.1289 -1.3993 -0.8191
16714TIP3    H271558   6.100   1.097  16.665 -1.5072  0.5023 -0.1932
16715TIP3   OH271559   4.042   3.515  14.212  0.4438  0.1011 -0.3422
16715TIP3    H171560   4.011   3.477  14.295  1.9158  1.1590  0.7171
16715TIP3    H271561   3.988   3.473  14.145 -1.2457 -0.2798  1.2042
16716TIP3   OH271562   6.472   5.910   2.806  0.7065  0.7125 -0.0605
16716TIP3    H171563   6.407   5.848   2.773  2.6181 -1.2107 -0.3491
16716TIP3    H271564   6.430   5.995   2.797 -2.8828 -0.6515  2.4496
16717TIP3   OH271565   1.866   5.274   4.151  0.0101 -0.9848 -0.1388
16717TIP3    H171566   1.866   5.184   4.184  1.5281 -0.7510  0.5264
16717TIP3    H271567   1.824   5.325   4.221  1.4243 -0.7964  0.5823
16718TIP3   OH271568   1.497   3.037  13.666  0.5964  0.1828  0.1712
16718TIP3    H171569   1.539   3.052  13.751  2.2228 -0.7749 -0.4359
16718TIP3    H271570   1.495   2.941  13.658  2.7697  0.2659 -1.9587
16719TIP3   OH271571   2.204   5.836  10.610  0.1511 -0.6019  0.2538
16719TIP3    H171572   2.293   5.802  10.601 -0.4025 -2.1070  0.2292
16719TIP3    H271573   2.182   5.823  10.702  0.1002  0.1474  0.3512
16720TIP3   OH271574   5.797   3.028   6.101 -0.3636  0.4815  0.6775
16720TIP3    H171575   5.703   3.046   6.101 -0.3095  0.7782  1.0277
16720TIP3    H271576   5.832   3.084   6.170 -0.1914 -0.9667  1.8077
16721TIP3   OH271577   0.126   4.091   2.906 -0.3124  0.5347 -0.6456
16721TIP3    H171578   0.196   4.053   2.854 -1.7327  0.6280 -2.7151
16721TIP3    H271579   0.098   4.168   2.856 -1.8086  0.5561  0.1776
16722TIP3   OH271580   1.099   4.529   1.002 -0.3386  0.0111  0.2608
16722TIP3    H171581   1.055   4.614   0.997 -0.8457 -0.3054 -0.6969
16722TIP3    H271582   1.101   4.508   1.096 -0.6180  0.8602  0.4571
16723TIP3   OH271583   4.581   3.758   6.345  0.2940  0.1713  0.1166
16723TIP3    H171584   4.503   3.731   6.394 -0.0802  0.1497 -0.4887
16723TIP3    H271585   4.556   3.747   6.253  1.7747 -2.0083 -0.0586
16724TIP3   OH271586   5.884   3.146   0.177 -0.2345  0.2314 -0.4768
16724TIP3    H171587   5.956   3.117   0.121  0.6930 -0.9692  1.2994
16724TIP3    H271588   5.853   3.227   0.136  2.3899  0.9906 -1.0499
16725TIP3   OH271589   3.350   3.030   5.058 -0.1634 -0.4604  0.4118
16725TIP3    H171590   3.415   2.990   5.115  1.9329  2.8811  0.4666
16725TIP3    H271591   3.349   2.974   4.980  1.9235 -1.2164  0.8889
16726TIP3   OH271592   2.239   0.330  16.965 -0.3198  0.2693  0.8665
16726TIP3    H171593   2.188   0.295  17.039 -0.1956 -1.9835 -0.0715
16726TIP3    H271594   2.276   0.412  16.998 -1.6883  0.1694  2.7259
16727TIP3   OH271595   0.368   6.351   3.351  0.3166  0.1791 -0.1677
16727TIP3    H171596   0.332   6.413   3.287 -1.1972 -0.2402  0.2515
16727TIP3    H271597   0.428   6.296   3.301  0.9150  1.3295 -0.7434
16728TIP3   OH271598   2.597   3.756   5.026 -0.6943  0.2756  0.0290
16728TIP3    H171599   2.582   3.844   4.992  0.1407  0.2236 -0.4863
16728TIP3    H271600   2.511   3.727   5.058 -1.3186  0.6392 -1.2868
16729TIP3   OH271601   5.567   5.457  16.040 -0.3068 -0.1514 -0.0629
16729TIP3    H171602   5.539   5.548  16.046  0.8349  0.3835 -2.1914
16729TIP3    H271603   5.653   5.455  16.081 -0.2911 -0.2578 -0.1018
16730TIP3   OH271604   2.058   1.934   3.003  0.0618  0.5610  0.3441
16730TIP3    H171605   2.104   1.915   2.921 -1.3859  0.0939 -0.3657
16730TIP3    H271606   1.979   1.881   3.000  1.2339 -1.4672  3.2340
16731TIP3   OH271607   3.397   6.136   2.482  0.4214 -0.2862  0.3308
16731TIP3    H171608   3.421   6.189   2.558 -0.2438  0.1549  0.2340
16731TIP3    H271609   3.363   6.199   2.419 -0.7434 -0.8775  0.3624
16732TIP3   OH271610   1.212   4.205  14.422  0.6226  0.0908  0.6191
16732TIP3    H171611   1.165   4.122  14.419  1.5942 -0.4314 -1.8310
16732TIP3    H271612   1.263   4.206  14.340 -1.7408  4.4874 -0.9619
16733TIP3   OH271613   6.586   1.786  13.334 -0.3961  0.1104  0.3935
16733TIP3    H171614   6.543   1.825  13.410  0.2983  0.7741  0.4448
16733TIP3    H271615   6.638   1.715  13.371  0.0487  0.5204  0.5518
16734TIP3   OH271616   2.331   1.709   5.774  0.1309  0.9828 -0.4808
16734TIP3    H171617   2.281   1.771   5.828  1.6239  1.2655  0.6205
16734TIP3    H271618   2.350   1.758   5.694 -0.9581  1.0242 -0.7285
16735TIP3   OH271619   6.477   2.319  12.626  0.0319  0.0511  0.4909
16735TIP3    H171620   6.558   2.281  12.662 -0.6655  0.2682  2.3614
16735TIP3    H271621   6.415   2.314  12.698 -1.0246  1.7858 -0.2755
16736TIP3   OH271622   1.235   0.111  11.963  0.2969 -0.0050 -0.0462
16736TIP3    H171623   1.300   0.176  11.934  1.4957 -1.1965 -0.1163
16736TIP3    H271624   1.166   0.162  12.004  1.0247  1.3443 -0.4616
16737TIP3   OH271625   2.034   0.502   5.996 -0.1141  0.3126 -0.0058
16737TIP3    H171626   2.044   0.528   6.087 -0.8106  1.5430 -0.2676
16737TIP3    H271627   1.948   0.535   5.971 -1.0801 -2.3533 -0.3405
16738TIP3   OH271628   1.689   6.783  13.974 -0.0204  0.9073 -0.1837
16738TIP3    H171629   1.743   6.825  14.041  1.7844  0.4591 -1.3200
16738TIP3    H271630   1.738   6.704  13.950 -1.6347  0.0020 -0.6097
16739TIP3   OH271631   2.265   4.965   1.860 -0.2346 -0.1406  0.0934
16739TIP3    H171632   2.290   5.046   1.816  1.3437 -0.6806 -0.0396
16739TIP3    H271633   2.243   4.991   1.949  0.3729  0.4155  0.0795
16740TIP3   OH271634   1.820   3.028   4.812  0.0762  0.7670 -0.6607
16740TIP3    H171635   1.769   3.088   4.758 -1.4049 -0.3045 -0.4889
16740TIP3    H271636   1.908   3.065   4.814 -0.3192  1.7946 -2.2715
16741TIP3   OH271637   6.130   4.909  16.424  0.0231 -0.2562 -0.0969
16741TIP3    H171638   6.140   4.816  16.446  1.2661 -0.1220 -0.0633
16741TIP3    H271639   6.168   4.918  16.337 -0.5411  0.1329 -0.3046
16742TIP3   OH271640   5.990   1.216   2.109  0.3267 -0.0110  0.2887
16742TIP3    H171641   5.951   1.129   2.113  0.4781 -0.0562  0.9059
16742TIP3    H271642   6.082   1.200   2.086  0.3283 -0.0114  0.2937
16743TIP3   OH271643   2.575   0.591   1.031  0.8735 -0.0977  0.4744
16743TIP3    H171644   2.571   0.682   1.001  0.2263 -0.2929 -0.0426
16743TIP3    H271645   2.516   0.544   0.972 -1.3513 -0.2789  2.8001
16744TIP3   OH271646   3.122   0.447   1.677  0.0433 -0.0088 -0.1163
16744TIP3    H171647   3.187   0.406   1.733  0.1576  0.6788  0.2519
16744TIP3    H271648   3.139   0.411   1.590  1.1298  0.4147 -0.0882
16745TIP3   OH271649   2.631   2.746   4.881 -0.1080  0.4486 -0.3660
16745TIP3    H171650   2.649   2.749   4.975  1.6869 -3.8073 -0.4577
16745TIP3    H271651   2.536   2.744   4.874 -0.2356 -1.4939  1.5138
16746TIP3   OH271652   2.933   6.208   2.842  0.2547  0.1012 -0.5876
16746TIP3    H171653   2.892   6.269   2.780 -1.6591 -0.9607 -0.4406
16746TIP3    H271654   2.986   6.150   2.787 -0.7974 -0.3294 -1.1817
16747TIP3   OH271655   2.208   1.359   4.740 -0.1421 -0.5968  0.5360
16747TIP3    H171656   2.126   1.390   4.778 -0.1451  0.5087 -0.3315
16747TIP3    H271657   2.247   1.438   4.701  0.5144 -1.4361 -0.5232
16748TIP3   OH271658   2.125   0.923  14.864  0.6843 -0.1696 -0.0404
16748TIP3    H171659   2.058   0.987  14.886 -0.0690 -2.1109  3.7082
16748TIP3    H271660   2.080   0.859  14.809  0.4294  0.4114 -0.5196
16749TIP3   OH271661   6.202   0.496   2.358 -0.6515  0.0989  0.3484
16749TIP3    H171662   6.242   0.447   2.431  0.5909 -0.0703 -0.4243
16749TIP3    H271663   6.203   0.587   2.388 -2.9805 -0.3225  1.7973
16750TIP3   OH271664   1.666   6.530   5.800  0.1398 -0.0828 -0.1094
16750TIP3    H171665   1.639   6.520   5.892 -0.3998 -1.1872 -0.3855
16750TIP3    H271666   1.602   6.480   5.751  0.6012  0.2762 -1.0800
16751TIP3   OH271667   1.890   5.513   5.427  0.1319  0.9659 -0.5698
16751TIP3    H171668   1.947   5.526   5.351  1.1343 -0.4878 -0.0982
16751TIP3    H271669   1.947   5.475   5.494 -1.4359 -0.7301 -0.1501
16752TIP3   OH271670   3.719   5.462   4.542 -0.1548  0.2508 -0.0140
16752TIP3    H171671   3.657   5.535   4.535  1.9055  2.0265 -0.3278
16752TIP3    H271672   3.725   5.445   4.636 -3.0199 -1.6919 -0.1038
16753TIP3   OH271673   4.064   2.970  17.230  0.0685 -0.1116  0.6101
16753TIP3    H171674   4.018   3.030  17.172  1.5426 -0.1989 -0.6833
16753TIP3    H271675   4.085   3.022  17.307  0.4050  0.7438 -0.0528
16754TIP3   OH271676   6.697   4.089  17.116 -0.3310  0.4393  0.3012
16754TIP3    H171677   6.741   4.058  17.195  0.4673  1.0946  0.1141
16754TIP3    H271678   6.607   4.107  17.144 -0.6986 -1.5867  0.5166
16755TIP3   OH271679   2.719   2.030   4.965 -0.4530  0.1395  0.8169
16755TIP3    H171680   2.666   2.020   5.045 -0.7962 -2.9881  0.2605
16755TIP3    H271681   2.805   1.996   4.989  0.5685  2.6825  0.9099
16756TIP3   OH271682   4.542   4.940   2.553  0.4466 -0.2894  0.3071
16756TIP3    H171683   4.576   4.912   2.637  1.7920  0.6878  0.0983
16756TIP3    H271684   4.464   4.886   2.540 -1.4599  1.5114  3.5032
16757TIP3   OH271685   3.041   1.335   1.433 -0.0997 -0.1547  0.2137
16757TIP3    H171686   2.946   1.333   1.444 -0.2126  0.6969 -0.5784
16757TIP3    H271687   3.068   1.416   1.477  0.1058  0.2691 -0.6852
16758TIP3   OH271688   5.408   0.740   4.072  0.5716 -1.0667 -0.0055
16758TIP3    H171689   5.392   0.760   3.980 -1.7588  0.0209  0.5853
16758TIP3    H271690   5.474   0.804   4.099 -0.1876 -0.1010 -0.4254
16759TIP3   OH271691   6.246   5.047   3.003 -0.6429  0.7166 -0.3477
16759TIP3    H171692   6.246   5.109   2.931 -0.3950  0.1215 -0.8718
16759TIP3    H271693   6.186   5.084   3.068  0.5915  2.1897 -0.0413
16760TIP3   OH271694   4.620   4.911   6.066  0.2221 -0.1077 -0.3117
16760TIP3    H171695   4.628   4.941   6.157  0.0810 -2.8266  0.6326
16760TIP3    H271696   4.541   4.955   6.034 -1.4598 -1.4026  1.8547
16761TIP3   OH271697   0.917   6.448   0.264 -0.1455  0.0983 -0.4874
16761TIP3    H171698   0.968   6.379   0.306 -1.5920  0.7152  2.3978
16761TIP3    H271699   0.841   6.403   0.227  0.6278 -0.3038 -1.6192
16762TIP3   OH271700   1.203   5.862   2.651  0.2248 -0.6893  0.4851
16762TIP3    H171701   1.157   5.884   2.570 -0.1682 -1.7512  0.3988
16762TIP3    H271702   1.294   5.850   2.625 -0.1576 -2.5498 -0.1162
16763TIP3   OH271703   0.302   1.879   5.331  0.3168  0.4487  0.3181
16763TIP3    H171704   0.313   1.798   5.281  0.9300  0.3054  0.6846
16763TIP3    H271705   0.352   1.944   5.281  0.3027  0.4734  0.3365
16764TIP3   OH271706   2.217   6.516  16.091 -0.0287  0.3434 -0.7295
16764TIP3    H171707   2.127   6.540  16.071  0.2010  0.0758 -2.1020
16764TIP3    H271708   2.227   6.428  16.055  0.2227 -0.4097  1.0924
16765TIP3   OH271709   0.975   2.097   2.134  0.0705 -0.0386  0.4318
16765TIP3    H171710   0.909   2.152   2.175  0.0979 -0.7946  1.5188
16765TIP3    H271711   0.937   2.009   2.134  1.0243 -0.4649  0.9721
16766TIP3   OH271712   2.516   1.476  15.559  0.2057 -0.0549  0.2503
16766TIP3    H171713   2.487   1.525  15.636 -0.0110  0.7649 -0.3467
16766TIP3    H271714   2.480   1.388  15.572  0.6234 -0.0697  1.3416
16767TIP3   OH271715   3.451   1.684   4.083 -1.3167  0.7924  0.2327
16767TIP3    H171716   3.375   1.714   4.033  0.4045  0.3199 -2.8171
16767TIP3    H271717   3.519   1.748   4.062  0.3626 -1.2312 -0.6343
16768TIP3   OH271718   1.522   5.624  11.570 -0.1456  0.3363  0.6442
16768TIP3    H171719   1.603   5.675  11.568 -0.5945  1.0019 -1.5681
16768TIP3    H271720   1.551   5.533  11.562  0.4424  0.4943  0.9644
16769TIP3   OH271721   1.999   0.249   2.631 -0.3480  0.1420 -0.1281
16769TIP3    H171722   1.965   0.272   2.717 -1.5311  0.3439 -0.6406
16769TIP3    H271723   2.035   0.161   2.642 -0.9555 -0.0336  0.4573
16770TIP3   OH271724   0.579   3.781  11.118 -0.1321 -0.2109  0.2262
16770TIP3    H171725   0.506   3.806  11.174 -0.6654 -1.6678  0.1804
16770TIP3    H271726   0.645   3.746  11.177 -1.4965 -3.6612 -0.2052
16771TIP3   OH271727   4.629   0.106  13.759  0.3227  0.5910 -0.7964
16771TIP3    H171728   4.610   0.194  13.727  0.5787  0.6060 -0.9048
16771TIP3    H271729   4.619   0.113  13.854  3.4915  1.5205 -0.4909
16772TIP3   OH271730   3.761   5.221  17.215 -0.1608 -0.5087  0.1523
16772TIP3    H171731   3.810   5.139  17.217 -1.0909 -1.1050 -0.8018
16772TIP3    H271732   3.669   5.193  17.226 -0.4588  0.4236  0.0291
16773TIP3   OH271733   6.437   1.543  12.805 -0.6909  0.4822 -0.0407
16773TIP3    H171734   6.366   1.518  12.864 -0.7672  0.6789 -0.0507
16773TIP3    H271735   6.398   1.541  12.718 -0.7190  0.7079 -0.0351
16774TIP3   OH271736   3.735   1.739  14.396 -0.4663 -0.1434  0.4637
16774TIP3    H171737   3.666   1.706  14.453 -0.5798 -2.7222 -1.0668
16774TIP3    H271738   3.762   1.663  14.344  0.4930  1.8194 -2.0506
16775TIP3   OH271739   0.804   5.255  11.028  0.3636  0.2995  0.1173
16775TIP3    H171740   0.851   5.198  11.090 -0.9106  0.5146  1.3146
16775TIP3    H271741   0.771   5.195  10.961  0.2030 -0.2107  0.6386
16776TIP3   OH271742   0.200   1.876   4.743  0.5351  0.1650  0.2087
16776TIP3    H171743   0.293   1.875   4.720  0.9425  0.9786  1.7390
16776TIP3    H271744   0.167   1.956   4.704 -0.1650 -1.4654 -2.6532
16777TIP3   OH271745   2.680   2.850   0.274 -0.3466  0.7140 -0.1676
16777TIP3    H171746   2.701   2.787   0.344 -1.6154  1.2378  0.7165
16777TIP3    H271747   2.689   2.936   0.316 -1.7291  1.0178 -0.4556
16778TIP3   OH271748   2.652   6.277   3.904 -0.3821 -0.4218 -0.3163
16778TIP3    H171749   2.679   6.300   3.815 -0.9226  1.2534 -0.0782
16778TIP3    H271750   2.680   6.352   3.957 -4.0759  0.7205  0.1731
16779TIP3   OH271751   2.780   2.444  14.555 -0.0639  0.7226 -0.0069
16779TIP3    H171752   2.855   2.428  14.613 -0.8370  2.3317  1.4910
16779TIP3    H271753   2.736   2.359  14.549 -1.2715  0.9968  3.6895
16780TIP3   OH271754   5.704   2.445   1.702  0.0288 -0.2471  0.2861
16780TIP3    H171755   5.660   2.499   1.636 -2.0948 -0.4300  1.4958
16780TIP3    H271756   5.705   2.357   1.665 -1.2303 -0.3643  0.5039
16781TIP3   OH271757   0.309   0.621   5.648  0.4959 -0.3057 -0.2845
16781TIP3    H171758   0.359   0.617   5.730  1.8018  3.1238 -0.8435
16781TIP3    H271759   0.222   0.652   5.674  0.5078 -0.4818 -0.0355
16782TIP3   OH271760   2.418   6.599  11.841 -0.4047 -0.5765 -0.1199
16782TIP3    H171761   2.348   6.650  11.801 -0.8738 -1.4839 -0.4760
16782TIP3    H271762   2.456   6.549  11.768  0.7917  0.1053  0.0170
16783TIP3   OH271763   3.640   0.534   3.417  0.4101  0.7845  0.0203
16783TIP3    H171764   3.606   0.459   3.368 -0.8567  1.2530  0.1830
16783TIP3    H271765   3.713   0.566   3.363 -1.6425  1.9516 -2.1451
16784TIP3   OH271766   4.239   2.966   5.154 -0.2209 -0.3415  0.1444
16784TIP3    H171767   4.184   3.039   5.127  0.5375  0.5297  0.9140
16784TIP3    H271768   4.295   3.002   5.224  0.0917 -1.6723  0.6041
16785TIP3   OH271769   0.731   6.025  14.348 -0.1465 -0.2354 -0.5819
16785TIP3    H171770   0.694   6.066  14.427  0.1224  0.2954 -0.7250
16785TIP3    H271771   0.727   5.931  14.366 -1.8260 -0.2023 -0.7209
16786TIP3   OH271772   4.917   3.710  11.293 -0.0659  0.4103 -0.1368
16786TIP3    H171773   4.955   3.626  11.268  0.9887  0.8862 -0.1819
16786TIP3    H271774   4.864   3.691  11.370  1.2684 -0.0681  0.6912
16787TIP3   OH271775   0.788   5.708   6.441 -0.3312 -0.1565 -0.6079
16787TIP3    H171776   0.779   5.709   6.536 -0.3461 -0.5849 -0.6029
16787TIP3    H271777   0.702   5.738   6.409  0.4514  2.3583 -0.4600
16788TIP3   OH271778   5.661   2.897   4.589  0.2053  0.8205  0.1172
16788TIP3    H171779   5.583   2.926   4.635 -0.1736 -0.0312  0.0177
16788TIP3    H271780   5.692   2.822   4.638 -1.7593 -1.8245 -2.5058
16789TIP3   OH271781   4.913   0.870   0.378 -0.6800 -0.1754 -0.2806
16789TIP3    H171782   4.935   0.953   0.335  0.3512 -0.0597  0.4422
16789TIP3    H271783   4.827   0.884   0.416 -0.3958  0.6506  0.0572
16790TIP3   OH271784   3.187   0.010   0.118  0.0871  0.0912 -0.3130
16790TIP3    H171785   3.267  -0.041   0.130  0.2319  0.2876 -0.4143
16790TIP3    H271786   3.161   0.036   0.206 -1.3468 -2.1806 -0.0569
16791TIP3   OH271787   3.104   4.220   0.472  0.1529 -0.2514 -0.1853
16791TIP3    H171788   3.051   4.156   0.425  0.6791 -0.2499 -0.7890
16791TIP3    H271789   3.148   4.270   0.403  0.1720  0.3961  0.2903
16792TIP3   OH271790   3.340   2.138   0.313 -0.2985 -0.2583  0.2888
16792TIP3    H171791   3.359   2.067   0.374  1.5549 -0.9397 -1.0569
16792TIP3    H271792   3.270   2.103   0.257 -0.6146 -0.3554  0.7377
16793TIP3   OH271793   5.649   4.221   2.250  0.0182  0.0992  0.4098
16793TIP3    H171794   5.588   4.175   2.193  1.7644  0.2534 -1.6550
16793TIP3    H271795   5.710   4.154   2.280 -0.0375  0.2859  0.9534
16794TIP3   OH271796   5.784   2.312  15.444 -0.2511 -0.1828  0.3720
16794TIP3    H171797   5.776   2.369  15.520  0.0540 -3.2365  2.8238
16794TIP3    H271798   5.876   2.288  15.442  0.1182  1.3042 -2.1111
16795TIP3   OH271799   3.375   4.038   4.128 -0.2889  0.1613 -0.0956
16795TIP3    H171800   3.417   4.089   4.197 -1.4016 -0.1153  0.7867
16795TIP3    H271801   3.344   3.958   4.171  2.7229 -1.9952 -1.7530
16796TIP3   OH271802   6.448   0.043  11.719 -0.0045 -0.7046  0.6727
16796TIP3    H171803   6.395   0.123  11.724  0.3776 -0.4567  0.7978
16796TIP3    H271804   6.389  -0.027  11.747 -0.4367 -0.5090  0.2460
16797TIP3   OH271805   3.596   1.421   5.727 -0.4922 -0.0066  0.9101
16797TIP3    H171806   3.658   1.348   5.726  0.3618  0.6910 -1.7689
16797TIP3    H271807   3.524   1.391   5.782 -0.5715 -3.2196 -0.8638
16798TIP3   OH271808   5.589   6.746   5.179  0.4422 -0.0603  0.1709
16798TIP3    H171809   5.599   6.692   5.257  1.5131 -2.1980 -1.4110
16798TIP3    H271810   5.629   6.830   5.203 -0.7536 -0.0992  2.4654
16799TIP3   OH271811   2.395   4.070  13.108  0.4434 -0.0993 -0.2349
16799TIP3    H171812   2.341   4.082  13.031 -2.9517 -2.6216  1.6120
16799TIP3    H271813   2.451   4.148  13.111  0.9396 -0.0891 -5.3260
16800TIP3   OH271814   1.524   5.454  11.169 -0.0737 -0.0267 -0.0871
16800TIP3    H171815   1.441   5.499  11.152 -0.6952 -1.8000 -1.9285
16800TIP3    H271816   1.505   5.394  11.241  0.0453  0.6727  0.5378
16801TIP3   OH271817   2.417   4.108   2.866 -0.4311  0.3828 -0.1830
16801TIP3    H171818   2.381   4.019   2.873 -2.1681  1.1729  1.2722
16801TIP3    H271819   2.364   4.149   2.797  0.8277  0.1083 -1.3488
16802TIP3   OH271820   6.249   3.578   2.707  0.7764  0.0019 -0.1580
16802TIP3    H171821   6.247   3.498   2.759 -0.2848  0.1978  0.1064
16802TIP3    H271822   6.209   3.554   2.623  1.4316 -0.0116 -0.4770
16803TIP3   OH271823   2.504   3.925   1.834 -0.3168  0.5330 -0.3037
16803TIP3    H171824   2.428   3.872   1.858  0.3986  0.2199  1.3483
16803TIP3    H271825   2.578   3.865   1.841  0.6438  1.9952  2.6315
16804TIP3   OH271826   5.344   1.925  14.378  0.4729  0.7170 -0.4623
16804TIP3    H171827   5.253   1.917  14.408  0.1248 -0.6585 -1.8442
16804TIP3    H271828   5.338   1.974  14.296  0.8999  0.1309 -0.8534
16805TIP3   OH271829   2.594   4.391  10.499  0.2441  0.5655  0.5425
16805TIP3    H171830   2.650   4.466  10.480  0.2871 -0.0082 -1.7557
16805TIP3    H271831   2.519   4.401  10.439 -0.5992 -0.3072  1.4252
16806TIP3   OH271832   3.931   0.582  13.842 -0.4911 -0.4134  0.1134
16806TIP3    H171833   3.894   0.560  13.757 -0.5031 -0.9029  0.2451
16806TIP3    H271834   3.892   0.666  13.865 -0.8801 -0.5320 -0.1265
16807TIP3   OH271835   4.110   2.933   2.946 -0.0627  0.7583  0.4205
16807TIP3    H171836   4.050   2.863   2.921  0.6168  0.1144  0.5759
16807TIP3    H271837   4.093   2.947   3.039 -0.0114  0.6141  0.4518
16808TIP3   OH271838   1.890   4.709  15.000 -0.6619  0.2213 -0.3246
16808TIP3    H171839   1.846   4.728  14.916  0.6186  1.4059 -0.7575
16808TIP3    H271840   1.873   4.787  15.053 -0.4815 -0.0264  0.0946
16809TIP3   OH271841   6.154   2.049   2.277  0.2487 -0.0969  0.1658
16809TIP3    H171842   6.180   2.093   2.358 -1.0050 -2.4564  1.8925
16809TIP3    H271843   6.207   1.969   2.274 -1.9315 -1.5682  0.2587
16810TIP3   OH271844   2.846   4.940   5.177 -0.7058  0.4233 -0.1585
16810TIP3    H171845   2.829   4.854   5.217  0.3656 -1.1889 -2.9605
16810TIP3    H271846   2.940   4.951   5.183 -0.9628  1.9904  1.2314
16811TIP3   OH271847   6.151   0.977  15.810 -0.2210 -0.5126  0.3417
16811TIP3    H171848   6.148   1.067  15.843 -0.3839 -0.0798 -0.8294
16811TIP3    H271849   6.186   0.985  15.721 -1.9565 -1.3914 -0.4508
16812TIP3   OH271850   1.441   5.297  16.508  0.1044  0.5537 -0.1172
16812TIP3    H171851   1.353   5.265  16.489  0.0642  0.2462  0.5839
16812TIP3    H271852   1.461   5.262  16.594  0.9177  0.6254 -0.2771
16813TIP3   OH271853   1.613   4.041   4.244 -0.3595  0.4522  0.4706
16813TIP3    H171854   1.683   3.987   4.209  0.4771  1.7291  0.1621
16813TIP3    H271855   1.614   4.025   4.338 -0.9632 -1.0484  0.2310
16814TIP3   OH271856   1.989   6.209  16.231 -0.0870  0.4617 -0.1898
16814TIP3    H171857   2.079   6.199  16.262 -0.7743 -0.3640  1.5592
16814TIP3    H271858   1.953   6.280  16.284 -0.7616  0.1589 -0.2384
16815TIP3   OH271859   0.308   2.624   2.659  0.2086  0.6152  0.3773
16815TIP3    H171860   0.355   2.583   2.731 -0.1827  0.8501  0.7706
16815TIP3    H271861   0.219   2.637   2.693 -0.1327  0.2100 -0.3367
16816TIP3   OH271862   6.772   0.289   3.245  0.5402  0.1977  0.3080
16816TIP3    H171863   6.762   0.226   3.316 -1.2695  0.7597  0.5706
16816TIP3    H271864   6.828   0.358   3.281 -1.2189  1.0046  1.5506
16817TIP3   OH271865   0.821   6.767   0.795 -0.0037 -0.5285  1.2796
16817TIP3    H171866   0.909   6.785   0.763 -0.4793 -0.1994  0.1163
16817TIP3    H271867   0.785   6.853   0.816  0.2495 -0.7306  2.5716
16818TIP3   OH271868   6.562   0.495  16.366 -0.3168  0.4665  0.2793
16818TIP3    H171869   6.612   0.541  16.298 -2.0578  0.2652 -1.1791
16818TIP3    H271870   6.520   0.564  16.416 -0.9425  0.5611 -0.3633
16819TIP3   OH271871   5.596   4.239   1.136  0.0649 -0.4808 -0.1014
16819TIP3    H171872   5.628   4.324   1.166 -0.3641 -0.1981 -0.4178
16819TIP3    H271873   5.667   4.178   1.154  1.2085  0.3087 -1.7409
16820TIP3   OH271874   5.228   0.053  13.184  0.0593  0.4895  0.7763
16820TIP3    H171875   5.135   0.072  13.185 -0.0778 -0.0991 -0.2092
16820TIP3    H271876   5.263   0.108  13.113 -0.2652 -2.4694 -1.7840
16821TIP3   OH271877   1.396   3.055  15.529  0.3743  0.0733 -0.0247
16821TIP3    H171878   1.348   3.010  15.598  1.3951 -0.1249  0.5706
16821TIP3    H271879   1.431   3.133  15.572 -1.2810  1.4008 -1.0134
16822TIP3   OH271880   2.137   4.712  12.372 -0.0094 -0.1435 -0.5072
16822TIP3    H171881   2.137   4.805  12.349  1.5672 -0.7143 -3.0648
16822TIP3    H271882   2.230   4.687  12.369 -0.3726 -1.6651  0.6888
16823TIP3   OH271883   2.181   2.848  16.864  0.0102 -0.0891  0.1719
16823TIP3    H171884   2.243   2.847  16.937  0.3617 -0.4405 -0.1248
16823TIP3    H271885   2.207   2.773  16.810 -1.1217 -0.6568  0.4164
16824TIP3   OH271886   4.791   4.443  14.941 -0.3463  0.1443  0.0397
16824TIP3    H171887   4.870   4.475  14.984 -1.0994  2.3870 -0.1823
16824TIP3    H271888   4.751   4.521  14.903 -1.6093 -1.2559 -1.5906
16825TIP3   OH271889   3.262   3.091  11.620 -0.0829 -0.2848  0.0650
16825TIP3    H171890   3.284   3.006  11.582 -2.5233 -0.4040 -1.1338
16825TIP3    H271891   3.188   3.073  11.678 -0.0760  0.8915  0.4555
16826TIP3   OH271892   4.137   4.511   2.960  0.6229  0.4246  0.4985
16826TIP3    H171893   4.090   4.428   2.964 -1.0775  1.2911 -0.8164
16826TIP3    H271894   4.229   4.486   2.952 -0.0854 -1.3905 -3.0808
16827TIP3   OH271895   5.643   4.150   1.856 -0.2436  0.3199  0.0502
16827TIP3    H171896   5.689   4.116   1.934 -0.4180  0.5434  0.2500
16827TIP3    H271897   5.618   4.071   1.807 -1.4979  0.1122  0.9972
16828TIP3   OH271898   5.571   0.270   1.714 -0.0278  0.1636  0.3673
16828TIP3    H171899   5.587   0.308   1.628  2.2605 -0.2127  0.5994
16828TIP3    H271900   5.653   0.227   1.737 -1.6316 -2.5155  1.3398
16829TIP3   OH271901   0.986   4.740   4.908 -0.0060  0.4558 -0.5712
16829TIP3    H171902   0.997   4.664   4.965  1.6042 -0.3226 -1.8895
16829TIP3    H271903   0.904   4.780   4.937  1.2161  0.6355  2.9194
16830TIP3   OH271904   4.544   2.876  16.070 -0.3042  0.2390 -0.2753
16830TIP3    H171905   4.474   2.924  16.112 -0.5645  0.1234 -0.5747
16830TIP3    H271906   4.597   2.944  16.027 -1.8572  0.1149 -2.4848
16831TIP3   OH271907   1.668   0.914   2.932  0.5975  0.2822 -0.0535
16831TIP3    H171908   1.591   0.876   2.974  0.8074  0.9050  0.8926
16831TIP3    H271909   1.635   0.947   2.848 -0.3532  1.3095  0.7062
16832TIP3   OH271910   3.465   2.621   4.737  0.0094 -0.5956  0.6649
16832TIP3    H171911   3.546   2.611   4.786 -0.5238  0.3557  1.7533
16832TIP3    H271912   3.493   2.640   4.648  0.9791 -0.9321  0.8937
16833TIP3   OH271913   0.273   0.367   2.575  0.9722  0.3046  0.1706
16833TIP3    H171914   0.255   0.358   2.481  0.6985 -2.4798  0.4526
16833TIP3    H271915   0.262   0.461   2.592 -0.9892  0.5599 -2.1712
16834TIP3   OH271916   3.175   5.795   3.761  0.3356  0.2734  0.0600
16834TIP3    H171917   3.190   5.811   3.668 -0.5415  0.0771 -0.1103
16834TIP3    H271918   3.225   5.716   3.780 -0.3637 -0.3041 -0.4883
16835TIP3   OH271919   1.082   5.493  13.665 -0.1959 -0.1343  0.6283
16835TIP3    H171920   1.136   5.489  13.744 -0.2388 -0.5115  0.6371
16835TIP3    H271921   1.005   5.440  13.686  0.3608 -1.2296 -0.1151
16836TIP3   OH271922   5.886   5.538  13.329 -0.5972 -0.4977  0.2208
16836TIP3    H171923   5.844   5.580  13.254  0.1198 -1.2267 -0.6004
16836TIP3    H271924   5.894   5.446  13.304  0.6287 -0.5449  0.7353
16837TIP3   OH271925   5.993   5.835   5.772 -0.3604  0.1311  0.8371
16837TIP3    H171926   6.050   5.828   5.849  0.4703  0.2502  0.2398
16837TIP3    H271927   6.043   5.794   5.702 -0.5417  1.2451  0.0494
16838TIP3   OH271928   0.351   0.406  12.551 -0.1643  0.0012  0.3704
16838TIP3    H171929   0.294   0.333  12.528  0.0824 -0.0986  0.0737
16838TIP3    H271930   0.425   0.400  12.489 -0.5573  0.9986 -0.2154
16839TIP3   OH271931   4.782   2.823  15.114  0.1042 -0.9207 -0.3232
16839TIP3    H171932   4.708   2.857  15.165  0.6501 -1.1959  0.6598
16839TIP3    H271933   4.796   2.735  15.148  0.4293 -1.1315 -1.0050
16840TIP3   OH271934   2.786   3.626   4.365 -0.3984 -0.4545 -0.6490
16840TIP3    H171935   2.759   3.638   4.456 -0.9957  0.4677 -0.9446
16840TIP3    H271936   2.726   3.559   4.330 -0.4578 -0.4810 -0.4937
16841TIP3   OH271937   2.746   0.274   2.690 -0.7743  0.8132 -0.1788
16841TIP3    H171938   2.828   0.271   2.641 -0.8991 -0.0182 -0.3491
16841TIP3    H271939   2.689   0.331   2.640 -0.4025  1.1368 -0.2295
16842TIP3   OH271940   3.152   1.111  11.970 -0.5435 -0.4840 -0.1344
16842TIP3    H171941   3.131   1.032  11.921 -1.5596  0.5658 -1.3915
16842TIP3    H271942   3.179   1.175  11.904  0.6773  0.0983  0.9084
16843TIP3   OH271943   3.745   1.032  14.741 -0.0930  0.1981 -0.6680
16843TIP3    H171944   3.698   1.094  14.798  0.5844 -0.3784  0.5384
16843TIP3    H271945   3.738   0.948  14.786  2.9866  0.2924  0.1061
16844TIP3   OH271946   4.760   3.238  10.656 -0.2413 -0.3947 -0.0450
16844TIP3    H171947   4.704   3.231  10.579 -0.1225 -0.2126 -0.1490
16844TIP3    H271948   4.700   3.246  10.730 -0.3463  1.2697 -0.2868
16845TIP3   OH271949   5.242   5.025  10.743 -0.3431 -0.3176 -0.4364
16845TIP3    H171950   5.307   5.057  10.681 -1.0244 -1.1677 -1.6186
16845TIP3    H271951   5.291   4.966  10.801  0.4626  1.1263  0.3763
16846TIP3   OH271952   4.030   5.961  17.092  0.1001  0.1874 -0.4164
16846TIP3    H171953   3.997   5.879  17.055  0.1724 -0.1909  0.3457
16846TIP3    H271954   3.988   6.030  17.040 -0.4893 -0.3253 -0.6200
16847TIP3   OH271955   0.567   5.084   5.564 -0.3474  0.1269 -0.0248
16847TIP3    H171956   0.578   5.101   5.658  0.9970  0.5656 -0.2483
16847TIP3    H271957   0.494   5.023   5.560 -1.3921  1.2536  1.2067
16848TIP3   OH271958   3.151   1.089  17.210 -0.0108  0.2301  0.0053
16848TIP3    H171959   3.078   1.151  17.212 -1.9389 -1.9091 -0.8866
16848TIP3    H271960   3.132   1.029  17.283  0.0336 -1.1940 -1.1251
16849TIP3   OH271961   4.535   4.041   4.832  0.1296 -0.5343 -0.3565
16849TIP3    H171962   4.535   4.135   4.816  0.8840 -0.5981 -0.7470
16849TIP3    H271963   4.619   4.023   4.873 -1.3042 -0.5468  2.7590
16850TIP3   OH271964   5.070   4.460  16.502 -0.0614  0.1100  0.2712
16850TIP3    H171965   5.007   4.513  16.454  0.7133  1.1581  0.4125
16850TIP3    H271966   5.153   4.470  16.454  0.2684 -0.3718  0.7273
16851TIP3   OH271967   1.168   5.465   1.979 -0.2957  0.4913  0.0141
16851TIP3    H171968   1.121   5.384   1.959 -1.2885  0.6440  1.6539
16851TIP3    H271969   1.231   5.440   2.048  0.4064  0.8076 -0.5012
16852TIP3   OH271970   4.198   5.167  12.122  0.1343  0.0798 -0.2226
16852TIP3    H171971   4.151   5.179  12.039  1.4740  1.8390 -0.7587
16852TIP3    H271972   4.289   5.189  12.102  0.6912 -0.6264  1.4397
16853TIP3   OH271973   4.653   3.092   4.070 -0.0934 -0.3530 -0.1731
16853TIP3    H171974   4.704   3.016   4.100  2.4721  1.2883 -0.1931
16853TIP3    H271975   4.628   3.137   4.150  0.9532  0.3661 -0.2368
16854TIP3   OH271976   5.148   3.209   1.699 -1.1092 -0.3228 -0.2353
16854TIP3    H171977   5.237   3.175   1.691 -0.5847  0.9772 -0.1162
16854TIP3    H271978   5.106   3.187   1.617  0.5059  2.3404 -1.8552
16855TIP3   OH271979   1.525   0.556   0.401  0.5804 -0.5997  0.0137
16855TIP3    H171980   1.554   0.595   0.484  0.6347 -0.3500 -0.1199
16855TIP3    H271981   1.555   0.618   0.334 -0.9296  0.0715 -0.0763
16856TIP3   OH271982   2.197   5.963  11.368 -0.0098  0.1133 -0.2793
16856TIP3    H171983   2.185   5.892  11.305 -0.4744  0.9660 -1.1775
16856TIP3    H271984   2.177   6.042  11.318  2.8896  1.0871  0.0110
16857TIP3   OH271985   6.449   4.467   1.376 -0.1378 -0.3234  0.0889
16857TIP3    H171986   6.363   4.431   1.355 -0.9740  1.3782  0.4729
16857TIP3    H271987   6.440   4.561   1.359  1.0869  0.1386  1.8955
16858TIP3   OH271988   1.328   6.079   5.759 -0.0604 -0.7069  0.4443
16858TIP3    H171989   1.318   5.997   5.711 -2.0446 -0.0901 -0.2601
16858TIP3    H271990   1.386   6.058   5.831 -0.6912 -2.7831  0.3727
16859TIP3   OH271991   3.361   2.648   5.838 -0.0725  0.0613 -0.1052
16859TIP3    H171992   3.429   2.700   5.880 -0.1070  0.6945 -0.8294
16859TIP3    H271993   3.368   2.562   5.879  1.7770 -0.1575 -0.8269
16860TIP3   OH271994   1.962   1.049   3.654  0.5233  0.4429  0.2407
16860TIP3    H171995   1.951   0.965   3.609 -0.0279 -0.0878  1.3333
16860TIP3    H271996   1.949   1.115   3.586 -2.4841 -0.2963  0.0420
16861TIP3   OH271997   3.916   6.499   1.787 -0.1913 -0.4070  0.6013
16861TIP3    H171998   4.001   6.458   1.803  0.4852  0.5300 -0.5405
16861TIP3    H271999   3.936   6.593   1.781 -0.9968 -0.3745 -1.7270
16862TIP3   OH272000   5.215   6.696  14.734 -0.3423  0.0092  0.2098
16862TIP3    H172001   5.268   6.622  14.704 -1.4244 -0.2149 -1.2476
16862TIP3    H272002   5.187   6.672  14.822 -0.1259 -1.0153  0.0052
16863TIP3   OH272003   5.733   1.693  11.888 -0.1000  0.2587  0.5428
16863TIP3    H172004   5.757   1.776  11.930  0.3340  0.4980 -0.1590
16863TIP3    H272005   5.788   1.690  11.810 -1.8171  0.4309 -0.6970
16864TIP3   OH272006   1.112   6.268   6.525  0.1095 -0.5144 -0.2022
16864TIP3    H172007   1.063   6.305   6.451 -1.4281  0.6877  1.3697
16864TIP3    H272008   1.097   6.174   6.518 -2.4349 -0.1871  0.1903
16865TIP3   OH272009   4.800   1.449   5.092  0.4990 -0.2692  0.6376
16865TIP3    H172010   4.864   1.498   5.040  1.7914 -1.5586  0.9666
16865TIP3    H272011   4.773   1.377   5.034 -1.1491  0.6311  0.2694
16866TIP3   OH272012   4.884   0.090  16.872 -0.0124  0.3780  0.3542
16866TIP3    H172013   4.910   0.032  16.800  0.1781 -1.1675  1.6331
16866TIP3    H272014   4.927   0.173  16.853 -0.2940  0.1097 -1.5291
16867TIP3   OH272015   4.088   6.291   5.547  0.5377 -0.7381 -0.4324
16867TIP3    H172016   4.118   6.256   5.631  1.0062 -0.4858 -0.4943
16867TIP3    H272017   3.993   6.275   5.547  0.5651 -0.9080  0.0610
16868TIP3   OH272018   0.164   4.843  12.040 -0.2514 -0.5358 -0.0773
16868TIP3    H172019   0.088   4.901  12.045  0.1938 -0.0345  0.9002
16868TIP3    H272020   0.160   4.806  11.952 -0.7798  0.6417 -0.5529
16869TIP3   OH272021   1.623   0.273  11.687 -0.8934 -0.2246  0.4724
16869TIP3    H172022   1.703   0.233  11.652 -1.1569 -0.2402 -0.1020
16869TIP3    H272023   1.645   0.292  11.779 -1.7787 -4.4523  1.6779
16870TIP3   OH272024   4.933   4.457  11.223 -0.1700 -0.0869 -0.3428
16870TIP3    H172025   4.889   4.421  11.146 -0.7402 -0.7393  0.2870
16870TIP3    H272026   5.021   4.420  11.219  0.1568  0.7711 -1.2921
16871TIP3   OH272027   2.647   1.362  17.124  0.2958  0.4179 -0.3057
16871TIP3    H172028   2.582   1.401  17.065 -1.7967  1.5254  2.5888
16871TIP3    H272029   2.716   1.428  17.130 -0.2648  1.0081 -0.2510
16872TIP3   OH272030   4.442   0.682   2.470 -0.1561  0.2626  0.5116
16872TIP3    H172031   4.470   0.599   2.510  1.6560  1.1258  1.0656
16872TIP3    H272032   4.509   0.745   2.496 -2.1946  2.2125  1.1899
16873TIP3   OH272033   2.161   0.426   0.124  0.0900 -0.0144 -0.1948
16873TIP3    H172034   2.118   0.345   0.152  0.1430 -0.1709 -0.5599
16873TIP3    H272035   2.169   0.417   0.029  1.1572 -0.1031 -0.1015
16874TIP3   OH272036   4.243   1.123   0.148  0.2052  0.3033  0.5439
16874TIP3    H172037   4.189   1.084   0.218 -1.1610  0.7280 -0.2597
16874TIP3    H272038   4.209   1.084   0.068  2.7629 -1.3476  0.1810
16875TIP3   OH272039   0.786   5.068   1.467 -0.3997  0.1382 -0.2478
16875TIP3    H172040   0.856   5.128   1.492  0.9138 -1.6625  0.4486
16875TIP3    H272041   0.822   4.981   1.481 -2.4318 -0.8339 -0.8405
16876TIP3   OH272042   1.835   3.489  12.046 -0.8374 -0.2034  0.0927
16876TIP3    H172043   1.902   3.544  12.006  0.0821 -0.8388  0.7290
16876TIP3    H272044   1.788   3.548  12.105  0.5644 -0.2072  1.2690
16877TIP3   OH272045   2.085   0.990  17.012  0.1421 -0.8023 -0.0496
16877TIP3    H172046   2.171   1.030  17.017 -0.4162  0.6126 -1.2344
16877TIP3    H272047   2.058   1.003  16.921 -0.4547 -3.0757 -0.2306
16878TIP3   OH272048   0.443   5.591  13.440 -0.7011 -0.0633  0.2367
16878TIP3    H172049   0.445   5.498  13.418 -0.5606  0.6445 -3.0463
16878TIP3    H272050   0.359   5.604  13.484 -0.8803 -1.6550  0.3882
16879TIP3   OH272051   3.582   2.349  14.503 -0.4670  0.1584  0.4172
16879TIP3    H172052   3.500   2.365  14.549  0.0932  2.7852  0.5467
16879TIP3    H272053   3.576   2.402  14.424  0.9557  0.0925  0.2459
16880TIP3   OH272054   6.176   6.310  14.952 -0.1242  0.0220  0.0457
16880TIP3    H172055   6.179   6.218  14.979 -0.2083 -0.1076 -0.3837
16880TIP3    H272056   6.089   6.321  14.913  0.0847  0.1507 -0.3811
16881TIP3   OH272057   0.489   2.321  12.590  0.5740  0.0036  0.8849
16881TIP3    H172058   0.513   2.306  12.499 -0.3828  1.2774  0.4064
16881TIP3    H272059   0.457   2.236  12.620  1.7652 -0.6577  0.3215
16882TIP3   OH272060   0.457   6.430  12.192 -0.6760  0.0802  0.7287
16882TIP3    H172061   0.533   6.434  12.250  0.2822  2.2139 -0.6004
16882TIP3    H272062   0.387   6.475  12.240  0.3107  2.4659  0.0139
16883TIP3   OH272063   0.484   3.080  11.278 -0.5416  0.1614 -0.2310
16883TIP3    H172064   0.554   3.133  11.238 -1.1396 -0.6540 -2.4361
16883TIP3    H272065   0.406   3.135  11.270 -0.5654  0.1939  0.2596
16884TIP3   OH272066   5.188   4.745   2.230 -0.2060 -0.2438  0.0659
16884TIP3    H172067   5.211   4.673   2.288  0.6327 -0.8284 -0.9637
16884TIP3    H272068   5.199   4.710   2.142 -0.5264  0.9116 -0.4527
16885TIP3   OH272069   0.959   1.059   5.519  0.7401  0.7779  0.2155
16885TIP3    H172070   0.941   0.968   5.539 -0.4272  0.5969 -1.5498
16885TIP3    H272071   1.035   1.081   5.573  0.3990 -0.9227  1.4238
16886TIP3   OH272072   1.563   0.051  12.121 -0.7884 -0.6979 -0.6864
16886TIP3    H172073   1.516  -0.033  12.124 -1.7708 -0.1330  0.1641
16886TIP3    H272074   1.503   0.114  12.161  0.6083  0.0783  0.2781
16887TIP3   OH272075   4.333   0.089   3.877  0.1247 -0.3545 -0.6411
16887TIP3    H172076   4.419   0.087   3.837 -0.1203 -4.1603 -1.1887
16887TIP3    H272077   4.348   0.061   3.967 -0.4557 -0.5128 -0.5901
16888TIP3   OH272078   6.420   5.565   0.566  0.0786 -0.1675  0.1413
16888TIP3    H172079   6.493   5.507   0.545 -0.3594 -0.7814  0.3058
16888TIP3    H272080   6.455   5.624   0.633  1.2396  1.3033 -1.7200
16889TIP3   OH272081   2.675   5.220   4.515 -0.1397  0.3854 -0.3255
16889TIP3    H172082   2.703   5.131   4.533 -0.8733  0.1476 -0.3141
16889TIP3    H272083   2.728   5.275   4.573 -1.8929 -0.3010  2.0508
16890TIP3   OH272084   4.517   0.478  12.980  0.1456  0.5438  0.0381
16890TIP3    H172085   4.601   0.499  12.941 -0.4001  0.3854 -1.2514
16890TIP3    H272086   4.503   0.385  12.960 -1.0259  0.9455 -1.0914
16891TIP3   OH272087   0.041   2.140   2.839  0.5414 -0.3054 -0.7666
16891TIP3    H172088   0.075   2.226   2.867 -1.4334  0.0905  0.4850
16891TIP3    H272089   0.044   2.087   2.919 -1.8172 -0.2444 -0.6251
16892TIP3   OH272090   5.108   0.484   3.061 -1.3083 -0.1426 -0.0511
16892TIP3    H172091   5.115   0.496   3.155 -2.4027 -0.8517  0.1254
16892TIP3    H272092   5.029   0.432   3.049 -0.7332 -0.7469 -1.3069
16893TIP3   OH272093   2.372   1.730   2.019  0.5836  0.3197  0.0245
16893TIP3    H172094   2.463   1.716   1.992  0.3765 -0.4785 -0.2951
16893TIP3    H272095   2.329   1.645   2.003 -0.8336  1.4016 -2.2472
16894TIP3   OH272096   5.257   4.558  12.458  0.3882  0.1461 -0.1420
16894TIP3    H172097   5.193   4.593  12.395 -0.0510  0.0736  0.2636
16894TIP3    H272098   5.238   4.603  12.540  1.1623  0.4636 -0.1308
16895TIP3   OH272099   1.729   1.459   1.148  0.5478 -0.3713  0.2325
16895TIP3    H172100   1.704   1.519   1.078  1.1619 -1.4872 -0.9636
16895TIP3    H272101   1.647   1.434   1.190  0.0875 -0.4242 -0.6920
16896TIP3   OH272102   1.759   0.392  11.375  0.6526 -0.6730  0.2889
16896TIP3    H172103   1.767   0.406  11.280  1.6104  1.7361  0.6865
16896TIP3    H272104   1.684   0.446  11.400  0.4191 -1.2887  0.9253
16897TIP3   OH272105   1.964   5.774  11.133 -0.5525  0.3279 -0.8240
16897TIP3    H172106   1.884   5.726  11.153  0.9691 -1.4596  1.2941
16897TIP3    H272107   2.019   5.711  11.087  1.5505 -0.1426  2.1641
16898TIP3   OH272108   0.593   4.821  16.514 -0.4397  0.0901 -0.0504
16898TIP3    H172109   0.523   4.807  16.577  2.5582 -1.8329  3.0420
16898TIP3    H272110   0.637   4.901  16.544  1.2515 -1.0563  0.6492
16899TIP3   OH272111   5.823   4.003   1.578  0.1576  0.4228 -0.8546
16899TIP3    H172112   5.824   4.050   1.661  0.3913  0.8369 -1.0911
16899TIP3    H272113   5.813   3.911   1.602 -0.9556  0.6492 -0.4079
16900TIP3   OH272114   2.995   2.701  16.390 -0.8633  0.2017 -0.1972
16900TIP3    H172115   3.055   2.770  16.419 -0.6538 -1.2559  2.9315
16900TIP3    H272116   3.046   2.621  16.396 -1.4393 -0.4208 -2.8279
16901TIP3   OH272117   2.520   6.313  13.326 -0.5487 -0.5115  0.0275
16901TIP3    H172118   2.441   6.290  13.375 -0.6357 -0.0622  0.1017
16901TIP3    H272119   2.571   6.232  13.323 -0.3321 -0.4290  1.2591
16902TIP3   OH272120   1.776   0.254   1.630 -0.1755 -0.1928 -0.0775
16902TIP3    H172121   1.713   0.306   1.580  0.7635  0.6601 -0.4031
16902TIP3    H272122   1.723   0.205   1.692 -1.0800  1.3980  0.4500
16903TIP3   OH272123   4.787   3.639   3.645 -0.0937 -0.0809 -0.1041
16903TIP3    H172124   4.850   3.660   3.577 -0.3894 -0.6133 -0.5471
16903TIP3    H272125   4.705   3.625   3.598  0.0302 -1.9316  0.1951
16904TIP3   OH272126   4.679   6.074   2.444  0.0867  0.2579 -0.2806
16904TIP3    H172127   4.633   6.154   2.419  1.7757  0.9188 -1.3505
16904TIP3    H272128   4.703   6.088   2.536 -0.3901  0.5897 -0.2033
16905TIP3   OH272129   4.213   0.916  11.278  0.0616 -0.3449  0.2983
16905TIP3    H172130   4.228   0.832  11.321 -0.2909  0.4108  1.9462
16905TIP3    H272131   4.138   0.901  11.221 -0.3079 -1.0229  0.9555
16906TIP3   OH272132   4.409   4.213   3.834 -0.3070 -0.4015 -0.2139
16906TIP3    H172133   4.471   4.169   3.776 -1.3544  1.2752 -2.6798
16906TIP3    H272134   4.323   4.198   3.793 -1.0952  0.6721  1.0001
16907TIP3   OH272135   1.402   5.004   4.590 -0.1597  0.6122  0.2253
16907TIP3    H172136   1.337   4.940   4.621 -0.7614  1.1323  0.0392
16907TIP3    H272137   1.453   5.025   4.668 -1.9222  2.2102  1.0053
16908TIP3   OH272138   2.699   6.527  13.853  0.1036  0.7051  0.7223
16908TIP3    H172139   2.689   6.621  13.834  0.3678  0.8303  1.1899
16908TIP3    H272140   2.705   6.486  13.767 -0.1892  1.0969  0.5104
16909TIP3   OH272141   2.794   3.343   1.470 -0.2424  0.2938  0.4448
16909TIP3    H172142   2.887   3.356   1.452 -0.4566 -0.6008 -1.3513
16909TIP3    H272143   2.752   3.424   1.443 -0.5101 -0.8831 -2.8696
16910TIP3   OH272144   4.730   4.142   6.149 -0.0822  0.8961  1.0117
16910TIP3    H172145   4.786   4.066   6.161 -0.6598  0.4101  0.6719
16910TIP3    H272146   4.770   4.211   6.202  0.7494  0.5149  0.8725
16911TIP3   OH272147   1.022   4.674  11.591 -0.2864  0.2732 -0.5045
16911TIP3    H172148   0.999   4.612  11.660  0.1762  0.0008 -0.5952
16911TIP3    H272149   1.095   4.724  11.627  0.0018  0.0810 -0.8278
16912TIP3   OH272150   2.081   1.594  17.139  0.2900 -0.0910  0.7011
16912TIP3    H172151   2.169   1.607  17.103 -0.3608  0.9528 -0.5568
16912TIP3    H272152   2.081   1.504  17.171  0.7267 -1.3189 -2.5163
16913TIP3   OH272153   1.081   1.445   5.796 -0.4172  0.1872  0.1845
16913TIP3    H172154   1.055   1.485   5.879 -2.0182  0.3097 -0.3499
16913TIP3    H272155   1.015   1.475   5.734 -0.9886 -2.3337 -0.4825
16914TIP3   OH272156   5.724   4.402   5.821  0.1983 -0.5317  0.4869
16914TIP3    H172157   5.634   4.420   5.794  0.4767 -1.5080 -1.1757
16914TIP3    H272158   5.721   4.311   5.853  0.6771 -0.7322 -0.0243
16915TIP3   OH272159   6.458   2.266   0.716 -0.4912  0.6792 -1.0233
16915TIP3    H172160   6.534   2.210   0.729 -0.1693  1.1448 -0.9067
16915TIP3    H272161   6.432   2.251   0.625 -1.8378 -1.4428 -0.3309
16916TIP3   OH272162   6.186   3.207  12.919  0.3479 -0.0847 -0.0598
16916TIP3    H172163   6.108   3.156  12.899  0.0615 -0.3806  1.7093
16916TIP3    H272164   6.163   3.259  12.996  0.8467  2.2849 -1.4512
16917TIP3   OH272165   3.491   1.716  14.534 -0.4282  0.5280  0.4454
16917TIP3    H172166   3.518   1.786  14.595  1.6749 -0.9722  1.3078
16917TIP3    H272167   3.443   1.654  14.588  0.2396 -0.1250  0.2950
16918TIP3   OH272168   4.907   2.713  12.260  0.2002 -0.1833 -0.0267
16918TIP3    H172169   4.850   2.750  12.327 -0.1210  0.8875 -0.8770
16918TIP3    H272170   4.923   2.785  12.199  3.4754 -0.0890  0.8224
16919TIP3   OH272171   1.233   5.052   2.761 -0.7515  0.2393 -0.7598
16919TIP3    H172172   1.170   5.082   2.828 -0.3104  1.4138 -0.8581
16919TIP3    H272173   1.295   4.998   2.809  1.2858  3.4641  0.3985
16920TIP3   OH272174   4.347   0.042  17.235  0.3182  0.1156 -0.1700
16920TIP3    H172175   4.376   0.125  17.197  0.0763  0.1942 -0.1827
16920TIP3    H272176   4.299  -0.001  17.164  0.1818  0.1001 -0.0666
16921TIP3   OH272177   0.662   0.255  16.559  0.1701  0.0125  0.8016
16921TIP3    H172178   0.686   0.216  16.475 -0.4684 -2.6847  1.8266
16921TIP3    H272179   0.744   0.264  16.607  0.4769  1.1414  0.0904
16922TIP3   OH272180   3.989   3.796  14.181 -0.6231  0.6490 -0.1636
16922TIP3    H172181   4.019   3.706  14.194  0.3639  0.7395 -1.7211
16922TIP3    H272182   4.066   3.843  14.148 -0.6820  2.4489  2.0617
16923TIP3   OH272183   0.730   4.943   0.351 -0.1682 -0.0696  0.4081
16923TIP3    H172184   0.781   4.883   0.296 -0.1419  1.1147 -0.8957
16923TIP3    H272185   0.756   5.030   0.321 -1.2420  0.5743  1.3197
16924TIP3   OH272186   5.183   1.743   0.883  0.5632 -0.1362 -1.0763
16924TIP3    H172187   5.110   1.732   0.944  0.9983 -0.1624 -0.5605
16924TIP3    H272188   5.145   1.725   0.797  0.1562 -0.9718 -0.7263
16925TIP3   OH272189   5.855   0.110  16.959  0.1443  0.6073  0.1203
16925TIP3    H172190   5.766   0.144  16.960 -0.0877  0.0250  0.0128
16925TIP3    H272191   5.899   0.153  17.031 -0.8148 -0.6535  1.4887
16926TIP3   OH272192   4.807   2.750   0.952  0.0760  0.2096  0.3273
16926TIP3    H172193   4.770   2.799   0.878 -1.0615 -1.1647 -0.0439
16926TIP3    H272194   4.737   2.748   1.017  0.1943 -0.7166  0.4331
16927TIP3   OH272195   5.539   4.400  16.941  0.3584 -0.0681  0.1958
16927TIP3    H172196   5.486   4.474  16.972 -0.2079 -0.5580  0.3944
16927TIP3    H272197   5.527   4.332  17.006  0.2381 -0.6303 -0.4065
16928TIP3   OH272198   1.344   5.706   2.893 -0.2110  0.1929 -0.1327
16928TIP3    H172199   1.399   5.628   2.885 -0.5129  0.0544 -0.8362
16928TIP3    H272200   1.345   5.746   2.807 -0.3348  0.7862  0.1385
16929TIP3   OH272201   2.766   3.175  14.513  0.0135  0.2944 -0.1232
16929TIP3    H172202   2.757   3.174  14.417 -0.3060  0.3467 -0.0939
16929TIP3    H272203   2.739   3.263  14.538  1.0293  0.6013 -0.0711
16930TIP3   OH272204   5.928   2.797   0.807  0.2283  0.2419  0.1480
16930TIP3    H172205   5.904   2.754   0.890  0.3969 -0.1175  0.0119
16930TIP3    H272206   5.934   2.725   0.744 -0.7358  0.6037 -0.3711
16931TIP3   OH272207   0.079   1.331   4.436  0.3782 -1.0450  0.1280
16931TIP3    H172208  -0.005   1.344   4.392 -0.3248 -1.8315  1.1962
16931TIP3    H272209   0.123   1.415   4.429 -1.5236  0.1192  1.6379
16932TIP3   OH272210   3.027   3.973  15.649  0.2045 -0.1306 -0.3212
16932TIP3    H172211   3.046   3.954  15.741  0.4210  0.2752 -0.2803
16932TIP3    H272212   3.053   4.064  15.637 -0.4340  0.0202 -0.6176
16933TIP3   OH272213   2.279   6.573   5.078  0.1119  0.5579 -0.4361
16933TIP3    H172214   2.192   6.606   5.059  0.3843  0.6120 -1.6601
16933TIP3    H272215   2.302   6.611   5.163 -1.5006 -0.3873  0.4495
16934TIP3   OH272216   2.371   1.267   0.655  0.3943 -0.0065  0.2071
16934TIP3    H172217   2.341   1.236   0.570  0.0543  0.2317  0.2385
16934TIP3    H272218   2.315   1.222   0.718  1.0652 -0.6658  0.3356
16935TIP3   OH272219   0.817   2.907  12.157 -0.2983 -0.3650  0.3058
16935TIP3    H172220   0.778   2.986  12.194 -0.1633 -0.9275  1.6824
16935TIP3    H272221   0.745   2.844  12.154 -0.2742 -0.3685 -0.2599
16936TIP3   OH272222   0.620   2.593  12.330 -0.7398 -0.6041 -0.4789
16936TIP3    H172223   0.686   2.589  12.399 -1.4633 -2.0728  0.1450
16936TIP3    H272224   0.646   2.527  12.267 -0.7061 -0.0421 -1.0655
16937TIP3   OH272225   6.041   2.742   1.835  0.1550 -0.3619  0.8775
16937TIP3    H172226   6.052   2.647   1.827 -0.0806 -0.3703  0.6311
16937TIP3    H272227   5.946   2.755   1.842 -0.0002  0.0138 -1.4412
16938TIP3   OH272228   0.740   5.973  13.773 -0.5242 -0.0882  0.3798
16938TIP3    H172229   0.781   5.958  13.689 -0.3076  0.7229  0.3377
16938TIP3    H272230   0.802   6.028  13.822 -1.3811  0.8637  0.4377
16939TIP3   OH272231   1.187   3.761   3.987  0.0725  0.1198 -0.0739
16939TIP3    H172232   1.139   3.844   3.995 -1.1193 -0.5415 -0.2512
16939TIP3    H272233   1.123   3.701   3.949  1.0348 -0.7989 -0.2405
16940TIP3   OH272234   3.078   0.296   4.300  0.0015  0.2687  0.3536
16940TIP3    H172235   3.022   0.330   4.231 -0.1261 -0.6504 -0.0072
16940TIP3    H272236   3.074   0.201   4.290  0.3338  0.1384  1.3448
16941TIP3   OH272237   2.470   3.574   4.697 -0.2525  0.2572  0.4001
16941TIP3    H172238   2.548   3.537   4.655 -0.8342  0.2759 -0.7079
16941TIP3    H272239   2.417   3.498   4.722 -0.0560  0.2566  0.8212
16942TIP3   OH272240   3.927   6.694  16.703 -0.2938  0.0922 -0.4312
16942TIP3    H172241   3.878   6.746  16.767  2.3486  0.1449  1.6240
16942TIP3    H272242   3.928   6.747  16.624 -0.9511  1.4363  0.4523
16943TIP3   OH272243   3.876   2.367   6.134 -0.1365  0.5421  0.2609
16943TIP3    H172244   3.892   2.454   6.099  3.0428 -0.2694 -0.4726
16943TIP3    H272245   3.861   2.312   6.057  3.8735 -0.6694  0.2693
16944TIP3   OH272246   5.893   3.356   0.968  0.8089  0.5113  0.2967
16944TIP3    H172247   5.804   3.387   0.987  0.3352 -0.2383 -0.6201
16944TIP3    H272248   5.881   3.265   0.941  1.7418  0.7201 -0.8526
16945TIP3   OH272249   5.041   3.676  10.715  0.0239  0.2963  0.1008
16945TIP3    H172250   5.052   3.581  10.712  0.3940  0.1958  2.8224
16945TIP3    H272251   5.130   3.711  10.720 -0.1674  0.6628  1.0689
16946TIP3   OH272252   2.600   0.494  13.533  0.0530 -0.3901  0.2899
16946TIP3    H172253   2.562   0.423  13.585 -2.5838  0.9360  0.2386
16946TIP3    H272254   2.525   0.536  13.490  2.0285 -0.6449 -3.6178
16947TIP3   OH272255   5.389   6.365  16.649  0.4696 -0.4613  0.0985
16947TIP3    H172256   5.436   6.444  16.622  0.2447  1.0120  3.7913
16947TIP3    H272257   5.447   6.322  16.711 -0.5878 -1.7555  0.2079
16948TIP3   OH272258   6.598   2.845   3.137  0.0365  0.3940  0.5078
16948TIP3    H172259   6.571   2.917   3.194 -2.0917  0.7088 -0.8700
16948TIP3    H272260   6.649   2.887   3.068 -0.6481  0.4752  0.0604
16949TIP3   OH272261   2.276   0.014   3.205  0.1034  0.3015 -0.0264
16949TIP3    H172262   2.236   0.027   3.119 -0.3928  0.5712  0.2421
16949TIP3    H272263   2.360   0.059   3.200 -0.1807  0.8188 -0.1776
16950TIP3   OH272264   0.843   5.139   2.555  0.2377  0.6643 -0.1018
16950TIP3    H172265   0.862   5.233   2.559 -0.0100  0.6116  3.5605
16950TIP3    H272266   0.769   5.127   2.615  1.6730 -2.1765  1.1662
16951TIP3   OH272267   1.266   5.255   3.517  0.1930  0.4407 -0.0392
16951TIP3    H172268   1.352   5.261   3.476 -0.5123 -0.9169 -1.7920
16951TIP3    H272269   1.220   5.334   3.487  0.4661  0.6420  0.0650
16952TIP3   OH272270   4.777   0.223   2.281 -0.4976  0.0571 -0.2333
16952TIP3    H172271   4.744   0.144   2.238 -1.0228 -0.3259  0.8620
16952TIP3    H272272   4.834   0.190   2.351 -0.4517  0.6575  0.0106
16953TIP3   OH272273   3.588   4.104  14.558 -0.5365  0.3204  0.3657
16953TIP3    H172274   3.532   4.055  14.617 -0.3859  2.1926  2.0982
16953TIP3    H272275   3.563   4.073  14.471 -2.9794 -0.1936  1.2039
16954TIP3   OH272276   2.338   1.018  11.762  0.3376  0.0819  0.2344
16954TIP3    H172277   2.379   0.991  11.680  0.1044  0.2986  0.0466
16954TIP3    H272278   2.373   1.106  11.778 -0.7372  0.6336 -0.3884
16955TIP3   OH272279   5.932   5.231  11.275 -0.1027  0.1345  0.3083
16955TIP3    H172280   5.916   5.141  11.302 -1.1706  0.2397  0.0501
16955TIP3    H272281   5.867   5.248  11.206  0.7050  0.7932 -0.3027
16956TIP3   OH272282   0.261   0.908  15.925 -0.3938  0.5000  0.1155
16956TIP3    H172283   0.251   0.921  16.019 -1.3173 -1.2065  0.2601
16956TIP3    H272284   0.192   0.848  15.901  0.7940 -0.2999 -1.3948
16957TIP3   OH272285   6.645   5.044  14.680 -0.3442  0.1388  0.2715
16957TIP3    H172286   6.644   4.962  14.730  2.3315  0.5329  1.0143
16957TIP3    H272287   6.625   5.112  14.744  0.2739  0.3572  0.2329
16958TIP3   OH272288   0.151   2.119  12.607  0.3249 -0.1041  0.1559
16958TIP3    H172289   0.242   2.101  12.630  0.3231 -2.3994 -1.4749
16958TIP3    H272290   0.156   2.196  12.550  0.9996  1.1576  1.8821
16959TIP3   OH272291   3.089   6.096   6.056 -0.0888  0.0441  0.0122
16959TIP3    H172292   3.035   6.170   6.084  0.3148  0.9748 -1.5828
16959TIP3    H272293   3.173   6.111   6.100 -0.0716  0.4505 -0.1474
16960TIP3   OH272294   3.967   2.458  12.646 -0.4267  0.2089 -0.0224
16960TIP3    H172295   3.941   2.490  12.559  0.4917 -1.5634 -0.9737
16960TIP3    H272296   3.885   2.431  12.687 -0.7629  0.1270 -0.7343
16961TIP3   OH272297   0.767   5.369  15.207 -0.1188 -0.6525 -0.1118
16961TIP3    H172298   0.715   5.350  15.129 -1.0734  0.2393  0.3031
16961TIP3    H272299   0.711   5.343  15.280 -0.0190  0.3891  0.3385
16962TIP3   OH272300   0.140   1.202   5.128 -0.2104  0.0603  0.1211
16962TIP3    H172301   0.114   1.292   5.150  0.9217  0.6260 -0.7848
16962TIP3    H272302   0.171   1.207   5.038 -0.9114 -1.4188 -0.2055
16963TIP3   OH272303   2.345   0.121  13.996 -0.1203 -0.1672  0.1479
16963TIP3    H172304   2.326   0.214  13.993  0.7624 -0.0164 -0.6864
16963TIP3    H272305   2.432   0.114  14.034  0.0611 -0.6233 -0.3457
16964TIP3   OH272306   2.395   0.538  11.381  0.2733 -0.3597  0.0629
16964TIP3    H172307   2.388   0.446  11.410 -0.2923 -0.6761 -1.0492
16964TIP3    H272308   2.463   0.575  11.436  0.6788 -1.5241  0.3598
16965TIP3   OH272309   6.501   2.113   5.513  0.5204  0.5476  0.0837
16965TIP3    H172310   6.523   2.022   5.535 -4.0623 -0.4291  1.2750
16965TIP3    H272311   6.546   2.165   5.580  2.2706 -0.8972  0.0744
16966TIP3   OH272312   6.058   3.028  12.601  0.2215  0.5978  0.5711
16966TIP3    H172313   5.984   3.088  12.606  0.0789  0.4151  0.6473
16966TIP3    H272314   6.061   3.000  12.510 -0.5476 -0.3354  0.8292
16967TIP3   OH272315   4.328   0.070  14.912 -0.1753  0.1781  0.0289
16967TIP3    H172316   4.317   0.062  15.007 -1.3231 -2.0974 -0.2647
16967TIP3    H272317   4.422   0.078  14.899 -0.0554  1.2662  1.3966
16968TIP3   OH272318   0.326   3.469   1.289  0.4984 -0.4957  0.7129
16968TIP3    H172319   0.279   3.535   1.237  0.2393 -1.6976 -0.5957
16968TIP3    H272320   0.274   3.390   1.280  0.0483 -0.5564  3.4515
16969TIP3   OH272321   1.894   2.194  11.894  0.8421  0.3406  0.2588
16969TIP3    H172322   1.815   2.163  11.939  0.0762  1.0695 -0.5607
16969TIP3    H272323   1.938   2.249  11.959 -0.6226  1.9641 -0.0673
16970TIP3   OH272324   0.819   4.085   1.292 -0.1070  0.8526 -0.0737
16970TIP3    H172325   0.852   4.055   1.376  0.6333 -1.1391 -1.0219
16970TIP3    H272326   0.869   4.164   1.272  2.0237 -0.4809 -0.1250
16971TIP3   OH272327   3.138   2.186   0.015 -0.1038 -0.6123  0.5263
16971TIP3    H172328   3.231   2.208   0.020 -0.8404  2.5397  1.5685
16971TIP3    H272329   3.126   2.117   0.081  1.2496 -0.1193  1.2933
16972TIP3   OH272330   0.761   2.984   1.565  0.1763 -0.2909  0.1546
16972TIP3    H172331   0.749   3.071   1.603 -0.6580  0.2021 -1.2060
16972TIP3    H272332   0.677   2.939   1.578  0.8399 -1.1802  1.5269
16973TIP3   OH272333   3.817   6.290  15.563  0.1832  0.1704  0.0782
16973TIP3    H172334   3.821   6.224  15.494 -0.5299 -0.6147  0.7826
16973TIP3    H272335   3.812   6.373  15.516 -0.2899 -0.3526 -0.8107
16974TIP3   OH272336   4.223   2.927  15.214  0.7034  0.1355  0.7742
16974TIP3    H172337   4.134   2.932  15.178  0.2040 -0.4517  1.8878
16974TIP3    H272338   4.268   3.002  15.177 -0.0377  0.0113 -0.4060
16975TIP3   OH272339   6.606   4.661   5.583  0.1760 -0.5267 -0.5407
16975TIP3    H172340   6.689   4.699   5.611  0.4644  1.3835 -3.7680
16975TIP3    H272341   6.630   4.575   5.548  1.1064  0.7271 -3.0933
16976TIP3   OH272342   3.371   3.116  17.152  0.3927  0.0058  0.5669
16976TIP3    H172343   3.461   3.107  17.184  0.3646 -0.1040  0.6155
16976TIP3    H272344   3.317   3.101  17.230  0.3659  1.4743  0.8499
16977TIP3   OH272345   2.062   5.765   2.703 -0.3260 -0.1444 -0.2150
16977TIP3    H172346   2.138   5.820   2.721 -1.4644  0.8024  1.8974
16977TIP3    H272347   2.070   5.693   2.765 -0.7073 -0.4981 -0.5773
16978TIP3   OH272348   3.020   4.231  10.754 -0.7192 -0.4221  0.4648
16978TIP3    H172349   2.950   4.289  10.782  0.3810  0.8098  0.7085
16978TIP3    H272350   3.081   4.287  10.705  2.8695 -0.2260  4.8134
16979TIP3   OH272351   5.359   2.027   4.572  0.6447 -0.0310  0.7138
16979TIP3    H172352   5.411   2.079   4.511 -0.3989  0.3103  0.0949
16979TIP3    H272353   5.311   1.966   4.517 -0.1475  0.1337  1.2093
16980TIP3   OH272354   4.545   2.393   4.934 -0.0360  0.3493  0.3596
16980TIP3    H172355   4.511   2.333   5.000  0.9531 -2.4214 -1.5346
16980TIP3    H272356   4.530   2.480   4.970 -0.0986 -1.0634  3.9105
16981TIP3   OH272357   0.929   6.134  14.171  0.7294  0.5516  0.0966
16981TIP3    H172358   0.923   6.227  14.192 -0.1656  0.6188 -0.4309
16981TIP3    H272359   0.873   6.091  14.237  1.3741  0.3516  0.5237
16982TIP3   OH272360   5.500   4.591  14.129 -0.6123 -0.3200 -0.2593
16982TIP3    H172361   5.521   4.681  14.156  1.4110 -1.0038  0.5108
16982TIP3    H272362   5.533   4.584  14.040 -0.3212 -0.4521 -0.1410
16983TIP3   OH272363   1.025   4.348  12.788 -0.3091  0.3585  0.2679
16983TIP3    H172364   0.969   4.298  12.728  2.3837 -2.5055 -0.0211
16983TIP3    H272365   1.104   4.367  12.737  1.1235 -0.2079  2.2054
16984TIP3   OH272366   1.874   0.939  12.229 -0.1399  0.2291  0.5269
16984TIP3    H172367   1.890   0.856  12.273 -0.5515  0.2177  0.6593
16984TIP3    H272368   1.779   0.945  12.224 -0.0833 -0.2387 -1.2626
16985TIP3   OH272369   1.871   2.304   3.641 -0.1803  0.2965 -0.3530
16985TIP3    H172370   1.876   2.376   3.578 -0.3125  1.1709  0.6214
16985TIP3    H272371   1.923   2.334   3.716 -0.8961 -0.2723  0.3884
16986TIP3   OH272372   1.074   4.850  11.954 -0.6040 -0.1111 -0.0161
16986TIP3    H172373   1.068   4.778  12.016 -2.7350 -1.8010 -2.0649
16986TIP3    H272374   1.060   4.929  12.006 -3.0374 -1.5283  1.5264
16987TIP3   OH272375   6.111   0.106  13.937  0.1825 -0.0394  0.4287
16987TIP3    H172376   6.053   0.182  13.948 -0.2058 -0.2534 -0.1472
16987TIP3    H272377   6.054   0.037  13.903  0.9800  0.0471 -1.0926
16988TIP3   OH272378   3.820   2.418  14.625  0.3666  0.3604 -0.3987
16988TIP3    H172379   3.811   2.512  14.640  0.5657  0.6385 -1.9905
16988TIP3    H272380   3.737   2.392  14.585  0.2248 -0.1923  0.2364
16989TIP3   OH272381   2.834   6.618  12.473 -0.7643 -0.3890 -0.3237
16989TIP3    H172382   2.822   6.524  12.484 -0.3061 -0.5381 -1.0292
16989TIP3    H272383   2.751   6.649  12.438 -0.3046 -0.8535 -1.8926
16990TIP3   OH272384   3.665   3.169  17.022  0.4352 -0.6672 -0.0119
16990TIP3    H172385   3.698   3.255  16.999  1.0132 -1.3175 -1.7141
16990TIP3    H272386   3.660   3.169  17.118  0.0095  1.3869 -0.0252
16991TIP3   OH272387   6.227   2.874   4.612  0.4128  0.2098 -0.0168
16991TIP3    H172388   6.241   2.965   4.587  2.1721 -0.9890 -3.6712
16991TIP3    H272389   6.310   2.847   4.651  1.0875 -0.7603 -2.0565
16992TIP3   OH272390   2.743   0.136   2.088 -0.1236 -0.4468  0.3058
16992TIP3    H172391   2.801   0.155   2.162 -2.0090 -0.0978  1.7307
16992TIP3    H272392   2.754   0.042   2.072 -0.1908 -0.6551  1.4569
16993TIP3   OH272393   4.029   0.147  11.946 -0.1499  0.2425  0.3096
16993TIP3    H172394   3.936   0.171  11.943 -0.6678 -1.7297 -0.3719
16993TIP3    H272395   4.031   0.065  11.995  1.4201  1.0030  1.5593
16994TIP3   OH272396   6.178   0.010   0.411  0.8530  0.2712  0.7132
16994TIP3    H172397   6.206   0.102   0.415  0.3962  0.5304 -1.3716
16994TIP3    H272398   6.091   0.010   0.452  0.7244  0.8381  0.4545
16995TIP3   OH272399   4.645   5.894  15.801  0.6606 -0.5041 -0.4357
16995TIP3    H172400   4.692   5.835  15.860  0.8153  0.3133  0.2672
16995TIP3    H272401   4.557   5.857  15.795  0.4791 -0.3014  0.7543
16996TIP3   OH272402   3.768   6.492  13.384 -0.3820  0.2067 -0.2093
16996TIP3    H172403   3.763   6.398  13.402  0.4844  0.1063 -0.4682
16996TIP3    H272404   3.850   6.521  13.424 -0.9314  0.9749  0.3803
16997TIP3   OH272405   5.384   3.151  15.012 -0.6879  0.5060  0.0766
16997TIP3    H172406   5.344   3.225  14.966 -0.6821  0.6362  0.2807
16997TIP3    H272407   5.318   3.124  15.076 -0.6262  0.4342  0.1089
16998TIP3   OH272408   2.791   5.476  12.630 -0.0299  0.1290 -0.0431
16998TIP3    H172409   2.873   5.467  12.679 -0.1768 -0.4072  0.1010
16998TIP3    H272410   2.752   5.389  12.631 -0.7841  0.4647  0.2018
16999TIP3   OH272411   3.386   0.152  16.410  0.1284 -0.0672  0.2920
16999TIP3    H172412   3.339   0.069  16.424  1.6600 -0.9802  0.0586
16999TIP3    H272413   3.465   0.128  16.363 -0.0249  1.7135 -0.9327
17000TIP3   OH272414   2.452   4.274   3.867  0.6553 -0.6094  0.3022
17000TIP3    H172415   2.389   4.220   3.819  0.6765  0.0840 -0.4979
17000TIP3    H272416   2.527   4.216   3.881 -0.0537 -1.3692  1.0686
17001TIP3   OH272417   0.879   1.914   3.973  0.1084  0.3372  0.7490
17001TIP3    H172418   0.939   1.862   4.026 -0.4444 -0.7314  0.3659
17001TIP3    H272419   0.933   1.981   3.932  1.1435 -0.9379 -0.0047
17002TIP3   OH272420   3.263   3.536   1.728 -0.3328  0.5238 -0.0677
17002TIP3    H172421   3.268   3.444   1.751  1.7161  0.8454  0.9042
17002TIP3    H272422   3.215   3.538   1.645  1.1168 -1.5487 -0.9960
17003TIP3   OH272423   1.826   5.291   4.426 -0.3263  0.8008  0.2645
17003TIP3    H172424   1.740   5.334   4.425 -0.3303  0.7988  0.4180
17003TIP3    H272425   1.807   5.199   4.445 -0.4532  0.3822 -1.8031
17004TIP3   OH272426   2.703   4.971  12.149  0.8497 -0.2309 -1.1365
17004TIP3    H172427   2.639   4.977  12.220  2.7639 -0.6244  0.6781
17004TIP3    H272428   2.665   5.022  12.078 -1.3588 -0.2629 -0.0108
17005TIP3   OH272429   1.266   0.481  14.044  0.2566 -0.2291  0.3308
17005TIP3    H172430   1.257   0.535  14.123  1.8721  0.5486  0.0126
17005TIP3    H272431   1.338   0.522  13.996  1.0420 -2.2528 -0.2614
17006TIP3   OH272432   2.236   2.581  16.808  0.4386  0.6314  0.4817
17006TIP3    H172433   2.213   2.534  16.888 -0.7305  1.7953  0.8487
17006TIP3    H272434   2.260   2.512  16.746 -1.4932 -0.4825  0.9306
17007TIP3   OH272435   1.922   3.918  15.591 -0.6742  0.5320 -0.2296
17007TIP3    H172436   1.866   3.953  15.521  0.2460  3.3898  0.3936
17007TIP3    H272437   1.991   3.984  15.602  0.8930 -1.3064  1.3390
17008TIP3   OH272438   1.712   3.648  12.920 -0.0320  0.2086  0.1554
17008TIP3    H172439   1.702   3.611  13.008 -1.1529 -0.8747 -0.4172
17008TIP3    H272440   1.702   3.574  12.861  1.6936  0.7610 -0.8645
17009TIP3   OH272441   1.085   1.750  11.585  0.3249  0.1061 -0.1015
17009TIP3    H172442   1.076   1.656  11.600  1.1765 -0.0995 -0.7920
17009TIP3    H272443   1.152   1.756  11.517  0.4000  1.2199  0.0682
17010TIP3   OH272444   1.040   1.523  13.832  0.2749 -0.2655 -0.5748
17010TIP3    H172445   0.982   1.476  13.891 -0.6074  1.8205  0.2646
17010TIP3    H272446   1.120   1.469  13.829 -0.8743 -2.0527 -0.0705
17011TIP3   OH272447   5.839   6.111   1.372  0.8354  0.1814  0.7145
17011TIP3    H172448   5.874   6.077   1.454  0.0411 -1.2299  0.4772
17011TIP3    H272449   5.801   6.035   1.328  0.0118  1.1742 -0.3340
17012TIP3   OH272450   0.286   3.974  14.983 -0.8756 -0.0044 -0.1780
17012TIP3    H172451   0.336   3.996  14.905 -0.8716 -2.9855 -1.0542
17012TIP3    H272452   0.333   4.017  15.055  1.1452 -0.1707 -1.3757
17013TIP3   OH272453   1.860   1.687   5.314 -0.4011  0.4955  0.4522
17013TIP3    H172454   1.771   1.685   5.280 -0.9083  0.3478  1.7416
17013TIP3    H272455   1.864   1.768   5.365  0.7370  1.3576 -0.9887
17014TIP3   OH272456   5.241   5.105   1.549  0.0443  0.3446 -0.5398
17014TIP3    H172457   5.146   5.103   1.536  0.2623  0.9220 -2.3320
17014TIP3    H272458   5.252   5.101   1.644 -1.8140  1.7046 -0.2370
17015TIP3   OH272459   0.113   5.525   2.158 -0.4621  0.1415  0.3442
17015TIP3    H172460   0.068   5.478   2.228  0.2039  0.5666  1.0655
17015TIP3    H272461   0.145   5.605   2.199  0.6323  0.0146 -0.2429
17016TIP3   OH272462   4.835   3.602  12.158 -0.3168  0.0200  0.0754
17016TIP3    H172463   4.794   3.567  12.237 -1.1933  0.7972 -0.0334
17016TIP3    H272464   4.778   3.674  12.131  0.2149  0.0402 -1.0138
17017TIP3   OH272465   6.410   4.903   4.234 -0.1659 -0.7009 -0.5183
17017TIP3    H172466   6.348   4.830   4.233  1.1287 -1.8091 -1.2554
17017TIP3    H272467   6.495   4.862   4.251  0.3827  0.7979  0.4730
17018TIP3   OH272468   4.133   6.032  12.373  0.3300 -0.6377  0.3294
17018TIP3    H172469   4.076   5.959  12.399  1.0955 -2.0765 -1.8653
17018TIP3    H272470   4.220   5.992  12.364  0.9991  0.8173  0.2866
17019TIP3   OH272471   0.298   0.027   5.601 -0.3016  0.2747 -0.4871
17019TIP3    H172472   0.307  -0.058   5.558 -1.0347  0.1855 -0.4777
17019TIP3    H272473   0.341   0.088   5.542  1.6497 -0.3100  0.2660
17020TIP3   OH272474   2.171   1.293   5.762 -0.2780 -0.0734  0.1072
17020TIP3    H172475   2.250   1.269   5.713 -0.5126  0.6390 -0.6226
17020TIP3    H272476   2.181   1.248   5.846  0.8225 -0.1253 -0.0435
17021TIP3   OH272477   4.742   2.977   6.061 -0.3256 -0.1036  0.1416
17021TIP3    H172478   4.667   3.019   6.104  0.1506  0.8682  0.0305
17021TIP3    H272479   4.781   3.046   6.008 -0.6848 -1.1943 -1.5890
17022TIP3   OH272480   2.225   6.596   3.892 -0.5491  0.2465  1.0116
17022TIP3    H172481   2.130   6.611   3.892 -0.4847  0.8777 -1.3904
17022TIP3    H272482   2.239   6.535   3.965 -3.3664 -3.1239 -1.0743
17023TIP3   OH272483   5.155   1.704   1.989  0.0485 -0.1746 -0.6796
17023TIP3    H172484   5.130   1.663   1.906  0.5275 -0.9585 -0.4452
17023TIP3    H272485   5.237   1.749   1.969  0.2209 -0.4557 -0.6055
17024TIP3   OH272486   0.887   0.934  11.184  0.5483 -0.5085  0.2828
17024TIP3    H172487   0.872   0.953  11.092 -0.0213 -1.6502  0.1286
17024TIP3    H272488   0.879   0.839  11.191  3.0981 -0.7223  1.0518
17025TIP3   OH272489   5.706   4.465   1.222  0.3047  0.2501 -0.4384
17025TIP3    H172490   5.662   4.541   1.183  0.4471  0.6118  0.0943
17025TIP3    H272491   5.728   4.494   1.310 -1.3003 -1.0586  0.4129
17026TIP3   OH272492   3.965   4.150  15.055  0.4933  0.2079  0.0539
17026TIP3    H172493   3.960   4.187  14.966  0.4048  0.4103  0.1418
17026TIP3    H272494   3.995   4.223  15.109 -1.3552  0.6387  0.5225
17027TIP3   OH272495   5.683   0.945  12.395  0.0942  0.2725 -0.5422
17027TIP3    H172496   5.725   1.030  12.378 -0.0130  0.5838  0.7059
17027TIP3    H272497   5.591   0.966  12.407  0.3071  0.1968  1.3350
17028TIP3   OH272498   6.194   0.055  13.510  0.1596  0.5204  0.1262
17028TIP3    H172499   6.222   0.133  13.557 -0.0461  0.1827  0.8130
17028TIP3    H272500   6.117   0.082  13.459  0.5576  0.9567 -0.2460
17029TIP3   OH272501   5.065   1.143  15.874 -0.1229  0.0824  0.1872
17029TIP3    H172502   5.146   1.145  15.925  0.8081  0.6570 -1.2753
17029TIP3    H272503   5.084   1.084  15.801 -0.9297  0.4203 -0.3033
17030TIP3   OH272504   3.732   5.653  12.538 -0.5382  0.2002  0.0636
17030TIP3    H172505   3.823   5.671  12.561 -0.1443  0.9884 -2.0351
17030TIP3    H272506   3.735   5.570  12.490 -1.1747 -0.7141  1.5593
17031TIP3   OH272507   1.118   1.797  16.734 -0.1003  0.2633 -0.0431
17031TIP3    H172508   1.074   1.833  16.811  0.2884 -0.1711  0.3882
17031TIP3    H272509   1.090   1.705  16.731  0.7928 -0.0258  0.2585
17032TIP3   OH272510   5.503   0.804   2.873 -0.2703 -0.0829 -0.5568
17032TIP3    H172511   5.470   0.811   2.783 -0.0108 -1.1797 -0.7489
17032TIP3    H272512   5.523   0.894   2.898  0.3507  0.1602 -1.8663
17033TIP3   OH272513   3.427   4.358   0.649 -0.5153  0.1496 -0.4540
17033TIP3    H172514   3.421   4.264   0.635  0.3764 -0.0650  0.5145
17033TIP3    H272515   3.382   4.373   0.733  0.4265  0.4047  0.0139
17034TIP3   OH272516   6.327   6.640  14.594 -0.3819  0.1991 -0.3109
17034TIP3    H172517   6.284   6.567  14.550  1.0074 -0.5989 -0.3647
17034TIP3    H272518   6.360   6.603  14.676  0.5291  0.6988 -0.4483
17035TIP3   OH272519   2.985   1.643  13.482  0.3463  0.0903 -0.4577
17035TIP3    H172520   2.931   1.632  13.560  0.8764 -0.2122 -0.1299
17035TIP3    H272521   2.957   1.574  13.423 -0.1060  0.3633 -0.5660
17036TIP3   OH272522   0.133   5.716   5.602 -0.1342 -0.4330  0.1447
17036TIP3    H172523   0.066   5.720   5.671 -1.3124 -1.9365 -0.8926
17036TIP3    H272524   0.144   5.807   5.575 -3.6835 -0.4116 -1.4793
17037TIP3   OH272525   1.046   2.303  13.706 -0.2358  0.0865 -0.0159
17037TIP3    H172526   1.045   2.372  13.773  0.2945  0.4127 -0.3340
17037TIP3    H272527   1.017   2.347  13.626  2.2060  0.4980 -0.7182
17038TIP3   OH272528   3.669   0.025   6.433  0.3549  0.1534  0.1882
17038TIP3    H172529   3.748   0.039   6.486  0.6263  1.4976 -0.5377
17038TIP3    H272530   3.647  -0.067   6.446  3.2567 -0.8156 -1.2138
17039TIP3   OH272531   1.801   3.081   1.765 -0.2429 -0.4964 -0.3888
17039TIP3    H172532   1.752   3.073   1.847 -0.7605 -0.4625 -0.6904
17039TIP3    H272533   1.879   3.027   1.778  0.2209  0.3862  0.5230
17040TIP3   OH272534   5.722   2.702  14.041  0.0155  0.0702  0.6201
17040TIP3    H172535   5.771   2.620  14.040  0.1485  0.1465  0.9486
17040TIP3    H272536   5.754   2.749  14.118  0.2580  0.6253  0.1813
17041TIP3   OH272537   1.539   5.970  12.884  0.2843  0.9239 -0.4529
17041TIP3    H172538   1.603   5.940  12.819  0.5471 -0.5705  0.4862
17041TIP3    H272539   1.511   5.891  12.929 -2.1089  1.6061 -0.7104
17042TIP3   OH272540   0.123   0.329   5.524  0.1804  0.2451 -0.1092
17042TIP3    H172541   0.200   0.273   5.514 -0.1049 -0.2783  0.5770
17042TIP3    H272542   0.138   0.400   5.463  1.8186  0.8074  0.8885
17043TIP3   OH272543   6.362   2.759  11.051  0.3522  0.1338 -0.3357
17043TIP3    H172544   6.377   2.852  11.066  0.1682 -0.2113  2.3050
17043TIP3    H272545   6.275   2.755  11.012 -0.7828  0.9391  1.9999
17044TIP3   OH272546   6.340   5.418  17.089  0.1668  0.1929 -0.2010
17044TIP3    H172547   6.305   5.422  17.178 -1.1684  0.6749 -0.7359
17044TIP3    H272548   6.262   5.413  17.033  1.0003 -0.4554 -1.3223
17045TIP3   OH272549   2.752   5.986  14.355  0.0939 -0.4233 -0.1253
17045TIP3    H172550   2.671   5.975  14.304 -0.7095  1.0795  0.7611
17045TIP3    H272551   2.726   5.971  14.446  0.3410  2.0203  0.3860
17046TIP3   OH272552   4.910   6.456  15.011  0.3322 -0.1484 -0.1114
17046TIP3    H172553   4.904   6.392  15.082 -0.5944 -0.0723 -0.1172
17046TIP3    H272554   4.829   6.508  15.018  0.5215  0.2588 -0.8382
17047TIP3   OH272555   3.086   4.487  14.495 -0.5563  0.1262 -0.7769
17047TIP3    H172556   2.991   4.485  14.478 -0.8114 -0.6239  0.6188
17047TIP3    H272557   3.099   4.421  14.564  0.7716  1.2268  0.0488
17048TIP3   OH272558   2.661   3.558  11.156 -0.1426  0.5234 -0.3098
17048TIP3    H172559   2.565   3.564  11.149 -0.2718 -0.3576  0.5183
17048TIP3    H272560   2.684   3.481  11.104  0.0176  0.2441  0.1660
17049TIP3   OH272561   6.301   3.039  12.192  0.7316  0.3449  0.2632
17049TIP3    H172562   6.313   3.119  12.244 -0.0616  0.2256  0.6244
17049TIP3    H272563   6.301   2.968  12.256  0.4762  0.1365  0.0345
17050TIP3   OH272564   4.715   5.532  16.603  0.7818  0.0107 -0.2900
17050TIP3    H172565   4.666   5.573  16.531  0.0134 -1.7309 -0.7875
17050TIP3    H272566   4.796   5.501  16.561  1.2765  0.8210  0.0493
17051TIP3   OH272567   0.229   6.633  12.622 -0.5499  0.6379 -0.1173
17051TIP3    H172568   0.180   6.600  12.698  1.1874 -1.2083  0.2284
17051TIP3    H272569   0.282   6.705  12.656 -0.1275  0.1188  0.3157
17052TIP3   OH272570   2.989   4.449   2.338 -0.0209 -0.0033 -0.8153
17052TIP3    H172571   3.070   4.474   2.383 -0.0938 -0.2282 -0.5519
17052TIP3    H272572   2.984   4.354   2.349 -0.7937  0.1163 -0.0169
17053TIP3   OH272573   4.838   2.359   4.938  0.3562 -0.1233 -0.0845
17053TIP3    H172574   4.852   2.330   5.028  0.4679  2.0303  0.6141
17053TIP3    H272575   4.743   2.360   4.927  0.3032  0.9768  0.4674
17054TIP3   OH272576   4.244   4.315   3.213  0.1815 -0.4915 -0.0569
17054TIP3    H172577   4.300   4.361   3.275  0.5321 -0.4943 -0.3740
17054TIP3    H272578   4.242   4.372   3.136 -1.3311  0.1740  0.4468
17055TIP3   OH272579   5.149   3.459  17.132  0.4687 -0.2929  0.9228
17055TIP3    H172580   5.212   3.396  17.167 -1.1867 -2.0652  0.8057
17055TIP3    H272581   5.063   3.420  17.149 -0.5642  1.3077 -0.3537
17056TIP3   OH272582   3.626   3.522  12.942  0.2279  0.1491  0.4581
17056TIP3    H172583   3.696   3.463  12.971 -0.6442 -0.4006  1.5288
17056TIP3    H272584   3.553   3.502  13.001 -0.8674  0.6254 -0.7127
17057TIP3   OH272585   5.136   3.185   5.781  0.0294 -0.1986 -0.4353
17057TIP3    H172586   5.201   3.197   5.711  1.1393 -2.1741  0.2152
17057TIP3    H272587   5.186   3.150   5.854 -1.4681  0.0177  0.7204
17058TIP3   OH272588   3.947   3.437  16.057  0.3618  0.0351  0.1508
17058TIP3    H172589   3.909   3.451  15.970 -1.1730 -1.6505  0.5126
17058TIP3    H272590   4.032   3.398  16.040 -0.2870 -1.0793 -0.6117
17059TIP3   OH272591   0.188   3.755   2.571 -0.3470  0.2278  0.1140
17059TIP3    H172592   0.267   3.715   2.536  1.2644  1.8027  1.8588
17059TIP3    H272593   0.134   3.681   2.599  1.4865 -0.7950  1.0013
17060TIP3   OH272594   0.488   0.564   0.342 -0.0699 -0.0658  0.6764
17060TIP3    H172595   0.492   0.474   0.373  2.2181  0.8195  3.1227
17060TIP3    H272596   0.396   0.577   0.320  0.0913 -3.9375 -2.8534
17061TIP3   OH272597   0.991   3.745   2.026  0.2287  0.4851  0.4951
17061TIP3    H172598   0.964   3.764   2.116  1.8471 -0.7300  1.2689
17061TIP3    H272599   1.005   3.650   2.025  0.7029  0.5621 -0.8914
17062TIP3   OH272600   2.929   2.843  10.839 -0.0083 -0.1221  0.0407
17062TIP3    H172601   2.960   2.873  10.754 -0.6580  0.8191  0.1271
17062TIP3    H272602   2.849   2.795  10.820 -0.3332  0.3706  0.1437
17063TIP3   OH272603   6.646   3.030   2.494  0.1764 -0.3681 -0.1853
17063TIP3    H172604   6.567   2.977   2.498  0.7031 -1.0824  0.7977
17063TIP3    H272605   6.668   3.048   2.585  0.1249  1.3724 -0.4909
17064TIP3   OH272606   5.670   2.156   5.593 -0.2033 -0.2640  0.8695
17064TIP3    H172607   5.667   2.062   5.614  0.1848 -0.3231  0.6677
17064TIP3    H272608   5.749   2.166   5.540 -1.0366 -0.0741 -0.3517
17065TIP3   OH272609   6.668   3.911  13.127  0.1139  0.4001  0.1859
17065TIP3    H172610   6.755   3.873  13.117  0.2707  0.6620  0.5505
17065TIP3    H272611   6.657   3.967  13.051 -0.8726 -1.8252 -1.3642
17066TIP3   OH272612   3.189   5.823   3.350 -0.0138 -0.5349  0.6532
17066TIP3    H172613   3.125   5.770   3.302  1.3218 -0.7587 -0.9478
17066TIP3    H272614   3.221   5.885   3.285  1.8123 -0.8195  1.2643
17067TIP3   OH272615   3.529   4.651  17.205 -0.2222  0.0380 -0.3906
17067TIP3    H172616   3.507   4.640  17.297  0.1146  1.1807 -0.1628
17067TIP3    H272617   3.531   4.562  17.169  1.9301 -0.6016  1.2308
17068TIP3   OH272618   2.613   2.365   4.609 -1.0622 -0.0086 -0.0825
17068TIP3    H172619   2.664   2.442   4.585 -0.6645 -0.0950  0.4717
17068TIP3    H272620   2.678   2.303   4.642 -1.5784  0.0361  1.0215
17069TIP3   OH272621   1.330   6.216  15.998  0.3511  0.0552 -0.7632
17069TIP3    H172622   1.242   6.199  16.031 -0.1582  0.0158 -2.1489
17069TIP3    H272623   1.318   6.275  15.924  1.5658  0.8406 -0.3577
17070TIP3   OH272624   1.708   1.653   4.443 -0.1735  0.4101 -0.4401
17070TIP3    H172625   1.616   1.641   4.464 -0.3029  1.5009 -0.3685
17070TIP3    H272626   1.734   1.571   4.402 -0.7028 -0.5768  1.1815
17071TIP3   OH272627   4.616   6.710  12.951 -0.5512 -0.6784  0.4906
17071TIP3    H172628   4.598   6.721  12.857 -0.1468 -1.4199  0.3230
17071TIP3    H272629   4.702   6.669  12.954  0.3359  1.2347  1.2467
17072TIP3   OH272630   4.976   4.525   4.968  0.0406 -0.0697 -0.4401
17072TIP3    H172631   4.929   4.447   4.939 -0.0153  0.3711 -1.5590
17072TIP3    H272632   4.933   4.550   5.050 -1.3498  0.0264 -1.1835
17073TIP3   OH272633   2.643   5.872   4.526 -0.0210 -0.6081 -0.7424
17073TIP3    H172634   2.661   5.865   4.433  0.2954  1.2385 -0.8394
17073TIP3    H272635   2.551   5.851   4.535  0.0171 -1.0647 -1.4391
17074TIP3   OH272636   2.706   0.928   3.364  0.1869 -0.0338  0.5573
17074TIP3    H172637   2.612   0.918   3.348  0.1703  1.0223 -0.0458
17074TIP3    H272638   2.743   0.841   3.346 -0.7214 -0.5595  1.1985
17075TIP3   OH272639   6.069   0.289   3.781 -0.3753  0.4147  0.3898
17075TIP3    H172640   5.991   0.287   3.836 -0.4084 -1.9511  0.3140
17075TIP3    H272641   6.064   0.373   3.736 -3.6911 -0.2811 -0.7140
17076TIP3   OH272642   4.907   6.127  11.060 -0.0985 -0.0264  0.1484
17076TIP3    H172643   4.833   6.185  11.043 -0.5989 -0.3431  1.1515
17076TIP3    H272644   4.867   6.042  11.076  0.2669  0.2631  2.9332
17077TIP3   OH272645   2.697   5.644   0.751  0.0725 -0.0862  0.0535
17077TIP3    H172646   2.720   5.711   0.686  1.1597 -1.1373 -0.6813
17077TIP3    H272647   2.607   5.619   0.728  0.7108 -0.9993 -1.5747
17078TIP3   OH272648   0.691   3.219   4.503  0.1243  0.1066 -0.1253
17078TIP3    H172649   0.758   3.195   4.440  0.2193  1.3626 -0.5182
17078TIP3    H272650   0.654   3.301   4.469  0.2650  0.8731  1.5062
17079TIP3   OH272651   1.660   3.594   2.783  0.2686  0.2270 -0.2560
17079TIP3    H172652   1.716   3.570   2.857  1.8323  0.3217 -1.3878
17079TIP3    H272653   1.692   3.540   2.711 -0.6045  0.8430 -1.1063
17080TIP3   OH272654   5.097   6.745   3.243 -0.5256 -0.0359  0.2382
17080TIP3    H172655   5.037   6.709   3.307 -1.6219 -0.0073 -0.7634
17080TIP3    H272656   5.105   6.677   3.176  0.3650  0.0635  0.2310
17081TIP3   OH272657   3.088   0.392  14.121  0.0400 -0.4059 -0.0052
17081TIP3    H172658   3.144   0.329  14.166  0.9427 -0.3338 -1.0350
17081TIP3    H272659   3.147   0.461  14.092 -0.8618  0.6579  0.6264
17082TIP3   OH272660   3.893   6.432   6.758  0.2245 -0.9302  0.4694
17082TIP3    H172661   3.900   6.384   6.675 -0.2388 -0.7310  0.3095
17082TIP3    H272662   3.982   6.463   6.775  0.1806 -0.2722 -0.3921
17083TIP3   OH272663   2.845   5.968   3.518 -0.4279 -0.0797  0.4404
17083TIP3    H172664   2.896   5.927   3.448  2.0775  1.2022  1.4735
17083TIP3    H272665   2.843   6.061   3.496  1.6023  0.5523  2.7831
17084TIP3   OH272666   5.615   1.003  17.001  0.3286 -0.4201 -0.9992
17084TIP3    H172667   5.602   1.087  16.957 -0.7602  0.1569  0.4011
17084TIP3    H272668   5.591   1.019  17.092  2.2583 -1.6787 -0.2380
17085TIP3   OH272669   3.251   1.768   5.293 -0.0780 -0.5242  0.6259
17085TIP3    H172670   3.165   1.756   5.333  0.5589  0.6170  2.4178
17085TIP3    H272671   3.268   1.687   5.246 -2.2134 -0.6872  0.1172
17086TIP3   OH272672   4.966   6.522   5.197 -0.3084 -0.0987  0.1462
17086TIP3    H172673   4.926   6.485   5.118 -0.3782 -0.8401  0.5268
17086TIP3    H272674   5.030   6.457   5.225  0.6918  0.7900 -0.0769
17087TIP3   OH272675   6.600   6.631  11.235  0.5145  0.1772  0.3536
17087TIP3    H172676   6.591   6.716  11.277  2.8923 -0.2021  1.7626
17087TIP3    H272677   6.608   6.650  11.141  4.0914  1.8056  0.9133
17088TIP3   OH272678   2.056   5.083  12.925  0.2024  0.2733  0.2641
17088TIP3    H172679   2.067   5.178  12.924 -1.1969  0.4956  2.0133
17088TIP3    H272680   2.142   5.048  12.950  0.5879  1.1170  0.0994
17089TIP3   OH272681   1.006   4.992  14.614 -0.2923 -0.0863  0.4785
17089TIP3    H172682   1.038   5.022  14.529  0.4361 -0.7621  0.5030
17089TIP3    H272683   1.075   5.017  14.676 -0.0583 -1.0529  0.6188
17090TIP3   OH272684   4.048   0.097   4.617  0.3156 -0.2356  0.7830
17090TIP3    H172685   4.034   0.028   4.682 -0.7271  0.0331  0.8530
17090TIP3    H272686   3.967   0.098   4.566  0.7148  0.2717  0.1624
17091TIP3   OH272687   0.657   3.239   1.607  0.1900 -0.2387  0.4620
17091TIP3    H172688   0.563   3.254   1.596  0.0331 -0.1412  1.8623
17091TIP3    H272689   0.694   3.255   1.520 -0.9798  0.5391  0.0936
17092TIP3   OH272690   0.616   4.901  16.178 -0.3338 -0.0767 -0.1871
17092TIP3    H172691   0.534   4.949  16.169 -0.3210  0.3491  1.6508
17092TIP3    H272692   0.592   4.809  16.163 -0.8645  0.2072 -1.0993
17093TIP3   OH272693   5.008   6.431  11.474 -0.4600  0.4519 -0.4456
17093TIP3    H172694   5.015   6.350  11.424  1.8429  1.0839 -1.1991
17093TIP3    H272695   5.004   6.500  11.407 -1.0733  1.0587  0.2096
17094TIP3   OH272696   3.485   1.804  13.551  0.0196  0.5375 -0.1820
17094TIP3    H172697   3.419   1.846  13.495 -0.5175 -0.4443 -0.2947
17094TIP3    H272698   3.457   1.823  13.640 -1.2547 -1.1464 -0.2104
17095TIP3   OH272699   3.950   4.324   2.354 -0.7961 -0.4365  1.0945
17095TIP3    H172700   3.856   4.308   2.342 -1.5312  2.3554  2.6754
17095TIP3    H272701   3.958   4.350   2.446  1.7802 -2.0745  1.3880
17096TIP3   OH272702   0.288   5.160   5.353  0.1137  0.1098 -0.2332
17096TIP3    H172703   0.271   5.236   5.296 -1.4101 -0.6704 -0.8325
17096TIP3    H272704   0.368   5.121   5.317 -0.5888 -0.1125 -1.5748
17097TIP3   OH272705   2.851   2.446  13.700  0.2994 -0.0228  0.6573
17097TIP3    H172706   2.836   2.388  13.774  0.1948  1.3579  1.7299
17097TIP3    H272707   2.778   2.507  13.701  0.1143 -0.1951 -0.7946
17098TIP3   OH272708   0.603   6.631  13.144  0.1188 -0.1925  0.3262
17098TIP3    H172709   0.541   6.617  13.073  1.3705 -0.4074 -0.7387
17098TIP3    H272710   0.550   6.622  13.224 -1.2003 -0.4099 -0.5522
17099TIP3   OH272711   6.579   3.343   0.500 -0.6699  0.9361 -0.2260
17099TIP3    H172712   6.486   3.345   0.523 -0.6559  1.0507 -0.1801
17099TIP3    H272713   6.624   3.356   0.583 -0.6209  1.3986 -0.3216
17100TIP3   OH272714   4.878   4.245   1.278  0.4436  0.1571  0.2678
17100TIP3    H172715   4.922   4.267   1.360 -1.4688 -1.0606  1.6456
17100TIP3    H272716   4.950   4.225   1.217  1.8485 -0.1515  1.9903
17101TIP3   OH272717   1.439   6.175  11.445 -1.0361  0.4498 -0.1711
17101TIP3    H172718   1.428   6.102  11.383 -1.3846  0.0271  0.3867
17101TIP3    H272719   1.418   6.137  11.530  1.5919  0.4642  0.5039
17102TIP3   OH272720   5.558   1.558  16.772 -0.4862  0.1507  0.4555
17102TIP3    H172721   5.514   1.505  16.706 -0.9628  0.4117  0.5683
17102TIP3    H272722   5.652   1.542  16.756 -0.5872  0.4921 -0.5142
17103TIP3   OH272723   0.196   5.049   5.801  0.6661 -0.3024 -0.5904
17103TIP3    H172724   0.122   5.054   5.863  0.8685 -0.4117 -0.3384
17103TIP3    H272725   0.247   4.974   5.832  1.2540  0.1991 -0.3561
17104TIP3   OH272726   2.659   3.106  17.234 -0.3104 -0.5630  0.6807
17104TIP3    H172727   2.628   3.128  17.322  1.0555  0.6444  0.8850
17104TIP3    H272728   2.710   3.183  17.207 -1.1486 -0.7006 -1.3822
17105TIP3   OH272729   2.560   0.608  16.576  0.0594 -0.2887  0.0790
17105TIP3    H172730   2.656   0.599  16.574  0.1702  0.6649  0.5577
17105TIP3    H272731   2.534   0.613  16.484  0.5865  0.5335 -0.0315
17106TIP3   OH272732   1.651   3.588   4.445  0.0621  0.4911 -1.0126
17106TIP3    H172733   1.665   3.569   4.352 -0.6378  0.0032 -1.0289
17106TIP3    H272734   1.584   3.656   4.446  0.5014  0.9245 -0.8766
17107TIP3   OH272735   2.268   5.803   1.781  0.6816  0.4582  0.6397
17107TIP3    H172736   2.291   5.861   1.708 -0.6684  1.5141  1.0249
17107TIP3    H272737   2.286   5.854   1.860  0.4111 -0.0020  1.0052
17108TIP3   OH272738   3.092   1.648   4.972 -0.2260  0.1457  0.5694
17108TIP3    H172739   3.072   1.654   5.066 -0.0308 -0.0318  0.6232
17108TIP3    H272740   3.132   1.562   4.962  0.1076  0.3235  0.3865
17109TIP3   OH272741   6.184   6.715   1.813 -0.0547 -0.0556  0.1259
17109TIP3    H172742   6.110   6.736   1.870  0.7550 -2.8795  2.2713
17109TIP3    H272743   6.173   6.622   1.792  3.0061 -0.5818  0.6636
17110TIP3   OH272744   4.693   2.326  16.064  0.0292  1.0214  0.0617
17110TIP3    H172745   4.655   2.238  16.067  0.5210  0.7121 -1.9422
17110TIP3    H272746   4.625   2.383  16.100 -0.7192 -0.0424  0.3567
17111TIP3   OH272747   5.605   3.223   1.587 -0.5111  0.1328  0.1011
17111TIP3    H172748   5.683   3.248   1.637  0.6080 -1.4080 -0.8156
17111TIP3    H272749   5.592   3.295   1.525 -0.3142  0.7820  0.8027
17112TIP3   OH272750   5.734   6.636  15.819  0.7707  0.1134  0.1281
17112TIP3    H172751   5.657   6.586  15.792  0.5551 -0.3343  1.5091
17112TIP3    H272752   5.701   6.695  15.887  0.7175  3.2244 -2.4758
17113TIP3   OH272753   3.506   5.515   2.577 -0.2100  0.7827  0.7690
17113TIP3    H172754   3.561   5.437   2.586  1.1347  1.8656  2.1591
17113TIP3    H272755   3.430   5.485   2.527  0.8407 -1.1339  0.2834
17114TIP3   OH272756   6.505   3.045  12.012  0.3451 -0.0112  0.1465
17114TIP3    H172757   6.436   3.050  12.078  2.0428  0.6062  1.9233
17114TIP3    H272758   6.570   2.985  12.049  0.0436 -1.8316 -2.2063
17115TIP3   OH272759   3.043   3.603   2.846  0.4685  0.5204 -0.3493
17115TIP3    H172760   3.038   3.698   2.838  0.8024  0.4321 -1.7289
17115TIP3    H272761   3.055   3.587   2.940 -1.6700  1.7329  0.1461
17116TIP3   OH272762   0.476   5.415  15.549 -0.1957  0.0338  0.1707
17116TIP3    H172763   0.392   5.368  15.548 -0.5032  0.5632 -1.2514
17116TIP3    H272764   0.500   5.420  15.641 -1.3524 -0.8003  0.5311
17117TIP3   OH272765   4.951   2.593   0.156  0.1759 -0.1676 -0.3527
17117TIP3    H172766   4.870   2.639   0.179  0.9185  0.2151  1.5957
17117TIP3    H272767   5.018   2.633   0.211  1.3746 -1.6605 -0.6820
17118TIP3   OH272768   5.307   0.733  16.049  0.1693  0.1106  0.5804
17118TIP3    H172769   5.331   0.800  15.985  1.8737  1.4430  2.5534
17118TIP3    H272770   5.214   0.746  16.064  0.0900  0.7847 -0.4551
17119TIP3   OH272771   3.620   6.649   0.919  0.2214 -0.4352  0.1195
17119TIP3    H172772   3.594   6.612   1.004  1.9359 -0.7851  0.5064
17119TIP3    H272773   3.611   6.743   0.931 -0.6824 -0.5438  0.3120
17120TIP3   OH272774   3.162   3.552   3.553  0.0672 -0.9083  0.1401
17120TIP3    H172775   3.122   3.633   3.523 -0.4717 -0.9301  0.7824
17120TIP3    H272776   3.231   3.534   3.489  0.5950  0.3793  0.3411
17121TIP3   OH272777   2.063   1.693   3.610  0.0234 -0.0280 -0.4565
17121TIP3    H172778   2.088   1.643   3.533 -0.5336 -2.6230  0.9830
17121TIP3    H272779   2.053   1.627   3.679 -2.4112  1.8772  1.1010
17122TIP3   OH272780   2.210   5.203   4.572  0.3571 -0.4731 -0.2678
17122TIP3    H172781   2.288   5.232   4.525 -0.1804 -0.0787 -0.9307
17122TIP3    H272782   2.144   5.269   4.551 -0.7767 -1.9504 -1.4807
17123TIP3   OH272783   6.473   1.288  15.890  0.3650 -0.0078  0.0670
17123TIP3    H172784   6.408   1.354  15.864 -0.3012 -0.0974  1.4835
17123TIP3    H272785   6.470   1.224  15.819 -2.7961 -1.2322  1.1996
17124TIP3   OH272786   0.324   0.277  16.422 -0.0475  0.1331 -0.2814
17124TIP3    H172787   0.231   0.289  16.399  0.4826  0.3102 -2.4828
17124TIP3    H272788   0.357   0.366  16.437 -0.6609 -0.0495  2.4653
17125TIP3   OH272789   2.300   2.933   1.286 -0.2368  0.0968  0.0694
17125TIP3    H172790   2.310   2.956   1.194 -0.9775  1.1648  0.2472
17125TIP3    H272791   2.388   2.906   1.313  0.1437  0.4790 -0.7611
17126TIP3   OH272792   2.300   0.369  11.706 -0.5572  0.3545 -0.0001
17126TIP3    H172793   2.207   0.351  11.722 -0.2476  0.3307  1.8091
17126TIP3    H272794   2.309   0.363  11.610 -2.4372  0.4809 -0.2033
17127TIP3   OH272795   3.455   5.565  16.263 -0.1392 -0.4189 -0.4851
17127TIP3    H172796   3.462   5.494  16.327 -1.4398 -0.9277 -0.8881
17127TIP3    H272797   3.386   5.622  16.297 -0.3199 -0.2962 -1.0385
17128TIP3   OH272798   2.297   6.128   1.583 -0.0268 -0.2081  0.4189
17128TIP3    H172799   2.337   6.148   1.668 -1.2435  0.3296  0.8761
17128TIP3    H272800   2.273   6.213   1.547 -1.3099 -0.5596  0.4242
17129TIP3   OH272801   3.798   2.244  15.467 -0.1960 -0.5523 -0.0466
17129TIP3    H172802   3.886   2.262  15.434 -0.4480 -2.5552 -1.9964
17129TIP3    H272803   3.808   2.164  15.519 -0.4781  0.4705  1.5881
17130TIP3   OH272804   2.460   0.818   4.931 -0.1746 -0.6586  0.0262
17130TIP3    H172805   2.505   0.761   4.869 -0.3578  0.2388 -0.9452
17130TIP3    H272806   2.377   0.775   4.949 -0.7946 -0.1634 -1.5645
17131TIP3   OH272807   6.624   2.854  12.890  1.2493 -0.2914  0.4350
17131TIP3    H172808   6.642   2.761  12.876  3.2040  0.1135  0.1435
17131TIP3    H272809   6.676   2.877  12.967  3.3586  1.3035 -1.3991
17132TIP3   OH272810   1.078   2.030   0.834 -0.2187 -0.0755 -0.2071
17132TIP3    H172811   1.003   2.067   0.882 -2.1000 -1.7181 -1.8136
17132TIP3    H272812   1.124   2.107   0.800 -0.5946  0.9932  1.6453
17133TIP3   OH272813   4.350   6.420   5.556  0.1189  0.3608  0.5912
17133TIP3    H172814   4.263   6.413   5.518  0.8615  0.0550 -1.1145
17133TIP3    H272815   4.336   6.454   5.644 -1.7746 -0.4483  0.6129
17134TIP3   OH272816   6.114   2.747  10.939 -0.4576  0.1036  0.5304
17134TIP3    H172817   6.078   2.709  10.859 -0.2236 -0.0035  0.4741
17134TIP3    H272818   6.067   2.830  10.950 -1.0072 -0.2263  0.6773
17135TIP3   OH272819   2.668   3.670  14.743  0.4108 -0.4585  0.4433
17135TIP3    H172820   2.753   3.697  14.779  0.3921  0.7684 -0.4094
17135TIP3    H272821   2.655   3.727  14.667 -1.3758 -0.3441  0.8208
17136TIP3   OH272822   1.563   6.556  15.310 -0.0146 -0.0662  0.0897
17136TIP3    H172823   1.653   6.546  15.279  0.0417  0.5814  0.0380
17136TIP3    H272824   1.541   6.472  15.349  0.4380 -0.3941 -0.3630
17137TIP3   OH272825   2.185   3.029   2.083 -0.2694 -0.2255  0.4031
17137TIP3    H172826   2.234   3.106   2.055  1.1181 -1.1389  0.2598
17137TIP3    H272827   2.134   3.003   2.006 -2.0762  1.5537  0.9773
17138TIP3   OH272828   2.508   3.118   4.000 -0.2008  0.9755  0.1112
17138TIP3    H172829   2.439   3.184   4.003  0.3567  1.5928 -0.5740
17138TIP3    H272830   2.590   3.168   3.999  0.3220  0.2256  2.4713
17139TIP3   OH272831   0.456   3.082  14.324  0.6938 -0.3597 -0.6493
17139TIP3    H172832   0.373   3.128  14.312  1.0341  0.8990  1.5473
17139TIP3    H272833   0.454   3.011  14.260 -2.6445 -1.1580  0.2605
17140TIP3   OH272834   2.804   2.677  13.515  0.4838  0.0976  0.0914
17140TIP3    H172835   2.888   2.659  13.471 -0.0782 -3.4693  0.2922
17140TIP3    H272836   2.751   2.720  13.448  1.4266 -0.5077 -1.0730
17141TIP3   OH272837   5.338   5.524  12.111 -0.2250 -0.0596  0.0489
17141TIP3    H172838   5.317   5.616  12.132 -1.0345 -0.3333  0.4917
17141TIP3    H272839   5.417   5.529  12.059 -0.0235  0.8765  0.4195
17142TIP3   OH272840   1.265   6.582  14.842  0.0525  0.1661 -0.1680
17142TIP3    H172841   1.294   6.630  14.920 -3.1589 -0.1631  1.3206
17142TIP3    H272842   1.321   6.614  14.772  1.8859  1.7660  1.9385
17143TIP3   OH272843   3.012   3.770   0.550  0.0384 -0.7433 -0.0297
17143TIP3    H172844   3.004   3.704   0.620 -0.0407  0.2082  0.8642
17143TIP3    H272845   2.938   3.828   0.563  0.4852 -0.0820 -0.4068
17144TIP3   OH272846   2.672   1.473   4.582 -0.0795  0.4360  0.4116
17144TIP3    H172847   2.765   1.466   4.560  0.0730  2.3967  0.2939
17144TIP3    H272848   2.635   1.388   4.558  1.2932  0.3293 -1.4689
17145TIP3   OH272849   0.065   1.183   2.249 -0.3899 -0.5002  0.3635
17145TIP3    H172850   0.101   1.157   2.333 -0.3104 -1.8890 -0.0942
17145TIP3    H272851  -0.030   1.171   2.259 -0.5293  0.8238  0.7578
17146TIP3   OH272852   4.074   3.417  14.468  0.6753  0.3977  0.8532
17146TIP3    H172853   4.025   3.375  14.539  0.2333  1.6107  1.2914
17146TIP3    H272854   4.149   3.457  14.511  1.0134  0.1774  0.4682
17147TIP3   OH272855   3.868   4.049   4.519 -0.2261  0.0315 -0.3919
17147TIP3    H172856   3.840   4.140   4.514 -0.2089  0.0404 -0.3284
17147TIP3    H272857   3.816   4.005   4.451  0.5386  0.2833 -1.1533
17148TIP3   OH272858   5.240   1.488  11.258  0.2484 -0.3441 -0.6963
17148TIP3    H172859   5.296   1.533  11.322  1.2387  0.4679 -2.1216
17148TIP3    H272860   5.241   1.544  11.181 -2.0957 -0.6049 -0.9632
17149TIP3   OH272861   3.701   6.080  16.756 -0.1650  0.3133 -0.1089
17149TIP3    H172862   3.659   6.095  16.841 -1.2271 -0.5629 -0.4597
17149TIP3    H272863   3.634   6.035  16.705  0.5420  0.6647 -1.3503
17150TIP3   OH272864   3.384   6.455  15.461 -0.5045 -0.1224  0.2454
17150TIP3    H172865   3.333   6.420  15.535  0.6817 -0.7329  0.7788
17150TIP3    H272866   3.475   6.437  15.484 -0.1135 -0.0821 -1.2561
17151TIP3   OH272867   6.544   3.950  15.123 -0.1843 -0.3711 -0.1057
17151TIP3    H172868   6.532   4.040  15.092  0.8666 -0.5151 -0.9545
17151TIP3    H272869   6.467   3.903  15.091 -0.8035  0.2561  0.4549
17152TIP3   OH272870   6.655   0.566   4.666 -0.4155 -0.1173  0.1194
17152TIP3    H172871   6.669   0.611   4.582 -0.1485  0.8877  0.7021
17152TIP3    H272872   6.597   0.493   4.644 -1.6147  1.0519 -0.6512
17153TIP3   OH272873   0.721   1.977  11.525  0.5067 -0.2895 -0.5883
17153TIP3    H172874   0.701   1.971  11.432 -0.8762 -1.9074 -0.2096
17153TIP3    H272875   0.740   1.887  11.552  0.5231  0.1076  0.7765
17154TIP3   OH272876   0.368   2.057   5.745  0.2342  0.1674  0.3398
17154TIP3    H172877   0.374   2.003   5.824 -0.0705 -0.4523 -0.0567
17154TIP3    H272878   0.325   2.001   5.681  0.4879  0.6679 -0.2720
17155TIP3   OH272879   3.323   1.662  15.812  0.4539  0.3764  0.2328
17155TIP3    H172880   3.339   1.727  15.881  1.2528 -1.0410  1.4195
17155TIP3    H272881   3.238   1.686  15.775  0.5280  1.8172  0.9547
17156TIP3   OH272882   4.626   4.216  11.482  0.0583  0.2017  0.0093
17156TIP3    H172883   4.713   4.216  11.521  0.3113 -1.0201 -0.5420
17156TIP3    H272884   4.568   4.185  11.552  0.4606 -1.6212 -0.4418
17157TIP3   OH272885   2.556   6.665  17.112  0.1169  0.0124  0.4022
17157TIP3    H172886   2.464   6.686  17.097  0.0580 -1.1414 -0.9155
17157TIP3    H272887   2.592   6.743  17.154 -1.5475  0.3261  1.3061
17158TIP3   OH272888   0.761   0.226  17.210  0.2989  0.1658 -0.1800
17158TIP3    H172889   0.666   0.229  17.197  0.0273 -1.1022  1.3515
17158TIP3    H272890   0.796   0.288  17.146 -1.5766  0.8005 -0.6237
17159TIP3   OH272891   1.734   1.154   4.950  0.4608  0.0911 -0.0858
17159TIP3    H172892   1.647   1.152   4.909 -0.4379  0.4202  1.7219
17159TIP3    H272893   1.741   1.242   4.986  1.0825 -0.2889  0.7284
17160TIP3   OH272894   1.299   3.866   1.526 -0.0448  0.2548  0.1002
17160TIP3    H172895   1.293   3.798   1.593 -1.1714  1.1936  0.9722
17160TIP3    H272896   1.324   3.945   1.574  1.7253  0.3867 -0.9706
17161TIP3   OH272897   2.789   1.776  15.542 -0.4671 -0.1256 -0.0682
17161TIP3    H172898   2.702   1.742  15.521 -2.1402  2.5382  2.1313
17161TIP3    H272899   2.811   1.734  15.625 -0.3593  0.3691  0.1577
17162TIP3   OH272900   2.481   2.049  11.893  0.1363  0.6217 -0.0131
17162TIP3    H172901   2.455   1.984  11.827 -1.5061 -0.6928  1.8880
17162TIP3    H272902   2.575   2.063  11.876  0.3544 -1.6770 -0.9293
17163TIP3   OH272903   1.262   5.747  14.241 -0.0958 -0.1288  0.1182
17163TIP3    H172904   1.209   5.826  14.236 -1.7781 -1.2634 -0.4318
17163TIP3    H272905   1.339   5.773  14.291 -1.0887  1.5988  0.7962
17164TIP3   OH272906   6.740   3.029   3.816  0.3555  0.5709 -0.1079
17164TIP3    H172907   6.704   2.951   3.773  0.9087 -0.2418  0.8949
17164TIP3    H272908   6.726   3.014   3.909  0.1199  1.8499  0.0679
17165TIP3   OH272909   5.640   1.033  15.772  0.4567  0.3315 -0.0189
17165TIP3    H172910   5.607   0.985  15.848 -0.7957 -0.2432 -0.9039
17165TIP3    H272911   5.734   1.015  15.771  0.5225  0.4854  1.4876
17166TIP3   OH272912   3.827   3.461  14.864  0.1880  0.2240 -0.2318
17166TIP3    H172913   3.752   3.405  14.845  0.5497 -0.1177 -0.6660
17166TIP3    H272914   3.808   3.544  14.821 -1.0097  0.9384  1.5951
17167TIP3   OH272915   1.813   3.889  15.053  0.0385  0.8138  0.2294
17167TIP3    H172916   1.757   3.890  15.131  2.9656  0.2517  2.4383
17167TIP3    H272917   1.828   3.797  15.035 -0.4383  0.9493 -0.8956
17168TIP3   OH272918   2.754   1.460   1.792 -0.6728 -0.4377  0.1815
17168TIP3    H172919   2.802   1.401   1.734  0.0621  0.8814 -0.5543
17168TIP3    H272920   2.821   1.516   1.830 -1.4118  0.1529  0.6122
17169TIP3   OH272921   2.108   6.007   4.506  0.3993  0.4980  0.1393
17169TIP3    H172922   2.082   5.917   4.483  0.4693  0.1181  1.4792
17169TIP3    H272923   2.090   6.013   4.600  0.2637  1.9458  0.0232
17170TIP3   OH272924   4.163   5.986   0.706 -0.6498 -0.6548 -0.5260
17170TIP3    H172925   4.079   6.012   0.668 -0.0375 -0.5179 -1.8149
17170TIP3    H272926   4.177   5.897   0.672 -0.3359 -0.7182 -0.2212
17171TIP3   OH272927   5.156   2.756  14.572 -0.1771  0.4754 -0.1913
17171TIP3    H172928   5.126   2.845  14.553  1.0311  0.9424  0.0635
17171TIP3    H272929   5.209   2.764  14.651  1.6238 -0.1296 -1.3211
17172TIP3   OH272930   0.682   4.882  17.217  0.6660 -0.2429  0.1924
17172TIP3    H172931   0.745   4.931  17.270  0.6894 -0.3827  0.2933
17172TIP3    H272932   0.700   4.910  17.127  1.0490 -0.4799  0.1951
17173TIP3   OH272933   0.641   3.821   3.701 -0.1965 -0.0844  0.1517
17173TIP3    H172934   0.551   3.848   3.681 -0.4821 -1.0582  0.0997
17173TIP3    H272935   0.658   3.748   3.641  0.9962  0.7658 -0.5510
17174TIP3   OH272936   1.179   2.605  14.335 -0.3210  0.2978  0.1379
17174TIP3    H172937   1.196   2.601  14.241  0.0242 -1.1297  0.2478
17174TIP3    H272938   1.089   2.635  14.341 -0.9886 -1.4131 -0.7286
17175TIP3   OH272939   5.613   5.612   4.550 -0.4125 -0.1165  0.3966
17175TIP3    H172940   5.602   5.518   4.533 -0.5522 -0.1263  0.5343
17175TIP3    H272941   5.605   5.652   4.464 -0.4310 -0.2244  0.3471
17176TIP3   OH272942   3.140   5.194  13.882  0.1822 -0.3572 -0.0567
17176TIP3    H172943   3.118   5.103  13.900  0.2493 -0.8635 -2.3743
17176TIP3    H272944   3.212   5.189  13.818 -0.3216  1.2949 -0.7830
17177TIP3   OH272945   4.294   2.269  12.463  0.1138  0.3143 -0.3988
17177TIP3    H172946   4.210   2.231  12.487 -0.5588  1.5308 -0.7663
17177TIP3    H272947   4.343   2.197  12.424 -1.4126 -0.0115 -1.7621
17178TIP3   OH272948   4.595   3.345  15.729 -0.2090  0.0379 -0.5493
17178TIP3    H172949   4.640   3.375  15.649  0.6749 -2.7679 -1.1769
17178TIP3    H272950   4.507   3.323  15.700 -0.6038  1.1593 -0.2509
17179TIP3   OH272951   3.282   2.033  11.782  0.4135  0.0984 -0.1895
17179TIP3    H172952   3.271   2.110  11.727 -0.8925  0.3186  0.3534
17179TIP3    H272953   3.207   2.035  11.841  0.5898 -1.3649  0.1059
17180TIP3   OH272954   4.464   0.193   3.527 -0.1576  0.5697  0.0180
17180TIP3    H172955   4.394   0.257   3.537 -0.3245  0.1362  1.7252
17180TIP3    H272956   4.499   0.182   3.615 -1.0884 -2.7752  0.0040
17181TIP3   OH272957   5.490   4.337  13.093 -0.2697  0.3693 -1.1470
17181TIP3    H172958   5.550   4.265  13.115 -0.1309  0.1880 -2.0729
17181TIP3    H272959   5.547   4.410  13.072 -0.4231  1.0183  0.6225
17182TIP3   OH272960   3.168   0.611   2.346  0.6398 -0.4399 -0.0548
17182TIP3    H172961   3.092   0.647   2.301  0.0549  0.1564  1.3972
17182TIP3    H272962   3.235   0.679   2.339  0.7710 -0.6167 -0.5805
17183TIP3   OH272963   6.274   3.693  14.223 -0.3540 -0.1506  0.1941
17183TIP3    H172964   6.360   3.731  14.241 -0.1008 -0.0396 -1.2074
17183TIP3    H272965   6.293   3.612  14.175 -0.8966 -1.9246  2.8572
17184TIP3   OH272966   5.795   0.777   3.679 -0.2845  0.2989 -0.1568
17184TIP3    H172967   5.798   0.840   3.607  1.8737  0.0440 -0.3295
17184TIP3    H272968   5.808   0.831   3.758 -0.3573  0.2956 -0.1423
17185TIP3   OH272969   6.262   1.368  12.209  0.0854  0.3847 -0.2580
17185TIP3    H172970   6.190   1.377  12.147  0.0386 -1.5345 -0.4996
17185TIP3    H272971   6.260   1.449  12.260 -1.6686  0.7371 -0.8588
17186TIP3   OH272972   5.516   3.001   5.316 -0.2195 -0.7093 -0.2416
17186TIP3    H172973   5.553   3.088   5.299 -0.5761 -0.5116 -0.0127
17186TIP3    H272974   5.591   2.942   5.313  0.5721  0.0280  3.0648
17187TIP3   OH272975   1.528   5.387  14.235 -0.0348 -0.1199 -0.2090
17187TIP3    H172976   1.499   5.312  14.288 -0.7705  2.2354  2.8796
17187TIP3    H272977   1.497   5.368  14.147 -1.8863 -2.5588  0.9162
17188TIP3   OH272978   2.389   5.335  14.576 -0.1110  0.2315  0.4480
17188TIP3    H172979   2.332   5.304  14.646 -0.1097  0.2268  0.4479
17188TIP3    H272980   2.474   5.295  14.595  0.3878  1.7691  1.5263
17189TIP3   OH272981   2.270   5.193  12.528 -0.2232 -0.5576 -0.3690
17189TIP3    H172982   2.332   5.181  12.456  0.7426 -0.9090  0.5147
17189TIP3    H272983   2.302   5.135  12.597 -0.8013  0.2230  0.5642
17190TIP3   OH272984   3.720   2.774   2.217  0.3324  0.4450  0.4657
17190TIP3    H172985   3.664   2.851   2.204  0.2021  0.6163  2.0223
17190TIP3    H272986   3.805   2.801   2.182  0.5005  1.5934  1.7072
17191TIP3   OH272987   5.813   5.978   2.370 -0.2256 -0.2962  0.4994
17191TIP3    H172988   5.907   5.976   2.353 -0.5279 -0.4919 -1.2296
17191TIP3    H272989   5.789   6.070   2.360 -0.2020 -0.2172  1.1186
17192TIP3   OH272990   1.784   0.211  16.475 -0.1790 -0.2194  0.0207
17192TIP3    H172991   1.795   0.194  16.568  1.7300 -1.0267 -0.3426
17192TIP3    H272992   1.846   0.153  16.432 -0.6506  0.5458 -1.7345
17193TIP3   OH272993   4.277   5.158   3.886 -0.1242  0.3614  0.1170
17193TIP3    H172994   4.236   5.190   3.805  0.8008  0.7976 -0.1861
17193TIP3    H272995   4.359   5.118   3.857 -0.4991 -0.8558  0.6766
17194TIP3   OH272996   5.071   4.501   4.016  0.5073 -0.3150  0.0822
17194TIP3    H172997   4.982   4.489   3.982  1.0397 -1.3544 -0.9897
17194TIP3    H272998   5.078   4.441   4.090  0.4806 -0.6154 -0.1583
17195TIP3   OH272999   1.418   6.777  17.145 -0.5445 -0.1744 -0.2356
17195TIP3    H173000   1.441   6.860  17.187  0.5207 -0.1978 -0.7615
17195TIP3    H273001   1.480   6.713  17.182 -2.3000 -1.0579  1.2800
17196TIP3   OH273002   2.299   5.433   0.165  0.1104 -0.3087 -0.1452
17196TIP3    H173003   2.302   5.345   0.203 -1.2854 -0.6101 -0.6950
17196TIP3    H273004   2.367   5.432   0.098 -1.3839 -1.7376 -1.7023
17197TIP3   OH273005   1.776   2.194   0.623  0.1576  0.2393 -0.0618
17197TIP3    H173006   1.681   2.187   0.616 -0.1578  2.6111  1.5864
17197TIP3    H273007   1.792   2.230   0.710  2.4855  1.4408 -0.9269
17198TIP3   OH273008   3.528   6.349  13.129  0.0223  0.2239 -0.0466
17198TIP3    H173009   3.451   6.405  13.138 -0.7203 -1.0229  1.6996
17198TIP3    H273010   3.591   6.385  13.192 -0.4311 -0.8306  1.0293
17199TIP3   OH273011   2.193   4.229  12.366 -0.2429  0.6043  0.0443
17199TIP3    H173012   2.110   4.187  12.388  0.4554 -0.2692  1.0486
17199TIP3    H273013   2.218   4.188  12.282 -0.2746  0.0555  0.2993
17200TIP3   OH273014   6.242   4.151   4.121  0.1322  0.3990 -0.0175
17200TIP3    H173015   6.196   4.219   4.172  0.9281 -0.1415  1.4453
17200TIP3    H273016   6.216   4.168   4.031 -0.2223  2.2421  0.4011
17201TIP3   OH273017   3.249   0.325  12.503  0.2388 -0.0129 -0.0985
17201TIP3    H173018   3.155   0.312  12.502  0.1252  0.7661 -0.0123
17201TIP3    H273019   3.269   0.353  12.593  0.4094  0.7623 -0.3695
17202TIP3   OH273020   4.902   4.079  15.046 -0.6703 -0.7253  0.3004
17202TIP3    H173021   4.857   3.994  15.052  1.5889 -1.9370  0.7309
17202TIP3    H273022   4.965   4.068  14.975  1.1877 -0.1697  1.8390
17203TIP3   OH273023   3.110   6.184  12.815 -0.4451 -0.2937 -0.4202
17203TIP3    H173024   3.016   6.181  12.801 -0.3967 -1.3525 -0.5086
17203TIP3    H273025   3.131   6.278  12.810 -1.3848 -0.1062 -1.0849
17204TIP3   OH273026   2.071   4.118   5.558 -0.1995 -0.0392 -0.1475
17204TIP3    H173027   1.982   4.086   5.573  0.1762 -0.1380  2.0076
17204TIP3    H273028   2.062   4.213   5.551 -0.2230  0.1510  2.2179
17205TIP3   OH273029   5.545   5.568   3.729 -0.0750 -0.4658 -0.5691
17205TIP3    H173030   5.486   5.498   3.756 -0.4841  0.3398  0.6669
17205TIP3    H273031   5.591   5.594   3.809  2.4909 -1.5358 -1.6148
17206TIP3   OH273032   5.445   4.847   1.676 -0.6800 -0.0370 -0.0207
17206TIP3    H173033   5.535   4.858   1.647 -1.7139 -1.5444 -4.1667
17206TIP3    H273034   5.417   4.935   1.703  2.1306  0.3318  1.9384
17207TIP3   OH273035   3.766   1.495  16.972  0.2925 -0.6497 -0.0114
17207TIP3    H173036   3.682   1.524  16.937 -0.0452 -0.7319  0.7254
17207TIP3    H273037   3.743   1.433  17.040  0.8987  0.6704  1.4201
17208TIP3   OH273038   2.967   2.480   4.707  0.3236  0.0010  0.9817
17208TIP3    H173039   2.895   2.517   4.657  1.9990 -0.0474 -1.6070
17208TIP3    H273040   2.988   2.546   4.773  0.6244  1.8691 -0.9465
17209TIP3   OH273041   2.598   5.831   1.699 -0.0516  0.0814  0.1120
17209TIP3    H173042   2.587   5.912   1.750 -1.7514 -1.0143  1.5488
17209TIP3    H273043   2.684   5.840   1.658  0.5271  1.8568  1.6427
17210TIP3   OH273044   5.066   5.463   5.200 -0.1284 -0.3880  0.0496
17210TIP3    H173045   5.014   5.395   5.157 -1.4680 -0.3123  1.4803
17210TIP3    H273046   5.013   5.489   5.275  1.8456 -0.0302  1.3515
17211TIP3   OH273047   3.204   4.243   4.075  0.4491  0.2496 -0.0784
17211TIP3    H173048   3.275   4.180   4.090  1.7685  1.6715 -0.1333
17211TIP3    H273049   3.173   4.224   3.987 -0.3096 -1.3963  0.5228
17212TIP3   OH273050   3.612   0.311  13.584 -0.0436 -0.2022  0.6722
17212TIP3    H173051   3.578   0.315  13.494 -0.9319 -1.7358  0.9271
17212TIP3    H273052   3.702   0.345  13.577  0.3794 -1.5970 -1.0339
17213TIP3   OH273053   4.625   1.379  11.860 -0.0509  0.2399 -0.6327
17213TIP3    H173054   4.604   1.462  11.817 -1.0560  0.5322  0.3980
17213TIP3    H273055   4.623   1.400  11.954 -2.9984 -1.5299 -0.2451
17214TIP3   OH273056   3.510   3.885  16.683  0.0157 -0.3868 -0.0960
17214TIP3    H173057   3.499   3.892  16.588  1.7337 -0.0102 -0.2910
17214TIP3    H273058   3.431   3.923  16.719 -1.7094 -2.6219 -1.3791
17215TIP3   OH273059   5.378   3.806  12.603  0.1259  0.1469 -0.1104
17215TIP3    H173060   5.374   3.711  12.601 -0.5485  0.1859 -0.8555
17215TIP3    H273061   5.349   3.833  12.516 -1.2870  1.0837  0.6264
17216TIP3   OH273062   6.411   0.394  17.183 -0.0555 -0.0796 -0.1621
17216TIP3    H173063   6.379   0.340  17.110  1.5441 -0.3108 -0.7134
17216TIP3    H273064   6.332   0.431  17.222 -1.1136 -1.9234 -0.4720
17217TIP3   OH273065   4.647   5.729   1.269  0.0395  1.0896  0.3483
17217TIP3    H173066   4.730   5.764   1.237  0.5085  1.6422  2.1160
17217TIP3    H273067   4.580   5.780   1.223  0.6132 -0.2320 -2.0793
17218TIP3   OH273068   5.067   0.377  13.627  0.1673 -0.0756 -0.6454
17218TIP3    H173069   5.129   0.311  13.596 -0.7236 -0.9038 -0.7124
17218TIP3    H273070   4.984   0.351  13.588 -0.0941  1.3901 -1.0727
17219TIP3   OH273071   0.700   1.367  15.275 -0.2564  0.1582 -0.7044
17219TIP3    H173072   0.613   1.340  15.303 -0.8537  0.4104 -2.3050
17219TIP3    H273073   0.685   1.433  15.207  1.1785  0.4462 -0.7625
17220TIP3   OH273074   3.085   1.660   2.331  0.3783 -0.2395 -0.1590
17220TIP3    H173075   3.080   1.577   2.378  0.6062 -0.5549 -0.6872
17220TIP3    H273076   3.078   1.636   2.239 -0.1936  0.3886 -0.2789
17221TIP3   OH273077   3.000   0.406  16.158  0.8867 -0.6430  0.2784
17221TIP3    H173078   3.076   0.374  16.207  2.6192  0.3199 -1.7034
17221TIP3    H273079   2.993   0.347  16.083 -0.8080 -1.1642  0.8193
17222TIP3   OH273080   6.483   6.359   1.090 -0.5803 -0.5980 -0.4091
17222TIP3    H173081   6.574   6.331   1.080 -0.1454  1.0054 -1.1032
17222TIP3    H273082   6.436   6.318   1.018 -0.6840 -2.5154  0.7205
17223TIP3   OH273083   2.305   1.487   5.543  0.4062 -0.4369  0.4258
17223TIP3    H173084   2.337   1.512   5.630 -1.7186  0.3600  1.0003
17223TIP3    H273085   2.219   1.529   5.536  0.6309 -0.3434 -2.1418
17224TIP3   OH273086   3.505   0.539  11.787 -0.3385  0.0614  0.0623
17224TIP3    H173087   3.496   0.474  11.857 -0.3937  0.1714  0.1564
17224TIP3    H273088   3.471   0.495  11.709 -1.3764  0.3649  0.3464
17225TIP3   OH273089   5.309   6.495   3.424 -0.1286  0.0294 -0.1223
17225TIP3    H173090   5.280   6.435   3.493  0.1910 -0.0505 -0.0567
17225TIP3    H273091   5.313   6.580   3.467  1.2500 -0.2253  0.2820
17226TIP3   OH273092   0.406   0.148   4.401  0.0175  0.3384 -0.1418
17226TIP3    H173093   0.475   0.126   4.338  0.4592  2.3153 -0.3938
17226TIP3    H273094   0.446   0.133   4.487  1.2775  2.8063 -0.2537
17227TIP3   OH273095   0.628   1.405  16.962  0.3066  0.7051  0.4622
17227TIP3    H173096   0.648   1.430  16.871 -2.4946 -1.9450 -0.9817
17227TIP3    H273097   0.582   1.480  16.998  2.3055  2.1693  0.0221
17228TIP3   OH273098   2.917   2.181   0.234 -0.1177 -0.3423 -0.3746
17228TIP3    H173099   2.968   2.207   0.157  0.2604 -0.1842 -0.0761
17228TIP3    H273100   2.920   2.085   0.234  2.1402 -0.3057  0.9188
17229TIP3   OH273101   0.741   5.304   1.061  0.0222 -0.2697 -0.0427
17229TIP3    H173102   0.677   5.251   1.108 -1.8555  1.2226 -0.8325
17229TIP3    H273103   0.821   5.296   1.111 -0.1191 -4.0962 -0.3203
17230TIP3   OH273104   4.212   5.289   4.368  0.2825 -0.0677 -0.3215
17230TIP3    H173105   4.247   5.270   4.281  0.1591  1.9711 -0.8427
17230TIP3    H273106   4.210   5.205   4.412  1.8481 -0.8797 -1.7560
17231TIP3   OH273107   2.142   1.303  11.665 -0.0736 -0.2625 -0.0204
17231TIP3    H173108   2.186   1.325  11.583  0.0987  1.7505  0.5833
17231TIP3    H273109   2.082   1.233  11.642  1.0695 -0.7699 -1.5415
17232TIP3   OH273110   6.686   2.500  12.534  0.3369  0.5944 -0.2345
17232TIP3    H173111   6.656   2.543  12.614  0.7725  0.4192  0.0277
17232TIP3    H273112   6.621   2.431  12.517  1.6502 -1.1366  1.4744
17233TIP3   OH273113   4.317   3.201  12.805  0.2997  0.5049 -0.3133
17233TIP3    H173114   4.226   3.184  12.779  0.3098  1.1534 -0.7938
17233TIP3    H273115   4.359   3.233  12.725  1.0998 -0.3290 -0.2360
17234TIP3   OH273116   5.275   1.080   2.402 -0.2045 -0.4054  0.7483
17234TIP3    H173117   5.349   1.060   2.461 -0.0523 -0.2307  0.6158
17234TIP3    H273118   5.246   0.995   2.371  1.0320 -0.3837 -0.5368
17235TIP3   OH273119   2.209   3.451  16.202 -0.3015 -0.2914  0.7699
17235TIP3    H173120   2.268   3.472  16.129  0.0180  0.2468  1.1693
17235TIP3    H273121   2.127   3.427  16.160 -0.1975  0.2504  0.2315
17236TIP3   OH273122   6.243   5.772   1.640 -0.2048 -0.4502 -0.2639
17236TIP3    H173123   6.184   5.769   1.715 -0.6812 -0.0707 -0.6179
17236TIP3    H273124   6.250   5.865   1.619  1.9105 -0.3325  0.8506
17237TIP3   OH273125   0.585   4.591   3.393 -0.5452 -0.0059 -0.3948
17237TIP3    H173126   0.572   4.686   3.385 -2.2982 -0.1690  0.2424
17237TIP3    H273127   0.497   4.556   3.409  0.0066 -1.8052 -1.1779
17238TIP3   OH273128   1.991   6.731  16.912  0.2539 -0.4480 -0.0728
17238TIP3    H173129   1.952   6.805  16.865 -2.0288 -2.5552 -1.6165
17238TIP3    H273130   1.921   6.666  16.918  1.9747 -2.2138  1.9397
17239TIP3   OH273131   0.846   6.703  15.170  0.3533 -0.1427 -0.3414
17239TIP3    H173132   0.847   6.763  15.096  1.4396  0.0992 -0.1292
17239TIP3    H273133   0.753   6.692  15.190  0.0548 -0.2121 -1.7366
17240TIP3   OH273134   5.554   0.869   5.833  0.6908  0.3779 -0.2726
17240TIP3    H173135   5.613   0.837   5.765  0.2930  0.3839 -0.6244
17240TIP3    H273136   5.545   0.796   5.893 -0.9683 -0.5258 -1.5773
17241TIP3   OH273137   5.350   1.191   3.050 -0.0316 -0.0965  0.0382
17241TIP3    H173138   5.434   1.160   3.084 -0.6660 -1.3192  0.5361
17241TIP3    H273139   5.291   1.116   3.062 -1.0830  0.6137 -0.6838
17242TIP3   OH273140   3.767   1.121  16.046  0.5126  0.5180  0.4339
17242TIP3    H173141   3.831   1.184  16.015 -0.4842  1.1968 -0.2738
17242TIP3    H273142   3.712   1.170  16.107  0.7377 -0.0925  1.1339
17243TIP3   OH273143   3.364   5.518  15.525  0.3293 -0.8977 -0.1583
17243TIP3    H173144   3.373   5.431  15.566  1.2038 -0.7950 -0.1086
17243TIP3    H273145   3.366   5.579  15.599 -0.1611 -0.8285 -0.2042
17244TIP3   OH273146   1.748   0.244  13.826  0.1074 -0.4881  0.0247
17244TIP3    H173147   1.799   0.180  13.777  0.0829 -1.1401  0.8291
17244TIP3    H273148   1.727   0.200  13.909  0.6043  0.7781  0.8446
17245TIP3   OH273149   1.110   0.397  15.869  0.2904 -0.1308 -0.1753
17245TIP3    H173150   1.157   0.444  15.800  1.5800 -0.2200  0.6097
17245TIP3    H273151   1.050   0.461  15.906  0.2227  0.1679 -0.8105
17246TIP3   OH273152   4.610   2.910   5.447  0.6050 -0.0141 -0.3871
17246TIP3    H173153   4.666   2.974   5.491 -1.7153  0.6838  1.6615
17246TIP3    H273154   4.559   2.962   5.385 -1.1407  0.1563  1.1407
17247TIP3   OH273155   2.471   0.840  15.277  0.5423  0.2080  0.1119
17247TIP3    H173156   2.408   0.830  15.348  1.6918 -1.3626  0.9299
17247TIP3    H273157   2.526   0.914  15.303 -0.5036  1.1164 -0.2602
17248TIP3   OH273158   4.995   0.004   0.397 -0.1396 -0.2216  0.1133
17248TIP3    H173159   5.025   0.074   0.338  0.4359  0.0563  0.7361
17248TIP3    H273160   4.922  -0.036   0.350 -0.2470  0.5682 -0.4119
17249TIP3   OH273161   0.306   3.656  13.837  0.9328 -0.0293  0.0843
17249TIP3    H173162   0.236   3.672  13.900  0.3751  0.9359 -0.7728
17249TIP3    H273163   0.288   3.568  13.803  0.1093  0.2397 -0.1790
17250TIP3   OH273164   5.013   5.476   1.011  0.3733 -0.6015 -0.0374
17250TIP3    H173165   5.002   5.569   0.994  0.9506 -0.3584  0.8827
17250TIP3    H273166   5.064   5.444   0.937 -0.3219 -0.3020 -0.6469
17251TIP3   OH273167   0.406   4.468   0.692  0.0265  0.2031  0.2978
17251TIP3    H173168   0.333   4.509   0.646 -1.2535 -0.2179  1.9068
17251TIP3    H273169   0.365   4.407   0.753  1.7474 -0.4174  0.8768
17252TIP3   OH273170   5.781   0.801  13.023 -0.0528 -0.0387  0.1702
17252TIP3    H173171   5.865   0.812  12.980  0.0622 -1.9372 -0.1069
17252TIP3    H273172   5.785   0.861  13.098  0.4709  1.8824 -1.3485
17253TIP3   OH273173   2.556   2.721  15.157  0.1365 -0.4588  0.0061
17253TIP3    H173174   2.468   2.754  15.173  0.3680 -0.6279  1.6647
17253TIP3    H273175   2.594   2.784  15.096 -0.8539  0.0310 -0.1192
17254TIP3   OH273176   2.220   5.307   2.863  0.4248 -0.2362 -0.2762
17254TIP3    H173177   2.168   5.228   2.846 -0.1210 -0.1856  1.0955
17254TIP3    H273178   2.186   5.340   2.946  2.0872  0.2776  0.2085
17255TIP3   OH273179   0.569   1.240   5.650  0.5705 -0.1080  0.1282
17255TIP3    H173180   0.530   1.154   5.661  1.5648 -0.3438  1.9128
17255TIP3    H273181   0.628   1.231   5.576 -0.7522 -0.4352 -0.9135
17256TIP3   OH273182   2.079   0.474  15.612  0.0264 -0.3672 -0.8798
17256TIP3    H173183   2.113   0.477  15.702  2.7492 -0.8087 -1.8477
17256TIP3    H273184   2.063   0.565  15.590  0.1303 -0.1831 -0.2131
17257TIP3   OH273185   2.565   0.018  15.848 -0.0656 -0.6324  0.4741
17257TIP3    H173186   2.604  -0.009  15.765 -1.8425 -1.9564  0.0448
17257TIP3    H273187   2.529  -0.062  15.885 -0.0063  0.0924  2.1386
17258TIP3   OH273188   3.013   2.328   2.901  0.1463 -0.2280 -0.4610
17258TIP3    H173189   2.933   2.295   2.941 -0.0228 -1.6023 -1.8565
17258TIP3    H273190   3.066   2.250   2.887 -0.4967 -0.0671 -4.3595
17259TIP3   OH273191   2.755   3.596   4.859 -0.2937 -0.1686  0.3627
17259TIP3    H173192   2.701   3.629   4.931  0.2553  0.4897  0.4723
17259TIP3    H273193   2.743   3.501   4.863 -1.2322 -0.0522  0.5503
17260TIP3   OH273194   6.208   4.745  15.678 -0.0062 -0.6280  0.7756
17260TIP3    H173195   6.163   4.709  15.754 -0.8576 -0.0622  0.5577
17260TIP3    H273196   6.267   4.811  15.714  1.0755 -1.7740  1.1160
17261TIP3   OH273197   0.221   5.742  11.505 -0.5177 -0.0859  0.0058
17261TIP3    H173198   0.133   5.746  11.544 -1.5082 -1.5430 -1.9417
17261TIP3    H273199   0.209   5.778  11.416  1.7977  3.6929  1.1317
17262TIP3   OH273200   2.937   4.186  12.242 -0.7749  0.1676  0.1828
17262TIP3    H173201   3.008   4.175  12.304 -1.0352  1.2428  0.6818
17262TIP3    H273202   2.858   4.161  12.290 -0.9309  0.6232  0.1696
17263TIP3   OH273203   6.254   3.149  10.328  0.1635  0.1239 -0.0459
17263TIP3    H173204   6.168   3.110  10.314  0.0844 -0.3284  1.5589
17263TIP3    H273205   6.288   3.166  10.240 -1.9140  1.0853 -0.6932
17264TIP3   OH273206   1.121   6.600  13.178  0.4068  0.1983  0.0562
17264TIP3    H173207   1.056   6.529  13.184 -0.9933  1.4603  0.1076
17264TIP3    H273208   1.144   6.620  13.268 -1.4243  1.7923  0.1999
17265TIP3   OH273209   3.647   1.274   1.511 -0.8117  0.2168 -0.4315
17265TIP3    H173210   3.634   1.284   1.417  0.8402  0.3336 -0.6450
17265TIP3    H273211   3.634   1.180   1.527  0.1554 -0.0139 -0.9725
17266TIP3   OH273212   1.345   6.098   3.495 -0.5000  0.5251  0.1199
17266TIP3    H173213   1.360   6.068   3.585  1.8521  1.1949 -0.0217
17266TIP3    H273214   1.271   6.159   3.502 -1.8785 -1.1938  1.2161
17267TIP3   OH273215   0.060   5.663  16.104 -0.4719 -0.6874 -0.2062
17267TIP3    H173216   0.107   5.645  16.185 -0.9213  0.3603  0.2977
17267TIP3    H273217   0.121   5.637  16.035  0.7686  0.4140  0.4406
17268TIP3   OH273218   4.923   3.536  14.831 -0.0529  0.1375 -0.0537
17268TIP3    H173219   4.835   3.515  14.863 -0.3572  2.4291  0.7022
17268TIP3    H273220   4.911   3.552  14.738 -0.3361 -0.0646 -0.0537
17269TIP3   OH273221   2.558   2.484   2.330 -0.2552  0.1428  0.3710
17269TIP3    H173222   2.568   2.538   2.252  0.5554 -1.3596 -0.5950
17269TIP3    H273223   2.635   2.504   2.383  0.2592 -0.3811 -0.1788
17270TIP3   OH273224   5.306   5.221   0.066  0.1719  0.2413 -0.2044
17270TIP3    H173225   5.345   5.134   0.070  2.1399  1.0437 -1.6569
17270TIP3    H273226   5.245   5.216  -0.008 -0.4335 -0.1835  0.3189
17271TIP3   OH273227   2.515   5.328   2.910  0.0720 -0.3881  0.4295
17271TIP3    H173228   2.509   5.394   2.979 -0.7298 -2.5089  2.4423
17271TIP3    H273229   2.429   5.330   2.867  0.5351  0.8525 -0.4904
17272TIP3   OH273230   4.409   5.861  16.092  0.1458 -0.2733  0.0115
17272TIP3    H173231   4.419   5.816  16.008  0.1044 -1.8550  0.8407
17272TIP3    H273232   4.354   5.937  16.072 -2.5648 -2.3835 -0.7695
17273TIP3   OH273233   0.861   1.372  11.694 -0.7340  0.1473 -0.4959
17273TIP3    H173234   0.884   1.303  11.755 -1.3121 -0.5924 -1.1152
17273TIP3    H273235   0.860   1.452  11.747  2.8015  0.1790 -0.3174
17274TIP3   OH273236   0.925   0.514   3.116  0.7092 -0.0270  0.3540
17274TIP3    H173237   0.888   0.428   3.135 -0.0302  0.5490  1.6054
17274TIP3    H273238   0.849   0.569   3.096  1.2106  0.2267 -0.8905
17275TIP3   OH273239   5.916   3.899   3.043  0.7218  0.2871  0.2188
17275TIP3    H173240   5.948   3.829   2.986  1.6086 -1.4392  2.7695
17275TIP3    H273241   5.882   3.854   3.120 -0.2080  2.5917  1.1991
17276TIP3   OH273242   2.443   0.915  11.528  1.1746 -0.6844  0.3126
17276TIP3    H173243   2.518   0.869  11.491  2.2394  0.3541  1.1651
17276TIP3    H273244   2.411   0.970  11.457  1.3851 -0.9114  0.0403
17277TIP3   OH273245   5.214   2.241   3.070  0.8648  0.7769 -0.4691
17277TIP3    H173246   5.286   2.215   3.127 -1.1813 -1.2147  1.2961
17277TIP3    H273247   5.217   2.179   2.998  0.0829 -0.1805  0.3155
17278TIP3   OH273248   2.646   2.461  11.136 -0.0969 -0.1984  0.1782
17278TIP3    H173249   2.684   2.384  11.093  1.6613  0.6582  0.1563
17278TIP3    H273250   2.557   2.434  11.157  1.0355 -2.9116  1.8844
17279TIP3   OH273251   3.571   0.172   0.365 -0.3482 -0.3849  0.4881
17279TIP3    H173252   3.476   0.164   0.366 -0.4236  0.4880  1.9865
17279TIP3    H273253   3.589   0.244   0.305 -0.6050 -0.7811 -0.0685
17280TIP3   OH273254   6.328   3.658  11.191 -0.3362 -0.2778 -0.1521
17280TIP3    H173255   6.305   3.666  11.283  1.5958 -0.3863  0.3618
17280TIP3    H273256   6.292   3.574  11.164 -2.5735  0.5962 -0.0334
17281TIP3   OH273257   5.886   3.654  14.699  0.3059 -0.1518 -0.2550
17281TIP3    H173258   5.820   3.719  14.673  0.7322  0.8670  1.1648
17281TIP3    H273259   5.843   3.570  14.684 -0.7469  0.4700 -0.8519
17282TIP3   OH273260   5.073   4.513  14.893 -0.0449  0.0321  0.2492
17282TIP3    H173261   5.121   4.533  14.812 -1.7689 -0.2982 -0.8790
17282TIP3    H273262   5.141   4.492  14.956  1.3173 -0.1742 -1.2460
17283TIP3   OH273263   2.748   0.888   3.649  0.0920  0.2439  0.6140
17283TIP3    H173264   2.837   0.913   3.675  0.6777 -0.1772 -0.9369
17283TIP3    H273265   2.741   0.915   3.558 -1.0629 -0.5741  0.4535
17284TIP3   OH273266   1.577   2.772  14.217 -0.2563  0.5836 -0.3064
17284TIP3    H173267   1.635   2.844  14.243 -1.3184  1.0532  0.8456
17284TIP3    H273268   1.622   2.693  14.247  0.5252  0.8298 -0.8253
17285TIP3   OH273269   2.532   5.488   6.203 -0.4482  0.0824  0.0430
17285TIP3    H173270   2.550   5.563   6.146 -1.3378 -0.8030 -1.4203
17285TIP3    H273271   2.588   5.503   6.280  2.4932  0.1360 -2.0180
17286TIP3   OH273272   1.909   3.560  15.466 -0.0332  0.1746 -0.3844
17286TIP3    H173273   1.824   3.604  15.458 -0.2605 -0.6425 -3.0718
17286TIP3    H273274   1.898   3.500  15.540 -0.6901  2.3998  1.3861
17287TIP3   OH273275   5.508   1.771   1.544  0.1696 -0.2768  0.1358
17287TIP3    H173276   5.559   1.852   1.546 -2.4832  1.4504 -0.1824
17287TIP3    H273277   5.495   1.754   1.450 -0.4016 -0.3254  0.2231
17288TIP3   OH273278   1.461   4.300   5.182  0.0802  0.8040  0.2482
17288TIP3    H173279   1.483   4.213   5.149  2.4704  1.3985  0.2219
17288TIP3    H273280   1.372   4.315   5.151  0.4837 -0.6648 -1.7327
17289TIP3   OH273281   3.619   3.989   5.265 -0.1092 -0.4696 -0.5176
17289TIP3    H173282   3.643   4.052   5.333  0.8630 -0.2635 -1.0460
17289TIP3    H273283   3.586   3.913   5.314 -0.2507  0.0176  0.1522
17290TIP3   OH273284   0.384   5.134   4.992 -0.0956  0.1487  0.5605
17290TIP3    H173285   0.328   5.068   5.033 -0.1274 -1.4402 -1.9520
17290TIP3    H273286   0.373   5.120   4.898  2.6594  1.4192  0.0045
17291TIP3   OH273287   3.707   5.196  13.564  0.1897  0.3517 -0.1320
17291TIP3    H173288   3.613   5.177  13.569 -0.2397  2.0327 -1.2353
17291TIP3    H273289   3.711   5.285  13.528  2.1968  0.5273  0.4836
17292TIP3   OH273290   0.794   2.315   2.687 -0.0910  0.5724 -0.0760
17292TIP3    H173291   0.775   2.223   2.706 -1.3897  0.4190 -1.9932
17292TIP3    H273292   0.710   2.352   2.659  0.5814  2.1453 -0.0831
17293TIP3   OH273293   0.878   0.009   5.065 -0.5886  0.2729 -0.6547
17293TIP3    H173294   0.803   0.065   5.086 -0.8821 -0.4200  0.1672
17293TIP3    H273295   0.868  -0.067   5.122  0.7169  0.1527 -0.5684
17294TIP3   OH273296   3.009   6.234   5.127  0.0644 -0.2430 -0.4576
17294TIP3    H173297   3.072   6.276   5.186 -3.6003  1.0657  2.7052
17294TIP3    H273298   2.990   6.302   5.062  1.8196 -0.6484 -1.4437
17295TIP3   OH273299   6.099   2.921   1.641 -0.1619  0.8008 -0.0774
17295TIP3    H173300   6.191   2.923   1.665 -0.4292 -1.1634  1.2638
17295TIP3    H273301   6.057   2.873   1.712 -1.7957 -0.5782 -1.9044
17296TIP3   OH273302   2.992   1.313   5.642 -0.0700  0.0556  0.1938
17296TIP3    H173303   2.900   1.308   5.668  0.1002  1.6335  1.1708
17296TIP3    H273304   3.039   1.323   5.725  0.9139  0.2060 -0.3753
17297TIP3   OH273305   1.681   1.641  11.059  0.5624 -0.1568 -0.3058
17297TIP3    H173306   1.633   1.581  11.117  1.0464 -0.9858 -0.7482
17297TIP3    H273307   1.614   1.680  11.004  0.4526 -1.9474 -1.5002
17298TIP3   OH273308   3.814   0.626  14.737 -0.3071  0.2731  0.6197
17298TIP3    H173309   3.818   0.538  14.698 -0.6389  0.6380 -0.2490
17298TIP3    H273310   3.906   0.652  14.745 -0.2415  0.3967 -0.4068
17299TIP3   OH273311   2.608   4.820  15.849  0.4204 -0.3668 -0.4256
17299TIP3    H173312   2.586   4.834  15.941  0.3844 -1.2532 -0.2939
17299TIP3    H273313   2.633   4.728  15.844  1.1316 -0.1430 -1.1679
17300TIP3   OH273314   2.536   3.479  14.175 -0.2829  0.0091  0.0425
17300TIP3    H173315   2.542   3.461  14.269 -1.7513  0.8520  0.3113
17300TIP3    H273316   2.443   3.474  14.156  0.0895 -0.9732 -1.5518
17301TIP3   OH273317   6.363   3.924  12.906  0.0672 -0.4588  0.7089
17301TIP3    H173318   6.454   3.913  12.934  0.2126  0.1433  0.4559
17301TIP3    H273319   6.359   4.010  12.865 -0.1171 -1.3776 -1.2728
17302TIP3   OH273320   2.193   2.169   3.158  0.0563 -1.1956  0.3951
17302TIP3    H173321   2.171   2.255   3.194  1.6121 -0.2152 -0.9309
17302TIP3    H273322   2.116   2.144   3.107 -0.5643 -0.7914  1.1216
17303TIP3   OH273323   2.382   1.534  12.771  0.2203 -0.2381 -0.8257
17303TIP3    H173324   2.304   1.522  12.826 -0.2357 -0.8096 -1.5842
17303TIP3    H273325   2.454   1.541  12.833 -0.5218  1.0280 -0.0871
17304TIP3   OH273326   1.485   4.516   2.625  0.1233 -0.0221 -0.4736
17304TIP3    H173327   1.425   4.505   2.698 -0.1046  1.5589 -0.4010
17304TIP3    H273328   1.456   4.452   2.560 -2.2311  1.3415 -0.8145
17305TIP3   OH273329   4.780   0.720   4.367  0.3553 -0.6805  0.0961
17305TIP3    H173330   4.873   0.713   4.346  0.2786 -0.5435 -0.2989
17305TIP3    H273331   4.767   0.659   4.440  0.7303 -0.7871  0.0741
17306TIP3   OH273332   6.702   5.661   1.716  0.4647 -0.2096 -0.2394
17306TIP3    H173333   6.692   5.601   1.790  1.1570 -1.5315 -1.1785
17306TIP3    H273334   6.739   5.606   1.646 -0.1444  1.0150 -1.5453
17307TIP3   OH273335   3.166   2.232  12.534  0.1849  0.6641  0.0043
17307TIP3    H173336   3.220   2.298  12.491  0.1286  0.3589 -0.5340
17307TIP3    H273337   3.091   2.220  12.476  1.2243 -1.4071 -0.9747
17308TIP3   OH273338   5.378   5.081   4.948  0.4433 -0.5438  0.3433
17308TIP3    H173339   5.381   4.987   4.928 -0.2279 -0.5806  0.4277
17308TIP3    H273340   5.322   5.118   4.880  0.5210 -0.2375  0.4450
17309TIP3   OH273341   1.979   1.250  15.426 -0.0865 -0.1421 -0.5355
17309TIP3    H173342   1.980   1.216  15.515 -0.4514  0.2140 -0.3912
17309TIP3    H273343   1.918   1.325  15.430  0.6086  0.4470 -0.8641
17310TIP3   OH273344   3.361   0.207  12.078 -0.0639  0.2707 -0.1391
17310TIP3    H173345   3.419   0.173  12.009  0.7393  0.7553  0.2958
17310TIP3    H273346   3.313   0.278  12.036  0.8763  0.9758 -0.0298
17311TIP3   OH273347   1.256   5.970  15.263 -0.3884 -0.0566  0.5024
17311TIP3    H173348   1.265   5.896  15.323 -2.0044  1.5010  2.7476
17311TIP3    H273349   1.172   5.955  15.218  0.7041 -1.0964 -1.2613
17312TIP3   OH273350   1.849   6.669  16.625  0.1196  0.9773  0.4267
17312TIP3    H173351   1.938   6.662  16.658  0.2199  1.2247  0.2135
17312TIP3    H273352   1.806   6.733  16.682  0.1530  1.0473  0.3742
17313TIP3   OH273353   3.189   0.861   4.178  0.2624  0.3113  0.5836
17313TIP3    H173354   3.203   0.852   4.272  0.7962 -0.3164  0.4407
17313TIP3    H273355   3.165   0.773   4.149 -1.7201  0.8659  0.4395
17314TIP3   OH273356   2.196   2.252  10.665  0.0636  0.4510 -0.3587
17314TIP3    H173357   2.231   2.331  10.707 -0.9195  0.3519  0.6465
17314TIP3    H273358   2.102   2.255  10.681  0.0664 -1.1131 -0.0003
17315TIP3   OH273359   1.823   5.833  13.416 -0.3495  0.6231  0.2952
17315TIP3    H173360   1.897   5.798  13.366  0.4749  1.2645  1.0383
17315TIP3    H273361   1.781   5.755  13.453  0.8872  0.3250  1.1337
17316TIP3   OH273362   6.319   1.056   5.419  0.2260 -0.4181  0.3557
17316TIP3    H173363   6.275   0.988   5.471  0.5400 -1.9584 -1.3335
17316TIP3    H273364   6.255   1.128   5.415  0.1662 -0.2905  2.7623
17317TIP3   OH273365   5.495   0.788  13.071 -0.3533  0.1111 -0.2134
17317TIP3    H173366   5.459   0.759  12.987 -0.8919 -2.5914  0.8834
17317TIP3    H273367   5.589   0.796  13.055 -0.6146  0.9805 -1.4161
17318TIP3   OH273368   2.436   1.158   4.286 -0.1854 -0.3311  0.2291
17318TIP3    H173369   2.366   1.163   4.222  0.4737  2.0797 -0.3573
17318TIP3    H273370   2.392   1.165   4.371 -0.8168 -0.8931 -0.0459
17319TIP3   OH273371   3.258   0.301  12.811 -0.2493 -0.3859  0.3851
17319TIP3    H173372   3.277   0.209  12.831 -1.4745 -0.4188  1.4542
17319TIP3    H273373   3.268   0.346  12.895 -0.3108  0.3550  0.0001
17320TIP3   OH273374   3.485   0.826   0.499  0.0897  0.1966  0.1026
17320TIP3    H173375   3.469   0.921   0.502  3.3294  0.8469 -0.6049
17320TIP3    H273376   3.449   0.798   0.415 -1.0655  0.7438  0.4013
17321TIP3   OH273377   1.520   4.685  13.894  0.1297  0.2353  0.2315
17321TIP3    H173378   1.546   4.642  13.975  0.8487  1.2690  0.5580
17321TIP3    H273379   1.588   4.751  13.879  0.1519 -0.1339 -1.3620
17322TIP3   OH273380   6.263   4.128   1.143 -0.0010  0.8858  0.0359
17322TIP3    H173381   6.222   4.093   1.064  0.3965  1.4301 -0.4253
17322TIP3    H273382   6.244   4.064   1.211  0.1913  0.0862 -0.6493
17323TIP3   OH273383   4.822   6.305  14.369 -0.1659 -0.3852  0.3075
17323TIP3    H173384   4.819   6.255  14.288  0.0937  0.8949 -0.5068
17323TIP3    H273385   4.734   6.341  14.379 -0.7869 -2.2640  1.7083
17324TIP3   OH273386   2.137   3.319  14.708  0.4284  0.1348 -0.4969
17324TIP3    H173387   2.106   3.385  14.647  1.1712  0.3326 -0.6721
17324TIP3    H273388   2.208   3.363  14.756 -0.8963  0.3677  1.2976
17325TIP3   OH273389   3.467   3.723   2.749 -0.0265  0.1779 -0.3167
17325TIP3    H173390   3.445   3.709   2.657  0.3033 -0.0857 -0.3564
17325TIP3    H273391   3.406   3.667   2.798  1.9808 -2.2259 -0.5149
17326TIP3   OH273392   1.090   2.731  11.900  0.0625 -0.0506 -0.2888
17326TIP3    H173393   1.080   2.809  11.954 -0.5527 -0.3518  0.0372
17326TIP3    H273394   1.011   2.679  11.917 -0.7982  0.4820 -2.5292
17327TIP3   OH273395   3.753   5.621   0.408 -0.1236 -0.2735 -0.2082
17327TIP3    H173396   3.735   5.704   0.452  0.2494 -0.1337 -0.3113
17327TIP3    H273397   3.682   5.563   0.434  0.9878 -0.7181  1.9188
17328TIP3   OH273398   0.149   4.783   1.917  0.3731  0.0119  0.3815
17328TIP3    H173399   0.069   4.772   1.867  0.0003  1.1912  0.7228
17328TIP3    H273400   0.171   4.875   1.909  0.6792  0.0763  1.8185
17329TIP3   OH273401   3.917   0.316  13.227 -0.3979 -0.4901  0.0746
17329TIP3    H173402   4.001   0.324  13.182 -1.1627  0.1045 -1.2926
17329TIP3    H273403   3.880   0.405  13.224 -2.0563 -1.2042 -1.3292
17330TIP3   OH273404   1.786   1.403   4.333  1.0329  0.5306  0.3307
17330TIP3    H173405   1.743   1.327   4.294  1.7205  0.7795 -0.9476
17330TIP3    H273406   1.880   1.383   4.328  1.1687  1.0191  0.9034
17331TIP3   OH273407   3.559   2.679  13.364  0.0267  0.3373  0.0280
17331TIP3    H173408   3.571   2.713  13.275 -0.4863  1.2813  0.3114
17331TIP3    H273409   3.644   2.689  13.405  0.2308  0.0233 -0.3183
17332TIP3   OH273410   3.124   1.412   5.431  0.1194 -0.0377 -0.2723
17332TIP3    H173411   3.092   1.392   5.519 -1.7844  1.0680 -0.6812
17332TIP3    H273412   3.110   1.332   5.381  0.6118 -0.4643  0.2677
17333TIP3   OH273413   1.589   3.089   6.084  0.4341 -0.4404 -0.5097
17333TIP3    H173414   1.685   3.084   6.078  0.7468  1.3315  2.1198
17333TIP3    H273415   1.558   3.011   6.038  3.2280 -2.4256  0.7886
17334TIP3   OH273416   3.915   0.429   2.489 -0.6305  0.1149 -0.1652
17334TIP3    H173417   3.992   0.376   2.467 -1.7239 -2.0562  1.0939
17334TIP3    H273418   3.944   0.519   2.475  1.5782 -0.7400 -1.4485
17335TIP3   OH273419   3.899   1.016   5.398  0.0185  0.1717  0.1707
17335TIP3    H173420   3.853   1.091   5.437 -0.9735  0.5486 -1.6460
17335TIP3    H273421   3.842   0.941   5.415  1.0414 -0.2327  2.0455
17336TIP3   OH273422   5.859   2.679   0.054 -0.3952 -1.0864 -0.1551
17336TIP3    H173423   5.790   2.697   0.119  0.1413  0.9041 -0.1043
17336TIP3    H273424   5.941   2.694   0.101 -0.0103  0.6724 -1.3732
17337TIP3   OH273425   4.951   0.491  17.160  0.3317 -0.0695  0.0355
17337TIP3    H173426   4.950   0.464  17.068  0.0617  0.4225 -0.1107
17337TIP3    H273427   4.860   0.482  17.189  0.1822  0.9184 -0.0935
17338TIP3   OH273428   1.698   3.720  15.382 -0.4025 -0.6797 -0.5466
17338TIP3    H173429   1.697   3.799  15.329  1.7970  0.3963  0.9156
17338TIP3    H273430   1.640   3.740  15.456  2.4247  0.8259  1.4037
17339TIP3   OH273431   3.468   4.638  12.685 -0.7684 -0.0809 -0.6470
17339TIP3    H173432   3.391   4.603  12.731  0.1457  1.1711  1.9621
17339TIP3    H273433   3.519   4.560  12.661 -1.5966 -0.8039 -0.1002
17340TIP3   OH273434   3.738   5.872  15.883 -0.2399 -0.0338 -0.1949
17340TIP3    H173435   3.746   5.966  15.902  1.1221  0.1094 -1.4021
17340TIP3    H273436   3.759   5.865  15.790  0.8057 -1.6909  0.1558
17341TIP3   OH273437   5.127   2.332   5.507  0.2586  0.0143 -0.1090
17341TIP3    H173438   5.154   2.422   5.489  0.8095 -0.2249 -0.4892
17341TIP3    H273439   5.101   2.333   5.599  2.0032  0.1552  0.3962
17342TIP3   OH273440   0.848   5.311  13.664 -0.5832  0.4804  0.1553
17342TIP3    H173441   0.878   5.271  13.746 -0.2303 -0.6592 -0.5145
17342TIP3    H273442   0.828   5.236  13.607 -3.1828  1.2087  0.0353
17343TIP3   OH273443   1.452   4.053  16.043  0.2810  0.0496 -0.3777
17343TIP3    H173444   1.366   4.094  16.058  0.5362  0.2791  0.4769
17343TIP3    H273445   1.433   3.959  16.039 -0.2577  0.2135 -1.9986
17344TIP3   OH273446   3.071   3.892  13.283 -0.4920 -0.0454  0.0641
17344TIP3    H173447   2.990   3.936  13.259 -0.6619  0.3845  1.3795
17344TIP3    H273448   3.066   3.882  13.379  1.4321  0.9001  0.2936
17345TIP3   OH273449   2.999   5.672   5.791 -0.1549 -0.2081  0.6100
17345TIP3    H173450   2.940   5.740   5.757  1.2953 -0.0219 -1.5959
17345TIP3    H273451   3.044   5.714   5.864 -1.0180  0.4145  0.7941
17346TIP3   OH273452   1.688   1.077   4.553  0.5414  0.9097  0.6570
17346TIP3    H173453   1.677   0.983   4.545  0.7534  1.1017 -2.6698
17346TIP3    H273454   1.783   1.090   4.551  0.4843  1.2561  0.1912
17347TIP3   OH273455   0.445   6.466  12.998  0.1484  0.2788 -0.0633
17347TIP3    H173456   0.349   6.462  12.992 -0.0304  2.0268  1.2803
17347TIP3    H273457   0.475   6.432  12.914 -1.6992  2.3467 -1.6200
17348TIP3   OH273458   5.699   4.181  15.525 -0.3944 -0.0253 -0.4330
17348TIP3    H173459   5.628   4.171  15.588 -0.2252  1.2290 -0.0301
17348TIP3    H273460   5.670   4.252  15.468 -0.1152 -0.5028 -1.1814
17349TIP3   OH273461   1.679   0.254  15.735 -0.7994  0.2543  0.6922
17349TIP3    H173462   1.712   0.308  15.808  0.2896  2.0744 -1.0707
17349TIP3    H273463   1.751   0.255  15.672 -1.0401 -2.7777  0.3219
17350TIP3   OH273464   6.518   2.214  15.800  0.1825  0.1053 -0.1779
17350TIP3    H173465   6.605   2.224  15.759 -1.2342  2.4245 -2.7787
17350TIP3    H273466   6.468   2.289  15.769 -2.7387 -1.0916  1.4409
17351TIP3   OH273467   4.955   3.681  14.620  0.2597 -0.3709  0.0328
17351TIP3    H173468   5.043   3.712  14.599  0.1677  0.7664  1.2731
17351TIP3    H273469   4.900   3.712  14.547  0.6902 -0.1404 -0.1920
17352TIP3   OH273470   5.239   4.600  13.538 -0.1483 -0.3658 -0.6057
17352TIP3    H173471   5.144   4.613  13.528 -0.1990 -0.7876 -0.6909
17352TIP3    H273472   5.248   4.506  13.552  0.3768 -0.5144 -1.9180
17353TIP3   OH273473   2.349   4.829  17.098 -0.1727  0.0472 -0.1047
17353TIP3    H173474   2.346   4.751  17.042  2.1650 -0.6339  0.6720
17353TIP3    H273475   2.423   4.880  17.063  1.1287 -0.2507  2.1418
17354TIP3   OH273476   5.876   0.223  11.050 -0.0679 -0.4545  0.4024
17354TIP3    H173477   5.949   0.220  10.987 -1.0114  2.9423 -0.9650
17354TIP3    H273478   5.814   0.285  11.011 -1.4182  0.4736  3.9194
17355TIP3   OH273479   5.036   1.458   5.542  0.8053 -0.3279  0.1648
17355TIP3    H173480   5.018   1.418   5.457  0.5818  2.3616 -1.1163
17355TIP3    H273481   5.130   1.478   5.540  1.3050 -2.3956  1.5381
17356TIP3   OH273482   6.017   3.553  13.098 -1.0473 -0.2538 -0.1725
17356TIP3    H173483   5.944   3.509  13.055 -1.1986  1.2172 -1.4468
17356TIP3    H273484   6.075   3.482  13.126 -1.7923 -1.2994 -1.2711
17357TIP3   OH273485   5.503   2.935  16.102 -0.0064  0.5014 -0.5190
17357TIP3    H173486   5.431   2.965  16.046 -0.6043  0.5541  0.2599
17357TIP3    H273487   5.476   2.848  16.131  0.1255  0.6202 -0.0309
17358TIP3   OH273488   5.892   1.417   4.489  0.4273 -0.4097 -0.9220
17358TIP3    H173489   5.939   1.336   4.471 -0.3708 -0.9920 -0.3910
17358TIP3    H273490   5.960   1.477   4.522  0.6474 -1.5185  0.6531
17359TIP3   OH273491   1.949   6.695  11.259 -0.3008  0.0069  0.2109
17359TIP3    H173492   1.964   6.612  11.214 -0.5155  0.8943 -1.5546
17359TIP3    H273493   1.890   6.674  11.331  1.6402 -1.8085  1.3348
17360TIP3   OH273494   2.975   0.398  12.450 -0.1410  0.1570 -0.2206
17360TIP3    H173495   2.887   0.385  12.414  0.3193 -0.8554 -0.9755
17360TIP3    H273496   2.971   0.358  12.537 -0.9245  1.6278  0.4444
17361TIP3   OH273497   0.379   5.213   2.904  0.0961 -0.1508  0.7678
17361TIP3    H173498   0.310   5.155   2.936  0.2520  0.4245  2.1825
17361TIP3    H273499   0.333   5.294   2.881 -0.2244 -1.0514 -1.8829
17362TIP3   OH273500   6.373   6.718  16.937  0.1050  0.0973  0.3212
17362TIP3    H173501   6.441   6.676  16.989 -1.6814  0.3504  2.9767
17362TIP3    H273502   6.291   6.685  16.973 -1.2199  1.2595 -1.5267
17363TIP3   OH273503   3.015   0.619   1.848 -0.0661  0.4311  0.2836
17363TIP3    H173504   3.049   0.566   1.776 -0.2971 -0.8814  1.1237
17363TIP3    H273505   3.072   0.696   1.851 -1.0124  1.3187 -2.3283
17364TIP3   OH273506   2.702   2.175   3.477  0.0480 -0.3598  0.0548
17364TIP3    H173507   2.775   2.156   3.419  0.1861 -0.4816  0.2683
17364TIP3    H273508   2.740   2.177   3.565 -0.1309 -0.0296  0.1282
17365TIP3   OH273509   6.600   1.792   0.596  0.1649 -0.0777  0.2805
17365TIP3    H173510   6.682   1.745   0.584  0.7703  1.1819 -0.6631
17365TIP3    H273511   6.548   1.771   0.519  0.0773  0.0857  0.2940
17366TIP3   OH273512   0.878   4.189  12.635 -0.6329 -0.2513 -0.5623
17366TIP3    H173513   0.868   4.094  12.641 -0.1102 -0.3190 -0.7816
17366TIP3    H273514   0.884   4.206  12.541 -0.1391 -0.0565 -0.4952
17367TIP3   OH273515   5.231   0.137   0.784 -0.2946 -0.5615 -0.5885
17367TIP3    H173516   5.262   0.152   0.695  0.8384 -0.1414 -0.1291
17367TIP3    H273517   5.297   0.079   0.823 -1.2034 -1.3975 -0.2712
17368TIP3   OH273518   6.498   6.446   5.680  0.7030 -0.1886  0.0316
17368TIP3    H173519   6.412   6.440   5.639  2.4918  0.6240 -4.0666
17368TIP3    H273520   6.530   6.533   5.655  3.4486 -1.1871 -0.0874
17369TIP3   OH273521   4.350   1.300  13.026  0.4975 -0.0362 -0.2907
17369TIP3    H173522   4.419   1.279  13.089 -2.0173 -1.4666  2.1004
17369TIP3    H273523   4.290   1.226  13.031 -1.6283  1.5417 -1.7240
17370TIP3   OH273524   0.091   6.636  17.108 -0.3984 -0.5737 -0.2045
17370TIP3    H173525   0.079   6.550  17.149  5.7870 -1.2214  0.8627
17370TIP3    H273526   0.094   6.619  17.014 -0.6871 -1.2692 -0.0861
17371TIP3   OH273527   4.744   2.610   3.343  0.0447  0.2292 -0.1752
17371TIP3    H173528   4.793   2.633   3.422  0.3258  2.3563 -0.9519
17371TIP3    H273529   4.810   2.602   3.275 -0.6158  3.0951 -1.2267
17372TIP3   OH273530   0.945   6.553  16.346  0.4223  0.2375  0.1061
17372TIP3    H173531   0.917   6.588  16.261  2.1120 -0.9397 -0.9709
17372TIP3    H273532   1.009   6.616  16.378 -0.4086  0.8189  0.6549
17373TIP3   OH273533   5.866   5.266  13.249 -0.0788  0.4041 -0.1859
17373TIP3    H173534   5.877   5.181  13.293 -0.7287 -1.1371 -2.8783
17373TIP3    H273535   5.775   5.268  13.222  0.2329  1.4365 -1.2076
17374TIP3   OH273536   4.580   0.128   3.779 -0.6684 -0.9101  0.4502
17374TIP3    H173537   4.663   0.115   3.732 -0.1077  2.0304  0.4783
17374TIP3    H273538   4.605   0.129   3.871 -0.3718  1.7240  0.3998
17375TIP3   OH273539   5.100   4.233  14.083 -0.3318 -0.2046  0.2299
17375TIP3    H173540   5.064   4.283  14.156  0.4006 -0.1076  0.5225
17375TIP3    H273541   5.024   4.186  14.047 -0.8942  0.5907  0.3706
17376TIP3   OH273542   5.215   0.183   3.324  0.7752  0.1747  0.1083
17376TIP3    H173543   5.135   0.237   3.324 -0.3349 -1.4282  1.2069
17376TIP3    H273544   5.185   0.096   3.298  2.5940  0.0972 -1.8867
17377TIP3   OH273545   0.643   6.751  17.018 -0.3011  0.1204 -0.3060
17377TIP3    H173546   0.683   6.725  16.935 -3.5431  0.3439 -2.0201
17377TIP3    H273547   0.561   6.702  17.021 -0.2047  0.0464  2.8508
17378TIP3   OH273548   2.356   0.722   4.019 -0.1654  0.3855 -0.3227
17378TIP3    H173549   2.386   0.754   4.104  2.9390 -2.2071 -0.3338
17378TIP3    H273550   2.416   0.763   3.956 -0.5933  0.0068 -0.9803
17379TIP3   OH273551   5.321   5.618  12.586  0.2782  0.0958  0.5933
17379TIP3    H173552   5.407   5.582  12.609  0.2721 -0.3842 -0.1366
17379TIP3    H273553   5.299   5.676  12.660 -0.6247 -2.9550  2.8225
17380TIP3   OH273554   6.016   2.749   5.458  0.0258  0.4697 -0.5894
17380TIP3    H173555   6.102   2.714   5.483 -0.9675 -1.4707  0.2909
17380TIP3    H273556   6.014   2.742   5.363  0.4629 -0.4689 -0.5441
17381TIP3   OH273557   3.882   2.758  15.953  0.7192  0.0978  0.0055
17381TIP3    H173558   3.908   2.776  15.863  1.6916  1.7630  0.6049
17381TIP3    H273559   3.791   2.728  15.946  0.9277 -0.2135 -1.5544
17382TIP3   OH273560   4.226   0.319   0.452 -0.2806 -0.2374 -0.4064
17382TIP3    H173561   4.206   0.404   0.493  1.1478  0.8414 -1.8904
17382TIP3    H273562   4.143   0.292   0.413 -0.5443  0.8987 -0.6701
17383TIP3   OH273563   4.634   6.211  16.485 -0.0099  0.2033 -0.2986
17383TIP3    H173564   4.714   6.262  16.471 -0.5366  0.7502 -1.4176
17383TIP3    H273565   4.644   6.135  16.428  0.6501 -0.8264  1.1606
17384TIP3   OH273566   3.548   5.626  13.733 -0.0901  0.5058  0.2730
17384TIP3    H173567   3.520   5.661  13.818  0.6345 -0.7476  1.0479
17384TIP3    H273568   3.472   5.579  13.700 -0.0093  0.0261  0.7651
17385TIP3   OH273569   3.915   5.969  12.116  0.4568 -0.6233 -0.6739
17385TIP3    H173570   3.885   5.916  12.190 -1.4933 -2.0604 -2.4152
17385TIP3    H273571   3.971   5.910  12.066  1.2598  0.1412 -0.6801
17386TIP3   OH273572   0.532   5.758  13.137 -0.3763  0.0814 -0.1964
17386TIP3    H173573   0.548   5.843  13.179 -1.6595 -1.0459  2.6885
17386TIP3    H273574   0.555   5.693  13.205 -0.8734 -1.8499 -1.8268
17387TIP3   OH273575   3.901   0.048   1.143  0.4498  0.6623  0.1737
17387TIP3    H173576   3.978   0.093   1.110 -0.0943  0.1208 -1.9358
17387TIP3    H273577   3.827   0.092   1.100 -0.1841 -1.0319 -0.5364
17388TIP3   OH273578   2.956   1.354   4.384 -0.1521  0.0234  0.3390
17388TIP3    H173579   2.862   1.350   4.362 -0.1392 -0.4799  0.3649
17388TIP3    H273580   2.992   1.418   4.322 -0.5952  0.5605  0.6329
17389TIP3   OH273581   4.778   1.514  15.512  0.2824 -0.0570  0.1193
17389TIP3    H173582   4.689   1.481  15.521 -0.0239  0.9536  0.7847
17389TIP3    H273583   4.769   1.609  15.515  1.2871  0.0716 -0.6689
17390TIP3   OH273584   3.075   3.287  14.962  0.2151  0.0187 -0.2473
17390TIP3    H173585   2.984   3.271  14.986 -0.2990  1.5096 -1.1190
17390TIP3    H273586   3.118   3.315  15.043 -0.1672 -0.4183  0.1040
17391TIP3   OH273587   1.740   0.411  12.156  0.3113 -0.8531  0.6706
17391TIP3    H173588   1.822   0.412  12.206  1.0051 -0.5860 -0.4343
17391TIP3    H273589   1.677   0.456  12.212  1.8870  2.3645  0.0088
17392TIP3   OH273590   3.493   0.396  16.152  0.5024 -0.5876 -0.0957
17392TIP3    H173591   3.501   0.307  16.185  1.8390 -0.8827 -1.1782
17392TIP3    H273592   3.496   0.387  16.057 -0.4759  0.5140 -0.2558
17393TIP3   OH273593   3.220   3.949   3.340 -0.3602  0.4013  0.4026
17393TIP3    H173594   3.165   3.902   3.402 -0.0820  0.8005  0.9533
17393TIP3    H273595   3.302   3.898   3.338 -1.1172 -0.7934 -1.2108
17394TIP3   OH273596   4.646   3.803  14.366  0.1659 -0.2748 -0.0376
17394TIP3    H173597   4.565   3.794  14.317  0.6209 -1.6602 -0.5481
17394TIP3    H273598   4.690   3.879  14.326 -0.3716 -0.2006 -0.4880
17395TIP3   OH273599   0.428   1.413  12.267  0.3102  0.5365  0.0074
17395TIP3    H173600   0.481   1.489  12.248 -0.2629  1.5242  2.1505
17395TIP3    H273601   0.346   1.428  12.221  1.4141 -0.4364 -2.3453
17396TIP3   OH273602   1.755   6.062  13.539  0.2256 -0.5261 -0.2334
17396TIP3    H173603   1.671   6.059  13.493  1.0947  1.1781 -2.0395
17396TIP3    H273604   1.802   5.985  13.508 -0.1403 -0.7329 -0.2796
17397TIP3   OH273605   0.283   3.483   4.587 -0.4746  0.1169 -0.3131
17397TIP3    H173606   0.349   3.434   4.637 -0.6882 -1.4726 -1.5580
17397TIP3    H273607   0.245   3.544   4.651  0.1071 -1.0262  1.1499
17398TIP3   OH273608   1.156   1.089  12.915 -0.0780  0.2121  0.4954
17398TIP3    H173609   1.061   1.085  12.920 -0.1333  1.4025  0.6302
17398TIP3    H273610   1.186   1.067  13.003 -0.2064 -0.5622  0.3498
17399TIP3   OH273611   4.172   1.138  13.827 -0.3181 -0.1140 -0.4731
17399TIP3    H173612   4.224   1.213  13.796 -1.4468  0.7511 -0.3227
17399TIP3    H273613   4.089   1.146  13.781 -0.0431 -1.9442 -1.3075
17400TIP3   OH273614   5.111   2.484   5.925  0.0350  0.3998 -0.1908
17400TIP3    H173615   5.060   2.493   5.844 -1.6261 -1.9454  0.5371
17400TIP3    H273616   5.172   2.413   5.907 -0.3657 -0.1537  0.6416
17401TIP3   OH273617   4.217   6.258   5.794  0.0571  0.8895 -0.4527
17401TIP3    H173618   4.250   6.322   5.856  0.9609  0.1223 -0.1223
17401TIP3    H273619   4.192   6.183   5.848 -0.6215  0.8039 -0.8710
17402TIP3   OH273620   2.929   5.007  11.884 -0.2622 -0.3712  0.1020
17402TIP3    H173621   2.855   5.028  11.827  2.6502  1.4962 -3.1940
17402TIP3    H273622   2.934   5.082  11.944 -1.0784 -0.5572  0.4161
17403TIP3   OH273623   0.953   0.590  16.005 -0.5766 -0.0219 -0.4577
17403TIP3    H173624   0.983   0.547  16.085  0.0221 -0.1907 -0.7706
17403TIP3    H273625   0.914   0.672  16.035 -0.1494  0.0205 -0.0072
17404TIP3   OH273626   0.347   0.391   1.715  0.3697 -0.4547 -0.4258
17404TIP3    H173627   0.291   0.336   1.769  0.0484  0.6726  0.4088
17404TIP3    H273628   0.429   0.343   1.708  0.1110 -1.0099  0.3427
17405TIP3   OH273629   0.813   3.490  11.144  0.3539  0.4325 -0.2187
17405TIP3    H173630   0.908   3.492  11.136  0.3129  1.1996 -0.6585
17405TIP3    H273631   0.792   3.566  11.198 -0.1716  1.7052 -2.1637
17406TIP3   OH273632   5.125   3.822   5.574  0.3835  0.8686  0.0197
17406TIP3    H173633   5.048   3.879   5.571 -1.1137 -1.0693  0.4477
17406TIP3    H273634   5.199   3.882   5.566 -1.2165  2.5408 -3.4952
17407TIP3   OH273635   0.095   3.906   1.569 -0.6248  0.6662  0.8230
17407TIP3    H173636   0.162   3.846   1.601 -1.6581 -0.9925 -0.0481
17407TIP3    H273637   0.042   3.853   1.509 -0.8914  2.7485 -0.8247
17408TIP3   OH273638   1.382   2.457  11.724  0.6518 -0.0589  0.0253
17408TIP3    H173639   1.362   2.400  11.799 -0.7332  0.6593  0.2100
17408TIP3    H273640   1.297   2.485  11.692  1.3130  2.5720  0.4483
17409TIP3   OH273641   5.691   0.221  16.658  0.9239 -0.2691 -0.3494
17409TIP3    H173642   5.698   0.313  16.630  0.3603  0.0814  0.6288
17409TIP3    H273643   5.667   0.226  16.750 -0.2355 -1.4085 -0.5742
17410TIP3   OH273644   0.533   1.381  12.905  0.3542 -0.0226 -0.2047
17410TIP3    H173645   0.555   1.315  12.971 -1.2146  1.0764  1.4687
17410TIP3    H273646   0.498   1.455  12.956 -0.5246  1.0085 -2.2495
17411TIP3   OH273647   0.653   5.121  13.830  0.2174  0.0360  0.2112
17411TIP3    H173648   0.635   5.206  13.790 -3.9205 -1.1206 -0.6307
17411TIP3    H273649   0.667   5.061  13.757 -2.1143 -1.0229  0.5816
17412TIP3   OH273650   1.710   4.782   1.148 -0.2226  0.5769 -0.7006
17412TIP3    H173651   1.725   4.704   1.201 -1.3460  1.6449  1.2548
17412TIP3    H273652   1.627   4.765   1.104  0.1225  0.1779 -1.1980
17413TIP3   OH273653   0.221   6.621   1.501 -0.0368 -0.1785 -0.1957
17413TIP3    H173654   0.226   6.660   1.414  1.3263  1.1138  0.4465
17413TIP3    H273655   0.221   6.527   1.485  1.3393  0.0344 -1.5376
17414TIP3   OH273656   6.522   2.632  11.230 -0.3137 -0.1134  0.4760
17414TIP3    H173657   6.455   2.643  11.162  2.2647  1.7534 -1.9026
17414TIP3    H273658   6.506   2.704  11.291  1.2485  2.2266 -1.7278
17415TIP3   OH273659   5.081   6.647   2.102 -0.2927  0.3693  0.1536
17415TIP3    H173660   5.124   6.635   2.187  0.9902 -2.5581 -0.8533
17415TIP3    H273661   4.988   6.630   2.119 -0.0208 -0.3657  0.9412
17416TIP3   OH273662   3.535   4.852  13.355 -0.0302  0.3529 -0.2185
17416TIP3    H173663   3.466   4.801  13.312 -0.3111  1.6051 -1.3162
17416TIP3    H273664   3.600   4.867  13.287  0.9070 -0.0736  0.5771
17417TIP3   OH273665   1.683   6.217   5.241  0.4589  0.6787  0.1121
17417TIP3    H173666   1.609   6.192   5.185  0.8299  0.8811 -0.4802
17417TIP3    H273667   1.662   6.305   5.271  0.5340  0.7982 -0.1852
17418TIP3   OH273668   5.881   2.955   5.537 -0.2713 -0.3301  0.1928
17418TIP3    H173669   5.949   2.896   5.504 -1.0498 -0.6667 -0.8217
17418TIP3    H273670   5.867   2.926   5.628  1.3920  0.1707  0.6253
17419TIP3   OH273671   1.608   0.602  14.228  0.1683  0.8671  0.0068
17419TIP3    H173672   1.572   0.677  14.182  0.4819  0.3328 -1.1299
17419TIP3    H273673   1.535   0.568  14.280 -0.3602  1.1165 -0.5697
17420TIP3   OH273674   3.201   4.640  15.173 -0.3193  0.1319  0.0820
17420TIP3    H173675   3.171   4.602  15.091  0.1647 -0.6651  0.2716
17420TIP3    H273676   3.139   4.608  15.239 -1.1364  1.3545 -0.0782
17421TIP3   OH273677   6.565   1.848   5.516 -0.8477 -0.0064  0.5986
17421TIP3    H173678   6.507   1.850   5.440 -0.6731 -2.9880  0.3195
17421TIP3    H273679   6.525   1.784   5.575  0.6456 -0.0005  1.6597
17422TIP3   OH273680   6.658   3.540   1.595  0.4647 -0.9579 -0.1970
17422TIP3    H173681   6.680   3.606   1.530 -0.6035  1.5358  1.8826
17422TIP3    H273682   6.729   3.545   1.659  0.2407 -1.6368  0.1083
17423TIP3   OH273683   5.923   0.566  11.238 -0.3092  0.5559 -0.4881
17423TIP3    H173684   5.995   0.580  11.177  0.4478 -0.2652  0.1930
17423TIP3    H273685   5.844   0.574  11.185  0.1426  4.3156 -0.7261
17424TIP3   OH273686   3.763   1.521  14.047  0.0001  0.9073 -0.4102
17424TIP3    H173687   3.764   1.497  13.954  0.3853  1.2315 -0.4970
17424TIP3    H273688   3.709   1.600  14.050  0.8996  1.5438 -0.5376
17425TIP3   OH273689   0.840   6.460  15.004 -0.3984 -1.2679 -0.6587
17425TIP3    H173690   0.881   6.514  14.937 -2.5948  0.7700 -0.4236
17425TIP3    H273691   0.832   6.517  15.080  0.1269 -2.9137  0.6619
17426TIP3   OH273692   4.442   4.566  14.799 -0.4005 -0.1846 -0.0202
17426TIP3    H173693   4.416   4.490  14.747 -1.6119 -0.6884  1.2875
17426TIP3    H273694   4.504   4.613  14.743  0.2471 -2.0402 -0.9037
17427TIP3   OH273695   2.874   2.781   3.343 -0.6343  0.0455  0.0232
17427TIP3    H173696   2.878   2.840   3.417 -1.4069 -0.4183  0.4420
17427TIP3    H273697   2.880   2.693   3.381  0.0827 -0.1614 -0.5538
17428TIP3   OH273698   2.233   6.262   3.147  0.0607 -0.1992 -0.5841
17428TIP3    H173699   2.303   6.317   3.182 -1.2804  1.1931 -0.0465
17428TIP3    H273700   2.246   6.177   3.189  1.2521  0.1203 -0.2843
17429TIP3   OH273701   4.156   6.544  16.616 -0.1068 -0.3033  0.2427
17429TIP3    H173702   4.232   6.590  16.652 -0.2186 -0.6757  0.9698
17429TIP3    H273703   4.085   6.565  16.678 -0.7026  0.4005 -0.6620
17430TIP3   OH273704   0.484   1.775   3.291  0.1801 -0.3311  0.1181
17430TIP3    H173705   0.474   1.870   3.282  0.6576 -0.4568 -1.9193
17430TIP3    H273706   0.440   1.754   3.374 -1.5171  1.4228 -0.2954
17431TIP3   OH273707   1.404   6.445   6.274  0.0356 -0.7963  0.1276
17431TIP3    H173708   1.353   6.505   6.220  1.4189  1.6090  1.4139
17431TIP3    H273709   1.495   6.468   6.256  0.5479 -1.2373  2.0739
17432TIP3   OH273710   0.616   4.368  15.774  0.1828  0.0956 -0.1619
17432TIP3    H173711   0.588   4.283  15.741 -0.4586 -0.8364  2.6113
17432TIP3    H273712   0.643   4.417  15.696 -2.5352 -1.4758 -2.1700
17433TIP3   OH273713   0.142   1.016  14.883  0.1621 -0.6544  0.4291
17433TIP3    H173714   0.117   0.981  14.798 -0.4802  1.4747 -0.2954
17433TIP3    H273715   0.200   0.950  14.920 -0.5284 -2.1689 -1.1311
17434TIP3   OH273716   5.429   6.334   1.346 -0.1924  0.1848  0.0799
17434TIP3    H173717   5.468   6.332   1.258 -0.1670  1.6589  0.0443
17434TIP3    H273718   5.455   6.419   1.381 -0.4244 -0.2913  1.4216
17435TIP3   OH273719   6.099   1.748   5.061 -0.3094  0.0320  0.0868
17435TIP3    H173720   6.017   1.795   5.043 -0.3471 -0.4088 -0.9403
17435TIP3    H273721   6.124   1.710   4.976  0.6024 -0.3984  0.5410
17436TIP3   OH273722   4.651   6.238   4.681 -0.0986 -0.1642 -0.0807
17436TIP3    H173723   4.716   6.216   4.614  0.3745 -2.2947  1.0276
17436TIP3    H273724   4.590   6.165   4.681 -0.6761  0.2990  1.0832
17437TIP3   OH273725   0.219   2.080   1.462  0.4258 -0.1703  0.1703
17437TIP3    H173726   0.129   2.106   1.446  0.3539 -0.4836  0.0616
17437TIP3    H273727   0.268   2.162   1.463  0.0744  0.0325  0.6610
17438TIP3   OH273728   0.805   2.112  14.608  0.1725  0.0741  0.0810
17438TIP3    H173729   0.751   2.113  14.687 -2.7022  0.5597 -1.8311
17438TIP3    H273730   0.879   2.169  14.629 -0.5287  0.1727  2.4140
17439TIP3   OH273731   2.503   5.360   4.093  0.4921 -0.1477  0.0419
17439TIP3    H173732   2.474   5.311   4.169  0.4761  0.7552  0.6324
17439TIP3    H273733   2.553   5.298   4.040  2.0282 -0.3281  1.6779
17440TIP3   OH273734   3.850   4.236   5.960 -0.5034 -0.1418  0.2289
17440TIP3    H173735   3.928   4.237   6.016  0.1387 -0.5211 -0.6631
17440TIP3    H273736   3.795   4.168   5.998  0.3137 -1.0042 -0.1194
17441TIP3   OH273737   3.594   3.300   3.517  0.3080 -0.0042  0.0745
17441TIP3    H173738   3.583   3.371   3.581 -1.6825  0.2039 -0.4600
17441TIP3    H273739   3.548   3.225   3.556  0.7052 -0.4289 -0.2611
17442TIP3   OH273740   5.305   2.117   1.017  0.2714 -0.0408 -0.1081
17442TIP3    H173741   5.219   2.079   1.038  0.2616 -1.3033 -2.2979
17442TIP3    H273742   5.312   2.192   1.076 -0.7420 -2.0204  2.6817
17443TIP3   OH273743   3.945   3.822   4.700  0.3390 -0.1420 -0.1863
17443TIP3    H173744   3.858   3.787   4.718  1.1512 -2.5241 -0.7560
17443TIP3    H273745   3.929   3.903   4.651 -1.5580 -0.0082  0.6082
17444TIP3   OH273746   0.363   3.869   1.321  0.3023  0.3368 -0.4736
17444TIP3    H173747   0.459   3.866   1.314  0.2463  0.3703 -1.3018
17444TIP3    H273748   0.343   3.962   1.333  0.4645  0.1701  1.1131
17445TIP3   OH273749   6.769   5.631   5.235 -0.1762 -0.5249  0.1890
17445TIP3    H173750   6.836   5.680   5.189 -0.1729 -0.2747  0.4558
17445TIP3    H273751   6.818   5.566   5.287 -0.2123 -1.2179 -0.6328
17446TIP3   OH273752   0.274   0.342   0.642  0.6959  0.0950  0.1770
17446TIP3    H173753   0.329   0.350   0.720  0.0902 -1.0391  0.7268
17446TIP3    H273754   0.294   0.255   0.606 -0.4697 -0.1861  0.1855
17447TIP3   OH273755   5.998   4.447   4.685  0.1060  0.1499  0.4167
17447TIP3    H173756   5.965   4.511   4.749 -0.9222  0.8944 -0.8311
17447TIP3    H273757   5.955   4.365   4.709  1.3531 -0.0712  1.9670
17448TIP3   OH273758   3.572   5.198  10.429  0.1987 -0.1320 -0.3712
17448TIP3    H173759   3.573   5.143  10.507  1.3440 -0.0299 -0.2980
17448TIP3    H273760   3.665   5.213  10.410 -0.0580 -0.4311 -1.9342
17449TIP3   OH273761   2.318   1.918  17.016  0.1755  0.2981 -0.3430
17449TIP3    H173762   2.233   1.881  16.990  0.6785 -2.0846  1.2386
17449TIP3    H273763   2.299   2.010  17.035 -2.5019 -0.6016  1.7255
17450TIP3   OH273764   0.307   2.410   3.719  0.0720 -0.0688  0.4191
17450TIP3    H173765   0.227   2.393   3.668 -0.9350 -0.0542  1.9521
17450TIP3    H273766   0.331   2.500   3.697  0.6051 -0.6133 -1.2930
17451TIP3   OH273767   1.698   0.661  10.801  0.0416  0.4561  0.8337
17451TIP3    H173768   1.694   0.577  10.848  1.1008 -0.0566  0.0285
17451TIP3    H273769   1.791   0.672  10.781 -0.3934  0.6904 -1.0968
17452TIP3   OH273770   1.336   5.883   3.323 -1.0264  0.2661  0.3287
17452TIP3    H173771   1.336   5.953   3.388 -0.1154  0.5644  0.0191
17452TIP3    H273772   1.426   5.850   3.324 -1.4694 -0.9282  0.5019
17453TIP3   OH273773   4.636   0.649   3.600  0.3308 -0.5629  0.3992
17453TIP3    H173774   4.702   0.706   3.563 -0.7486  0.7555  0.4678
17453TIP3    H273775   4.604   0.597   3.526 -0.5498  0.8034 -0.2035
17454TIP3   OH273776   3.316   5.561  15.266  0.0330  0.1284  0.4664
17454TIP3    H173777   3.295   5.473  15.233 -1.4160  0.6986 -0.1589
17454TIP3    H273778   3.322   5.549  15.361 -0.8336 -0.5280  0.4489
17455TIP3   OH273779   0.189   4.057  17.076 -0.0461  0.0287 -0.3817
17455TIP3    H173780   0.133   3.985  17.105  0.7034 -1.3963 -2.3695
17455TIP3    H273781   0.269   4.014  17.046  0.9755  1.8210 -0.2878
17456TIP3   OH273782   5.526   5.371   3.320  0.1974  0.8320  0.3455
17456TIP3    H173783   5.458   5.375   3.387  0.7563  2.4440  0.8483
17456TIP3    H273784   5.589   5.438   3.347  1.0971  0.5669 -1.0701
17457TIP3   OH273785   4.689   4.742  16.235 -0.4358 -0.2400 -0.0134
17457TIP3    H173786   4.729   4.829  16.228 -0.6409  0.1992  3.3666
17457TIP3    H273787   4.597   4.756  16.215 -0.2862  0.1300 -0.4508
17458TIP3   OH273788   3.844   4.981   1.770  0.4997 -0.0071 -0.5633
17458TIP3    H173789   3.848   5.017   1.858  1.2962  0.6249 -0.8499
17458TIP3    H273790   3.787   4.904   1.777 -0.0939  0.5181  0.3311
17459TIP3   OH273791   6.660   5.610  13.938 -0.5944  0.5168  0.9637
17459TIP3    H173792   6.665   5.706  13.948  2.5734  0.5334 -0.2712
17459TIP3    H273793   6.717   5.577  14.007 -1.1917 -0.4725  0.9816
17460TIP3   OH273794   4.143   2.264   5.655 -0.0727 -1.0316 -0.0821
17460TIP3    H173795   4.232   2.260   5.689 -0.6479 -1.3299  1.4224
17460TIP3    H273796   4.127   2.358   5.643  0.8510 -1.0495 -1.4659
17461TIP3   OH273797   6.316   2.707  11.919 -0.5602 -0.4241 -0.4972
17461TIP3    H173798   6.261   2.640  11.959 -1.7272  0.5140 -0.5356
17461TIP3    H273799   6.404   2.689  11.953 -1.6958  1.1001  3.5426
17462TIP3   OH273800   6.406   1.113   5.734  0.1466 -0.2449 -0.2563
17462TIP3    H173801   6.430   1.061   5.811  0.2256 -0.4391 -0.4129
17462TIP3    H273802   6.311   1.124   5.740  0.2933  0.7407  0.5061
17463TIP3   OH273803   3.821   2.930   4.932  0.1827 -0.3360  0.5655
17463TIP3    H173804   3.871   2.923   4.850  1.0449  0.5005  1.0090
17463TIP3    H273805   3.821   3.024   4.952 -0.9989 -0.4132  0.9279
17464TIP3   OH273806   2.288   0.724   1.175 -0.3325 -0.6574 -0.0258
17464TIP3    H173807   2.319   0.635   1.158  0.6512 -1.0314  3.2872
17464TIP3    H273808   2.198   0.713   1.204  0.0568 -0.6970  1.2136
17465TIP3   OH273809   0.124   4.271  10.816  0.3456  0.1503  0.5360
17465TIP3    H173810   0.089   4.358  10.834  0.4565  0.1915  0.5568
17465TIP3    H273811   0.198   4.286  10.757  0.5359  0.0960  0.7583
17466TIP3   OH273812   6.405   5.658  15.165 -0.2037 -0.2481  0.2050
17466TIP3    H173813   6.438   5.603  15.236  0.0314 -1.8308 -1.1079
17466TIP3    H273814   6.475   5.722  15.149  0.2019 -0.5776  0.6517
17467TIP3   OH273815   2.659   0.767  11.494 -0.0668 -1.1587 -0.1965
17467TIP3    H173816   2.632   0.684  11.534  0.4886 -1.1525  0.1909
17467TIP3    H273817   2.735   0.744  11.441 -0.5852 -1.1004 -0.9773
17468TIP3   OH273818   5.614   0.785   2.116 -0.3227  0.5308  0.0599
17468TIP3    H173819   5.564   0.842   2.059 -2.9451 -1.5715  0.1903
17468TIP3    H273820   5.613   0.699   2.074  0.4266 -0.3147  1.6699
17469TIP3   OH273821   1.730   1.182  14.200  0.1290 -0.4747  0.3142
17469TIP3    H173822   1.823   1.200  14.185  0.3513 -1.0383  0.9742
17469TIP3    H273823   1.708   1.116  14.136  0.4516 -1.0909  0.8308
17470TIP3   OH273824   1.179   6.358   1.632 -0.0689 -0.6164  0.1739
17470TIP3    H173825   1.149   6.314   1.552  0.4017 -0.0455 -0.3273
17470TIP3    H273826   1.265   6.394   1.608  1.2571 -2.6600  1.7285
17471TIP3   OH273827   3.098   2.073  15.423  0.1498  0.1583  0.3564
17471TIP3    H173828   3.176   2.126  15.437 -0.1211  0.6128  0.1425
17471TIP3    H273829   3.025   2.132  15.441 -0.1452 -0.4843  1.3569
17472TIP3   OH273830   3.430   5.758   5.112 -0.2257 -0.3009  0.4370
17472TIP3    H173831   3.360   5.817   5.141  0.2996  0.5747 -0.0625
17472TIP3    H273832   3.400   5.725   5.028  0.0455  0.2367  0.1241
17473TIP3   OH273833   6.616   2.544  14.727 -0.2488 -0.4354  0.4883
17473TIP3    H173834   6.674   2.582  14.793  2.1997 -3.4107  0.1496
17473TIP3    H273835   6.574   2.471  14.771 -1.2649 -0.2849 -0.2220
17474TIP3   OH273836   3.330   0.426  11.600  0.0592 -0.4942 -0.3991
17474TIP3    H173837   3.303   0.334  11.605  0.0282 -0.4557  0.1684
17474TIP3    H273838   3.248   0.476  11.601  0.0596 -0.4730 -1.1007
17475TIP3   OH273839   2.130   0.670   4.331 -0.4071 -0.3154  0.7161
17475TIP3    H173840   2.185   0.593   4.343  0.4082  0.5138  2.3559
17475TIP3    H273841   2.058   0.640   4.274  0.9934 -1.7326 -0.3314
17476TIP3   OH273842   1.282   3.084   0.979 -0.3694  0.1712 -0.3469
17476TIP3    H173843   1.292   3.117   1.068 -0.5323 -0.7453  0.0196
17476TIP3    H273844   1.365   3.104   0.936 -0.3249  0.7027 -0.0163
17477TIP3   OH273845   1.198   0.682   0.903  0.1877  0.7762  0.2390
17477TIP3    H173846   1.213   0.776   0.897  0.6988  0.6586 -0.3271
17477TIP3    H273847   1.248   0.645   0.830  0.5557  0.0068  0.8778
17478TIP3   OH273848   0.501   0.627  11.662  0.5518 -0.3355  0.3549
17478TIP3    H173849   0.417   0.607  11.703  0.4237  1.6514  1.0934
17478TIP3    H273850   0.551   0.546  11.671 -0.8797 -1.1871  0.9081
17479TIP3   OH273851   4.586   6.221  10.749 -0.2298 -0.0275  0.5565
17479TIP3    H173852   4.665   6.225  10.803  0.4558  3.4333 -0.6117
17479TIP3    H273853   4.599   6.288  10.682 -3.3691 -0.6648 -0.7699
17480TIP3   OH273854   3.311   4.660  14.619  0.2313  0.3217 -0.1242
17480TIP3    H173855   3.247   4.729  14.640 -0.4853 -0.6241  0.8532
17480TIP3    H273856   3.264   4.601  14.561  0.4786  0.0452 -0.0414
17481TIP3   OH273857   2.174   5.317   5.021  0.1602 -0.4950 -0.1286
17481TIP3    H173858   2.124   5.250   5.068 -3.3917  2.1415 -0.0221
17481TIP3    H273859   2.146   5.400   5.059 -0.8939  1.5843 -5.0478
17482TIP3   OH273860   3.169   3.047  16.784 -0.0813 -0.4244  0.1479
17482TIP3    H173861   3.110   3.043  16.859  0.8008  0.9423  0.9450
17482TIP3    H273862   3.234   3.113  16.808 -0.2658  0.6557 -2.1562
17483TIP3   OH273863   0.735   0.267  13.880  0.1459 -0.1655  0.3530
17483TIP3    H173864   0.756   0.345  13.828 -0.0777 -0.2275  0.1674
17483TIP3    H273865   0.759   0.291  13.969  1.1288 -0.2903  0.1275
17484TIP3   OH273866   2.573   1.429  15.090 -0.2553 -0.0501 -0.0353
17484TIP3    H173867   2.510   1.482  15.139 -0.4921  0.5664 -1.0039
17484TIP3    H273868   2.657   1.444  15.134 -0.0850  2.1222 -1.0809
17485TIP3   OH273869   4.786   1.797  15.678  0.6770 -0.8716  0.2518
17485TIP3    H173870   4.784   1.750  15.761  0.2073 -0.6880  0.3465
17485TIP3    H273871   4.697   1.788  15.643  1.1536 -1.8447 -0.7343
17486TIP3   OH273872   4.558   0.538   1.392 -0.3579  0.4278 -0.6028
17486TIP3    H173873   4.583   0.537   1.300 -1.3679  0.6418 -0.8840
17486TIP3    H273874   4.482   0.596   1.396  0.9872  2.1806  0.7045
17487TIP3   OH273875   1.078   0.296   5.124  0.3723  0.0707  0.7879
17487TIP3    H173876   0.990   0.332   5.114  0.5798 -0.2509 -3.0296
17487TIP3    H273877   1.066   0.220   5.181 -1.8091  0.1093  0.4390
17488TIP3   OH273878   2.530   0.576  11.672 -0.1189 -0.1223  0.4779
17488TIP3    H173879   2.565   0.610  11.755 -1.2620  2.0608  0.0914
17488TIP3    H273880   2.441   0.550  11.692 -1.0663  2.2368 -0.4711
17489TIP3   OH273881   1.193   3.292  15.145 -0.4599  0.9154 -0.0324
17489TIP3    H173882   1.214   3.270  15.055 -0.2862 -0.1073  0.2429
17489TIP3    H273883   1.278   3.304  15.188 -0.4270 -1.6184  0.6996
17490TIP3   OH273884   4.717   4.792   2.019  0.0645 -0.2937 -0.2309
17490TIP3    H173885   4.744   4.701   2.029  0.7160 -0.4017 -2.7186
17490TIP3    H273886   4.651   4.789   1.949 -1.5993  0.8487  1.2592
17491TIP3   OH273887   0.074   5.239  10.851 -0.1619  0.1185  0.7952
17491TIP3    H173888   0.014   5.313  10.849 -1.0403 -0.5856  0.5760
17491TIP3    H273889   0.017   5.162  10.850  0.7380 -0.5569  0.9380
17492TIP3   OH273890   3.121   0.478   5.923  0.5687  0.5003 -0.9447
17492TIP3    H173891   3.087   0.567   5.919 -0.1567  0.3877  1.6570
17492TIP3    H273892   3.196   0.478   5.864  0.2839  2.7143 -1.3313
17493TIP3   OH273893   4.133   2.819   4.376 -0.2010  0.1074 -0.2526
17493TIP3    H173894   4.207   2.861   4.332  1.5640 -2.0119  0.6569
17493TIP3    H273895   4.149   2.834   4.469 -1.7987  1.0519 -0.1093
17494TIP3   OH273896   5.313   2.215   1.287 -0.3997  0.2891 -0.5407
17494TIP3    H173897   5.347   2.287   1.341  1.1842 -1.3225  0.6674
17494TIP3    H273898   5.230   2.192   1.327 -0.3253  0.6289 -0.1882
17495TIP3   OH273899   4.102   6.627   2.208 -0.0589  0.2823 -0.2670
17495TIP3    H173900   4.186   6.588   2.231 -0.6977 -0.5161  0.7384
17495TIP3    H273901   4.040   6.554   2.209 -0.7636  0.8575 -1.0193
17496TIP3   OH273902   5.106   3.948  11.230 -0.1813 -0.0799  0.0889
17496TIP3    H173903   5.061   3.867  11.254  1.3214 -0.1366  2.8327
17496TIP3    H273904   5.052   4.017  11.269 -0.4191  0.1451 -0.6256
17497TIP3   OH273905   2.883   6.266  15.522 -0.6358  0.5550 -0.3659
17497TIP3    H173906   2.792   6.255  15.496 -0.1071 -0.8663 -1.7067
17497TIP3    H273907   2.922   6.179  15.512  0.8181  1.0884  0.4067
17498TIP3   OH273908   6.043   3.795  12.712 -0.2471  0.4956 -0.4371
17498TIP3    H173909   5.999   3.718  12.675  1.1503 -1.6063  2.1359
17498TIP3    H273910   6.128   3.798  12.667 -0.7131  1.1794 -1.2885
17499TIP3   OH273911   1.004   3.134   2.732  0.1588 -0.0327  0.3238
17499TIP3    H173912   1.004   3.045   2.697 -2.0879 -0.6186  1.7750
17499TIP3    H273913   1.081   3.137   2.789  0.9716 -0.6212 -0.7084
17500TIP3   OH273914   5.641   3.884   2.774 -0.0079  0.2573  0.5227
17500TIP3    H173915   5.696   3.885   2.853 -0.8782  2.5760  1.1446
17500TIP3    H273916   5.698   3.850   2.705  0.8812 -1.4449  2.0644
17501TIP3   OH273917   5.173   2.109   1.531 -0.4077 -0.4242  0.1657
17501TIP3    H173918   5.203   2.080   1.618  0.9471 -0.1073 -0.1737
17501TIP3    H273919   5.173   2.205   1.536  1.5588 -0.3318 -0.7478
17502TIP3   OH273920   5.199   4.014   0.760 -0.0260  0.6877 -0.0356
17502TIP3    H173921   5.281   4.012   0.808  1.0203  0.3872 -1.8009
17502TIP3    H273922   5.182   4.107   0.745  1.4457  0.6527 -2.0709
17503TIP3   OH273923   5.876   5.828   3.214  0.6120 -0.1733 -0.2082
17503TIP3    H173924   5.931   5.878   3.275 -0.3944 -0.7625  1.2180
17503TIP3    H273925   5.933   5.809   3.140  1.6637  1.1503  0.2566
17504TIP3   OH273926   5.877   4.835   0.835 -0.5125 -0.5011  0.0101
17504TIP3    H173927   5.947   4.808   0.895 -0.4725  0.2295  0.2950
17504TIP3    H273928   5.922   4.847   0.751 -0.0987  1.0056  0.4399
17505TIP3   OH273929   1.804   3.259   3.604  0.0264 -0.5761 -0.1524
17505TIP3    H173930   1.774   3.264   3.695  1.2913  1.3353  0.2075
17505TIP3    H273931   1.898   3.244   3.612 -0.2090 -2.6326 -1.1903
17506TIP3   OH273932   6.737   0.561   1.260  0.0680 -0.5008 -0.5124
17506TIP3    H173933   6.653   0.518   1.278 -0.0183  0.2052  0.8791
17506TIP3    H273934   6.713   0.649   1.232  0.3579 -0.1020  0.4863
17507TIP3   OH273935   6.299   5.707   3.020 -0.2321  0.1029  0.6883
17507TIP3    H173936   6.320   5.799   3.033  1.2091 -0.2011  0.6881
17507TIP3    H273937   6.313   5.667   3.106  0.3943 -0.3234  0.3998
17508TIP3   OH273938   3.568   5.201  13.177 -0.0778  0.1186  0.0454
17508TIP3    H173939   3.607   5.117  13.151  0.1136 -0.1939  1.2735
17508TIP3    H273940   3.638   5.248  13.222 -0.8308 -0.0875  1.5037
17509TIP3   OH273941   2.938   2.341  16.883  0.0385  0.5823 -0.2981
17509TIP3    H173942   2.844   2.352  16.896  0.2539  1.2973  0.6727
17509TIP3    H273943   2.977   2.423  16.915  1.1123 -0.2921  0.6827
17510TIP3   OH273944   1.573   3.966  14.614  0.2842  0.0713 -0.7268
17510TIP3    H173945   1.652   3.912  14.613  0.3998  0.2448 -1.8473
17510TIP3    H273946   1.532   3.949  14.529 -0.9787 -0.1576 -0.0863
17511TIP3   OH273947   1.219   3.028  16.048 -0.3597  0.3449  0.1404
17511TIP3    H173948   1.245   3.116  16.074 -1.6006  0.3028  1.6159
17511TIP3    H273949   1.301   2.980  16.038  0.2667  1.2948  0.7234
17512TIP3   OH273950   5.075   1.984  12.799  0.0365 -0.0802 -0.1584
17512TIP3    H173951   5.058   2.076  12.820 -2.0032 -0.9195  2.2128
17512TIP3    H273952   5.087   1.942  12.884 -2.5068 -2.5910 -0.9397
17513TIP3   OH273953   5.030   4.994  12.275 -0.0034  0.4279  0.8357
17513TIP3    H173954   5.084   4.917  12.289  1.0382  1.3673  2.1011
17513TIP3    H273955   4.941   4.959  12.262  0.7980 -1.0824 -0.7342
17514TIP3   OH273956   2.689   1.794   4.489 -0.0662  0.0056  0.1794
17514TIP3    H173957   2.701   1.779   4.396  0.8153  1.2055  0.0846
17514TIP3    H273958   2.758   1.743   4.531  0.2266  0.3416  0.1082
17515TIP3   OH273959   6.609   4.748  13.600 -0.0394 -0.9069 -0.7400
17515TIP3    H173960   6.603   4.784  13.511  0.5062 -1.4113 -0.9853
17515TIP3    H273961   6.602   4.654  13.588 -0.5197 -0.9398 -0.1903
17516TIP3   OH273962   6.610   4.825  13.332 -0.1534 -0.3775  0.0909
17516TIP3    H173963   6.587   4.766  13.260 -0.2995  0.3816 -0.4902
17516TIP3    H273964   6.540   4.889  13.334  0.6753  0.5527 -0.1362
17517TIP3   OH273965   1.270   3.149   1.259  0.1424  0.0090 -0.3091
17517TIP3    H173966   1.240   3.130   1.348  1.4626 -3.4027 -0.5497
17517TIP3    H273967   1.361   3.176   1.269 -0.1108  0.9629 -0.5152
17518TIP3   OH273968   2.384   0.352   2.468  0.5708 -0.0800 -0.0617
17518TIP3    H173969   2.453   0.417   2.481 -1.0777  1.9351 -1.1294
17518TIP3    H273970   2.422   0.290   2.405  2.6492 -0.9970  1.9809
17519TIP3   OH273971   5.899   3.461   0.470 -0.2090  0.1541  0.0055
17519TIP3    H173972   5.944   3.538   0.434 -2.4797  1.1276 -0.7930
17519TIP3    H273973   5.899   3.476   0.565  0.3308  0.5922 -0.0586
17520TIP3   OH273974   5.747   2.270  14.583  0.4382 -0.2038  0.9407
17520TIP3    H173975   5.679   2.314  14.532  0.1667  1.4857  2.6875
17520TIP3    H273976   5.828   2.316  14.559  0.7437 -1.2005  0.0184
17521TIP3   OH273977   2.496   4.530   5.951 -0.4839  0.6787  0.7087
17521TIP3    H173978   2.427   4.595   5.953 -0.4251  0.7164  1.5180
17521TIP3    H273979   2.477   4.471   6.024 -0.4389 -0.1131  0.0936
17522TIP3   OH273980   2.870   6.036   5.255  0.1882  0.1629 -0.0516
17522TIP3    H173981   2.919   6.111   5.221  1.2895 -1.1129 -1.3227
17522TIP3    H273982   2.930   5.962   5.248 -1.3809 -1.1274 -0.1700
17523TIP3   OH273983   2.013   2.757  16.157  0.4953  0.0148 -0.1728
17523TIP3    H173984   2.103   2.789  16.156  1.1798 -1.8274  0.1044
17523TIP3    H273985   1.960   2.831  16.127  2.1689  0.8741 -1.0447
17524TIP3   OH273986   1.519   5.323   3.459  0.1990  0.0488 -0.3136
17524TIP3    H173987   1.569   5.360   3.386 -1.1547  0.4343 -1.0675
17524TIP3    H273988   1.534   5.384   3.531  1.2995 -0.1705 -0.3453
17525TIP3   OH273989   0.608   2.002   2.054  0.3505 -0.0145  0.4288
17525TIP3    H173990   0.646   2.042   1.976 -1.8186  1.0421 -0.1175
17525TIP3    H273991   0.565   2.074   2.100  0.0658 -0.9504  1.6737
17526TIP3   OH273992   3.188   4.340  14.980 -0.4761  0.1889  0.1161
17526TIP3    H173993   3.219   4.426  14.949 -0.5052  0.5790  1.1684
17526TIP3    H273994   3.153   4.298  14.901  0.1136  0.8930 -0.5301
17527TIP3   OH273995   6.679   0.321   3.705 -0.6067 -0.0076  0.3941
17527TIP3    H173996   6.609   0.348   3.647  0.6952 -0.8937 -1.6468
17527TIP3    H273997   6.719   0.402   3.736 -1.3636  0.4632  0.1281
17528TIP3   OH273998   5.994   5.887   4.129 -0.2282 -0.5051 -0.4159
17528TIP3    H173999   5.948   5.958   4.083 -0.5603  0.1475  0.9091
17528TIP3    H274000   6.086   5.912   4.126 -0.0773 -1.1531 -1.9122
17529TIP3   OH274001   5.599   1.117  11.199 -0.2165  0.4758  0.0037
17529TIP3    H174002   5.678   1.147  11.155  0.1948 -0.0537  0.3843
17529TIP3    H274003   5.623   1.110  11.291 -0.3256 -0.9469 -0.0655
17530TIP3   OH274004   2.748   4.454   5.195 -0.2952  0.1067 -0.4028
17530TIP3    H174005   2.722   4.395   5.266 -0.6565  0.5457 -0.1753
17530TIP3    H274006   2.677   4.446   5.130 -0.4779  0.4984 -0.2514
17531TIP3   OH274007   6.050   3.088  13.300  0.0085 -0.6134  0.1836
17531TIP3    H174008   6.034   3.071  13.393 -1.0383  1.1067  0.3427
17531TIP3    H274009   5.963   3.083  13.259  0.2918 -0.0748 -0.4946
17532TIP3   OH274010   3.793   5.692   1.992 -0.8322  0.2773 -0.0824
17532TIP3    H174011   3.850   5.644   1.931 -2.5791 -1.0927 -0.6670
17532TIP3    H274012   3.734   5.625   2.027 -1.7356  1.5883  0.9341
17533TIP3   OH274013   2.915   0.374  16.746  0.1540  1.1973  0.1241
17533TIP3    H174014   2.927   0.363  16.840 -0.6348  0.6137  0.1574
17533TIP3    H274015   2.964   0.302  16.707  2.2691  2.6376 -0.0194
17534TIP3   OH274016   0.115   0.432  17.100  0.0788 -0.0410 -0.2883
17534TIP3    H174017   0.181   0.479  17.048 -0.2119  0.7306  0.0271
17534TIP3    H274018   0.057   0.501  17.132  1.1354 -0.3165  2.3567
17535TIP3   OH274019   6.545   6.204   4.657 -0.4292 -0.0215  0.2445
17535TIP3    H174020   6.459   6.161   4.654 -0.6320  0.2115  2.1135
17535TIP3    H274021   6.560   6.232   4.567 -1.2499 -2.1331 -0.5942
17536TIP3   OH274022   2.369   3.321   2.115  0.1781 -0.0151  0.6706
17536TIP3    H174023   2.301   3.374   2.156  1.9054  1.5212  1.6362
17536TIP3    H274024   2.392   3.255   2.182 -0.7053 -0.8589  0.1513
17537TIP3   OH274025   0.714   6.584   1.984  0.2469  0.1349 -0.1344
17537TIP3    H174026   0.741   6.494   2.001  0.3246  0.0561 -0.6541
17537TIP3    H274027   0.720   6.593   1.889 -2.9833 -0.3565 -0.4689
17538TIP3   OH274028   1.898   2.309   5.916  0.4122  0.0131 -0.2291
17538TIP3    H174029   1.952   2.274   5.986  0.5296 -0.9915 -0.8152
17538TIP3    H274030   1.841   2.374   5.959  0.4807 -0.5911  0.7820
17539TIP3   OH274031   6.142   3.470   0.074  0.0362 -0.2853 -0.1539
17539TIP3    H174032   6.082   3.414   0.026  0.7350  0.5627 -2.0470
17539TIP3    H274033   6.195   3.513   0.007  1.6633  0.2234  1.4028
17540TIP3   OH274034   6.275   5.310   0.916 -0.1643  0.1060 -0.2249
17540TIP3    H174035   6.360   5.273   0.941 -0.1743  0.0062 -0.3357
17540TIP3    H274036   6.255   5.268   0.833  0.8926  2.0329 -1.5024
17541TIP3   OH274037   4.940   2.127  14.259  0.3263  0.6147  0.0486
17541TIP3    H174038   4.972   2.041  14.284 -1.0682 -0.7794 -2.7583
17541TIP3    H274039   4.924   2.172  14.343  2.0552 -1.4447  1.5166
17542TIP3   OH274040   3.014   0.796   3.564 -0.5019 -0.5962  0.0502
17542TIP3    H174041   3.097   0.761   3.597 -0.7123 -0.5428  0.6324
17542TIP3    H274042   2.947   0.738   3.601 -1.3082  3.1891  5.0586
17543TIP3   OH274043   0.533   5.064  12.213 -0.0118 -0.2740  0.5090
17543TIP3    H174044   0.509   5.124  12.283 -0.6655 -1.3538  1.2408
17543TIP3    H274045   0.462   5.073  12.149 -0.4587 -0.7313  0.9286
17544TIP3   OH274046   2.159   0.681  11.411  0.4194  0.3632  0.2301
17544TIP3    H174047   2.249   0.653  11.398  0.0671 -0.4212 -0.5672
17544TIP3    H274048   2.106   0.606  11.384 -0.5182  1.5119 -1.2515
17545TIP3   OH274049   6.195   3.698   5.433 -0.2929  0.2970  0.0742
17545TIP3    H174050   6.223   3.766   5.494  0.8247  1.0907 -1.3184
17545TIP3    H274051   6.162   3.745   5.357 -1.4031 -0.6963 -0.0627
17546TIP3   OH274052   3.201   1.980  16.824  0.0158 -0.6320 -0.6333
17546TIP3    H174053   3.268   1.972  16.893 -0.1962 -0.2929 -0.3860
17546TIP3    H274054   3.231   1.921  16.755  2.0486  1.5428 -1.6979
17547TIP3   OH274055   4.785   5.717  14.859  0.5306  0.2339 -0.0058
17547TIP3    H174056   4.793   5.746  14.950  0.9984 -0.5309  0.1979
17547TIP3    H274057   4.748   5.793  14.813  0.8317  0.8159  0.7067
17548TIP3   OH274058   5.526   2.442   0.734 -0.3093  0.4516 -0.2745
17548TIP3    H174059   5.542   2.503   0.662 -1.4422 -0.4732 -1.3207
17548TIP3    H274060   5.591   2.373   0.722  1.0167  1.4536  0.9485
17549TIP3   OH274061   1.172   5.269  12.781  0.4206 -0.1157  0.3360
17549TIP3    H174062   1.099   5.243  12.724 -0.3661 -0.2693  1.4183
17549TIP3    H274063   1.189   5.191  12.835  1.0463  0.0945  0.4475
17550TIP3   OH274064   5.058   5.397  16.639  0.0922  0.1309 -0.6538
17550TIP3    H174065   5.067   5.302  16.644  2.0321  0.3628  1.0175
17550TIP3    H274066   5.118   5.430  16.706 -3.0740  2.4282  1.1893
17551TIP3   OH274067   5.155   2.309   4.202  0.2051 -0.1921 -0.2304
17551TIP3    H174068   5.134   2.339   4.113  1.2369 -0.4859 -0.5785
17551TIP3    H274069   5.089   2.242   4.221  0.4836 -0.7115 -1.0923
17552TIP3   OH274070   1.774   1.102   2.673  0.5053  0.0158  0.1836
17552TIP3    H174071   1.833   1.148   2.732 -2.2486 -0.2295  3.2658
17552TIP3    H274072   1.708   1.168   2.649  0.3210 -0.5100 -0.8007
17553TIP3   OH274073   5.232   0.927  14.087  0.0838 -0.3043  0.2309
17553TIP3    H174074   5.164   0.888  14.143  2.9584 -2.6503  2.2448
17553TIP3    H274075   5.259   0.856  14.029 -0.8951  1.3404 -2.3445
17554TIP3   OH274076   3.051   5.116  15.722  0.3869  1.0674  0.1964
17554TIP3    H174077   3.094   5.172  15.657  1.5159  0.7542  0.6714
17554TIP3    H274078   2.993   5.176  15.770 -1.5170  1.0511 -1.9929
17555TIP3   OH274079   2.346   4.216   4.338 -0.9021 -0.1023 -0.1062
17555TIP3    H174080   2.370   4.150   4.272 -0.6721 -0.1793  0.0506
17555TIP3    H274081   2.370   4.299   4.298 -0.1133 -0.2004  0.1568
17556TIP3   OH274082   6.448   2.033  12.283 -0.0822 -0.5037 -0.1693
17556TIP3    H174083   6.542   2.027  12.265 -0.2930 -2.4695 -0.7719
17556TIP3    H274084   6.412   1.951  12.248 -1.6495 -0.9328  2.3248
17557TIP3   OH274085   4.514   0.712  16.129 -0.2322 -0.1583  0.3255
17557TIP3    H174086   4.590   0.674  16.172 -0.5369 -3.2292 -1.7294
17557TIP3    H274087   4.548   0.744  16.045 -0.6329  1.1990  0.6686
17558TIP3   OH274088   3.662   1.133  15.366  0.2815  0.3573  0.4164
17558TIP3    H174089   3.625   1.191  15.299 -0.1177  0.6011  0.8518
17558TIP3    H274090   3.757   1.146  15.358  0.2116  0.7750  0.2465
17559TIP3   OH274091   1.542   1.788  16.813 -0.0305  0.4976  0.6631
17559TIP3    H174092   1.535   1.749  16.900  1.8053  1.4843  1.2697
17559TIP3    H274093   1.619   1.845  16.818  0.5461 -0.0129 -1.8321
17560TIP3   OH274094   4.291   2.709   0.398 -0.5379  0.2413  0.4689
17560TIP3    H174095   4.300   2.641   0.331  0.7344 -0.1802  1.0608
17560TIP3    H274096   4.359   2.689   0.462 -2.6581 -0.2611  2.6724
17561TIP3   OH274097   0.231   4.709  17.074  0.5862  0.3859 -0.0584
17561TIP3    H174098   0.224   4.693  17.168 -0.6026 -1.4920 -0.4309
17561TIP3    H274099   0.276   4.793  17.067  2.2712 -0.2802  2.1574
17562TIP3   OH274100   2.826   3.237   0.708 -0.0686 -0.1716  0.6133
17562TIP3    H174101   2.798   3.319   0.669 -1.5121 -0.6828  0.5444
17562TIP3    H274102   2.900   3.209   0.654 -0.0204  0.7166  0.2028
17563TIP3   OH274103   1.966   4.572   3.717 -0.1923 -0.2889 -0.6042
17563TIP3    H174104   2.056   4.539   3.718  0.2881  0.9935  0.8374
17563TIP3    H274105   1.926   4.533   3.795 -0.7633 -0.4968 -0.9959
17564TIP3   OH274106   1.884   5.952  10.919 -0.1505 -0.2363 -0.0853
17564TIP3    H174107   1.968   5.997  10.911 -0.2234  0.0262  0.6035
17564TIP3    H274108   1.901   5.880  10.980 -0.0800 -1.0292 -1.0368
17565TIP3   OH274109   2.511   5.583  14.005  0.0233 -0.6542 -0.6627
17565TIP3    H174110   2.604   5.604  13.993  0.6272 -2.5773  0.4201
17565TIP3    H274111   2.509   5.487  14.015 -1.7853 -0.4079  1.8128
17566TIP3   OH274112   5.978   5.125   3.919 -0.4984  0.2116 -0.4666
17566TIP3    H174113   5.993   5.206   3.968 -2.1581  1.0215 -1.2581
17566TIP3    H274114   5.889   5.099   3.942 -0.1686 -1.1118 -0.6368
17567TIP3   OH274115   5.676   3.955  17.228 -0.5406  0.5091 -0.1993
17567TIP3    H174116   5.634   3.873  17.253  1.5812 -0.2719  0.9523
17567TIP3    H274117   5.755   3.959  17.282 -0.9315  3.6356  0.2368
17568TIP3   OH274118   4.781   4.517  11.440 -0.1440 -0.0957 -0.5342
17568TIP3    H174119   4.823   4.478  11.364  0.9370 -0.0448  0.0278
17568TIP3    H274120   4.850   4.520  11.507 -0.5304  1.6141 -0.1711
17569TIP3   OH274121   0.502   6.167   6.638 -0.2516  0.0346  0.1169
17569TIP3    H174122   0.587   6.145   6.600 -0.1506  0.6017  0.0205
17569TIP3    H274123   0.501   6.121   6.722  1.4322  2.5269  1.5521
17570TIP3   OH274124   6.401   1.825   2.277 -0.1071  0.6239 -0.7247
17570TIP3    H174125   6.386   1.763   2.347  1.2106  0.7142 -0.3572
17570TIP3    H274126   6.388   1.775   2.197  1.4889 -0.2858 -0.4393
17571TIP3   OH274127   5.902   1.770   4.140 -0.1537 -0.4287 -0.2732
17571TIP3    H174128   5.927   1.802   4.227  0.2489 -1.4448 -0.0037
17571TIP3    H274129   5.826   1.822   4.116 -0.4697 -0.3720  0.8303
17572TIP3   OH274130   6.347   0.342   5.984 -0.3670  0.2990 -0.0432
17572TIP3    H174131   6.331   0.259   6.030  1.6630 -0.6447 -0.9414
17572TIP3    H274132   6.337   0.409   6.050 -1.6268 -0.7189  0.8121
17573TIP3   OH274133   2.612   3.272   3.777 -0.4552  0.1542 -0.1739
17573TIP3    H174134   2.561   3.333   3.724 -0.7563 -0.6264 -0.8030
17573TIP3    H274135   2.563   3.189   3.772  0.1537 -0.2469  0.3343
17574TIP3   OH274136   5.477   4.377   2.828  0.2391  0.3789 -0.4932
17574TIP3    H174137   5.387   4.394   2.854 -0.0670 -0.5962 -0.8881
17574TIP3    H274138   5.516   4.332   2.903 -0.2017 -1.0406 -1.0908
17575TIP3   OH274139   0.950   2.852   2.244  0.0091  0.5328 -0.1500
17575TIP3    H174140   0.887   2.889   2.182 -0.4427  0.0503  0.0183
17575TIP3    H274141   1.033   2.852   2.197 -0.3215  0.2149 -0.7324
17576TIP3   OH274142   2.310   0.433   1.110 -0.0152 -0.3228  0.5632
17576TIP3    H174143   2.342   0.344   1.121  0.4583 -0.0931  1.0587
17576TIP3    H274144   2.281   0.437   1.019  1.6053 -0.4501  0.0291
17577TIP3   OH274145   5.939   1.494   1.991 -0.0901 -0.0189  0.3421
17577TIP3    H174146   5.989   1.422   2.028 -1.6218 -0.3630  1.7501
17577TIP3    H274147   5.853   1.489   2.032 -0.5955  1.9081 -0.3933
17578TIP3   OH274148   4.217   3.452   4.925 -0.0834  0.4918  0.0147
17578TIP3    H174149   4.232   3.525   4.986  1.1783  1.1836 -1.0886
17578TIP3    H274150   4.165   3.491   4.854  0.3607  0.2496 -0.4447
17579TIP3   OH274151   2.244   5.918  14.731  0.6093 -0.4978 -0.0479
17579TIP3    H174152   2.326   5.880  14.698  1.0211 -1.0394  1.5359
17579TIP3    H274153   2.273   5.990  14.788 -0.1272  1.4593 -2.0579
17580TIP3   OH274154   3.391   3.547   3.409 -0.4991  0.0610 -0.0995
17580TIP3    H174155   3.427   3.558   3.321  1.7920  0.4436  0.8410
17580TIP3    H274156   3.369   3.454   3.414 -4.2213  0.7173 -2.3261
17581TIP3   OH274157   1.939   4.968  14.509  0.5361 -0.0556  0.1343
17581TIP3    H174158   1.884   4.978  14.586  0.2472  0.1550 -0.1011
17581TIP3    H274159   2.025   4.943  14.544  0.9638  2.0348  0.6556
17582TIP3   OH274160   5.195   3.024  11.536  0.4659 -0.2707  0.0232
17582TIP3    H174161   5.205   3.005  11.629  0.2661  0.6335  0.2364
17582TIP3    H274162   5.155   3.111  11.533  0.7149 -0.1773 -0.9076
17583TIP3   OH274163   3.640   4.573  13.581 -0.4228 -0.0918  0.0641
17583TIP3    H174164   3.633   4.656  13.629 -1.4887 -0.0426 -0.1663
17583TIP3    H274165   3.734   4.554  13.581 -0.3034  0.3995  1.3324
17584TIP3   OH274166   4.861   1.136  11.403  0.3217  0.7049  0.0119
17584TIP3    H174167   4.835   1.145  11.311 -0.2306 -1.7308 -0.0830
17584TIP3    H274168   4.957   1.138  11.400  0.2959  2.1987 -0.4286
17585TIP3   OH274169   2.807   5.318  13.662  0.3245  0.7016 -0.2219
17585TIP3    H174170   2.859   5.342  13.585  0.9780 -1.4792 -0.5145
17585TIP3    H274171   2.861   5.345  13.737  2.1250 -1.8299 -0.5121
17586TIP3   OH274172   5.221   2.971  16.621  0.4132  0.0770  0.4471
17586TIP3    H174173   5.163   2.940  16.690  0.3196 -2.3058 -0.6781
17586TIP3    H274174   5.280   2.898  16.604  2.7433  1.9016  0.4631
17587TIP3   OH274175   3.701   4.031   3.458 -0.2526  0.3954  0.7535
17587TIP3    H174176   3.656   3.957   3.419  0.0674 -0.0214  1.1703
17587TIP3    H274177   3.793   4.006   3.458 -0.0307  1.1706  0.0663
17588TIP3   OH274178   5.524   2.464  12.334 -0.8018  0.1689  0.0707
17588TIP3    H174179   5.507   2.380  12.292  0.6047  0.7972 -1.8238
17588TIP3    H274180   5.598   2.447  12.393 -0.0194  0.2175 -0.8736
17589TIP3   OH274181   3.381   3.984  15.062  0.0910  0.4568  0.0225
17589TIP3    H174182   3.468   4.014  15.037  0.8898 -0.9623  0.9922
17589TIP3    H274183   3.345   4.056  15.114  0.3636  1.3773 -1.0494
17590TIP3   OH274184   5.964   6.460  14.718 -0.0468 -0.2857  0.1053
17590TIP3    H174185   5.892   6.477  14.658  0.7487  0.5039 -0.6348
17590TIP3    H274186   5.966   6.536  14.776  1.1147  0.3846 -0.8052
17591TIP3   OH274187   0.410   3.048  13.454  0.0273 -0.0174  0.3723
17591TIP3    H174188   0.478   3.115  13.454 -0.1419  0.1543  0.2786
17591TIP3    H274189   0.336   3.088  13.500 -0.5673  0.3590 -0.8997
17592TIP3   OH274190   0.737   3.162   5.575  0.1761  0.0778  0.5283
17592TIP3    H174191   0.665   3.104   5.548  1.1833  0.0270 -2.2502
17592TIP3    H274192   0.789   3.110   5.636 -0.4835 -0.9489  0.2177
17593TIP3   OH274193   3.739   1.981   3.131  0.8304  0.1048  0.3796
17593TIP3    H174194   3.806   1.933   3.081 -0.8154 -1.1608 -0.6686
17593TIP3    H274195   3.660   1.928   3.121 -0.8656  2.6835 -0.1991
17594TIP3   OH274196   6.143   4.754   1.588 -0.3015  0.2795  0.1030
17594TIP3    H174197   6.208   4.703   1.636 -2.4127  0.2430  3.1456
17594TIP3    H274198   6.114   4.820   1.651 -1.6052  1.6657 -1.9034
17595TIP3   OH274199   5.597   4.379  15.352 -0.1217 -0.3458 -0.1085
17595TIP3    H174200   5.632   4.372  15.264  0.0650  0.3341 -0.0966
17595TIP3    H274201   5.514   4.331  15.350  0.5743 -1.5609 -0.2623
17596TIP3   OH274202   6.630   1.757  10.355  0.1145 -0.3915 -0.6069
17596TIP3    H174203   6.653   1.828  10.415 -0.7088 -1.8655  1.5287
17596TIP3    H274204   6.591   1.800  10.280  1.1348  1.5096 -0.0814
17597TIP3   OH274205   3.749   1.091  12.126  0.9828 -0.2537 -0.7551
17597TIP3    H174206   3.653   1.093  12.120  0.8765 -2.5411 -0.3101
17597TIP3    H274207   3.768   1.120  12.216  0.7186  0.2811 -0.8722
17598TIP3   OH274208   4.608   6.099  11.070  0.9380 -0.3326  0.1660
17598TIP3    H174209   4.522   6.120  11.105  1.9102  0.4557  2.1735
17598TIP3    H274210   4.632   6.174  11.015  0.1186 -0.8210 -0.8746
17599TIP3   OH274211   5.008   2.283   1.826 -0.2948 -0.5256  0.0025
17599TIP3    H174212   4.969   2.200   1.799  1.1025 -1.4648  0.8015
17599TIP3    H274213   5.045   2.319   1.745 -2.0948 -0.0004 -0.6066
17600TIP3   OH274214   5.767   5.252  15.824  0.0538 -0.3409 -0.0048
17600TIP3    H174215   5.703   5.196  15.869  1.0083 -0.4991  1.1753
17600TIP3    H274216   5.730   5.265  15.737 -1.6048 -0.4152  0.6715
17601TIP3   OH274217   1.712   3.625  12.395  0.5650  0.4159  0.1752
17601TIP3    H174218   1.747   3.640  12.483 -0.7561 -1.0024  0.9634
17601TIP3    H274219   1.741   3.536  12.373  1.7531  1.1351 -1.2559
17602TIP3   OH274220   3.777   0.016  16.308 -0.1227  0.1254 -0.3455
17602TIP3    H174221   3.804  -0.027  16.227 -1.3003 -0.7434 -0.2907
17602TIP3    H274222   3.684  -0.006  16.317 -0.4466  1.7318  0.2960
17603TIP3   OH274223   0.501   5.152   1.441 -0.2406  0.4393 -0.5003
17603TIP3    H174224   0.587   5.140   1.480 -1.2531 -4.5635  0.5048
17603TIP3    H274225   0.515   5.135   1.347 -0.1265 -0.2980 -0.3503
17604TIP3   OH274226   0.706   4.791   3.148 -0.2980 -0.5271  0.2427
17604TIP3    H174227   0.618   4.793   3.109 -0.7810 -5.3563  0.7022
17604TIP3    H274228   0.765   4.816   3.077 -1.8535  0.1148 -0.8498
17605TIP3   OH274229   2.369   3.832   2.296 -0.1843  0.3729 -0.0976
17605TIP3    H174230   2.310   3.860   2.366 -3.0234 -0.7313 -1.9635
17605TIP3    H274231   2.399   3.745   2.322  2.6632  1.9407  2.0561
17606TIP3   OH274232   5.280   4.511   5.076  0.4076 -0.1347  0.0167
17606TIP3    H174233   5.248   4.563   5.149  0.5898 -0.4632  0.3282
17606TIP3    H274234   5.215   4.440   5.066  1.0409 -0.8108  0.6579
17607TIP3   OH274235   1.189   1.233   3.350 -0.1066 -0.2067  0.5985
17607TIP3    H174236   1.271   1.254   3.395 -0.2630 -0.0754  0.8271
17607TIP3    H274237   1.179   1.302   3.285 -1.2826  1.1911  2.2216
17608TIP3   OH274238   3.383   4.308   2.591 -0.7733  0.7031 -0.1403
17608TIP3    H174239   3.477   4.326   2.593 -0.6223 -0.1268  0.6766
17608TIP3    H274240   3.362   4.281   2.681 -1.2523 -1.7388 -0.9429
17609TIP3   OH274241   3.398   5.347   5.601  0.1049  0.2418  0.1765
17609TIP3    H174242   3.338   5.403   5.651  2.0458  1.0692  1.6414
17609TIP3    H274243   3.407   5.268   5.653 -0.2656 -0.1859 -0.3998
17610TIP3   OH274244   1.719   4.629   5.667  0.1581 -0.5950 -0.4229
17610TIP3    H174245   1.705   4.724   5.662  0.5438 -0.5643 -0.8600
17610TIP3    H274246   1.717   4.610   5.761  0.2085 -0.1335 -0.3259
17611TIP3   OH274247   0.149   1.517  15.085  0.4097  0.2587 -0.3574
17611TIP3    H174248   0.191   1.591  15.128 -1.9856  1.0776  0.6382
17611TIP3    H274249   0.055   1.531  15.098 -0.1757 -1.8783 -1.9236
17612TIP3   OH274250   0.895   2.037  16.321  0.1583  0.6929 -0.0848
17612TIP3    H174251   0.948   2.115  16.332  1.6347 -0.2946 -0.0278
17612TIP3    H274252   0.957   1.969  16.294 -0.5476 -1.2597  2.9730
17613TIP3   OH274253   4.103   5.936   5.408  0.0298 -0.3829  0.1642
17613TIP3    H174254   4.094   5.928   5.503  0.7995 -0.1981  0.2559
17613TIP3    H274255   4.097   6.030   5.392  0.4993 -0.3616  0.0990
17614TIP3   OH274256   4.961   4.596  15.175  0.4429 -0.1275  0.4856
17614TIP3    H174257   4.992   4.522  15.123  2.5934  0.4060  0.9624
17614TIP3    H274258   4.877   4.567  15.210  0.2581 -1.5225 -1.0509
17615TIP3   OH274259   5.468   5.679  11.440  0.2121 -0.2837  0.5792
17615TIP3    H174260   5.386   5.667  11.394  0.3157  1.0283  0.0533
17615TIP3    H274261   5.530   5.621  11.395  0.6342  1.9507 -1.7573
17616TIP3   OH274262   0.591   0.352  16.052 -0.0565  0.5043  0.2268
17616TIP3    H174263   0.589   0.276  16.111  0.4732  0.8898  0.7475
17616TIP3    H274264   0.499   0.377  16.043 -0.2874 -0.5213 -0.3777
17617TIP3   OH274265   0.821   2.985  11.187 -0.6085  0.1845  0.0184
17617TIP3    H174266   0.908   3.025  11.184 -0.8653  0.6764 -0.9463
17617TIP3    H274267   0.786   2.995  11.099 -1.8541  0.4609  0.5282
17618TIP3   OH274268   0.402   3.454  16.008 -0.2628 -0.4280 -0.2011
17618TIP3    H174269   0.369   3.528  16.059 -0.0497  0.2531 -1.0313
17618TIP3    H274270   0.478   3.422  16.057 -0.1634  0.1096 -0.0058
17619TIP3   OH274271   6.461   5.325  13.118 -0.1712 -0.4352 -0.1062
17619TIP3    H174272   6.451   5.246  13.066 -1.3570  0.3768 -1.1191
17619TIP3    H274273   6.375   5.341  13.156  0.5567 -0.7525  1.7450
17620TIP3   OH274274   4.483   4.903  11.996 -0.2871 -0.3577  0.3427
17620TIP3    H174275   4.444   4.916  12.083 -0.2781  1.3570  0.1168
17620TIP3    H274276   4.568   4.863  12.014 -1.2131 -2.0749  0.9721
17621TIP3   OH274277   1.015   0.644  12.944  0.0037 -0.2023 -0.3527
17621TIP3    H174278   1.023   0.676  13.033 -0.1972 -2.4998  0.5297
17621TIP3    H274279   1.068   0.703  12.891  0.7970  0.6752  1.4139
17622TIP3   OH274280   0.920   2.271   1.361 -0.1622 -0.0258 -0.0131
17622TIP3    H174281   0.870   2.328   1.303 -0.1235 -0.6154 -0.6395
17622TIP3    H274282   0.918   2.186   1.317 -1.9341 -1.0111  1.9069
17623TIP3   OH274283   3.100   2.075   2.837 -0.3741 -0.0725 -1.0769
17623TIP3    H174284   3.009   2.048   2.836 -0.1234 -0.9259 -1.6955
17623TIP3    H274285   3.145   2.011   2.782  0.4104  0.9907 -1.6972
17624TIP3   OH274286   2.923   0.890   1.840  0.1661  0.0833 -0.5461
17624TIP3    H174287   2.867   0.817   1.814  0.9982 -0.4309 -0.8968
17624TIP3    H274288   2.940   0.939   1.759 -1.2972  1.3102 -0.1316
17625TIP3   OH274289   5.750   2.760   1.875  0.3995 -0.1227  0.1907
17625TIP3    H174290   5.709   2.675   1.861  0.7530 -0.8006  3.0988
17625TIP3    H274291   5.686   2.823   1.842 -0.4642 -1.4364 -0.6836
17626TIP3   OH274292   2.249   5.229  14.842  0.1261  0.0139 -0.3654
17626TIP3    H174293   2.256   5.202  14.934 -0.5041  0.4584 -0.1759
17626TIP3    H274294   2.212   5.317  14.847  1.2705  0.5379 -1.0037
17627TIP3   OH274295   1.446   1.846  12.961 -0.1760 -0.3313 -0.7172
17627TIP3    H174296   1.538   1.860  12.939  0.0307  1.5984  1.2592
17627TIP3    H274297   1.446   1.825  13.054 -1.4087 -4.3236 -1.4808
17628TIP3   OH274298   3.534   4.660   0.232 -0.1829  0.1803 -0.1522
17628TIP3    H174299   3.604   4.720   0.258 -0.6870  0.2719  1.0012
17628TIP3    H274300   3.546   4.583   0.287  0.4285 -0.7720 -1.5888
17629TIP3   OH274301   2.854   3.795  12.564  0.3316  0.1969 -0.4762
17629TIP3    H174302   2.852   3.699  12.560 -3.2732  0.1357  1.3526
17629TIP3    H274303   2.926   3.815  12.624 -0.6239 -1.5003  1.2890
17630TIP3   OH274304   5.041   5.324  14.901 -0.4278  0.4258 -0.1246
17630TIP3    H174305   4.952   5.358  14.899 -0.8566 -0.7030 -2.1824
17630TIP3    H274306   5.087   5.374  14.833  0.1667  0.1040  0.0332
17631TIP3   OH274307   2.295   1.762  11.343  0.0852  0.1484 -0.9842
17631TIP3    H174308   2.225   1.825  11.329 -0.8439 -0.9086 -1.2227
17631TIP3    H274309   2.364   1.788  11.282 -0.0462  1.2726 -0.6520
17632TIP3   OH274310   0.258   4.928  11.525  0.3099  0.6643  0.2229
17632TIP3    H174311   0.303   4.858  11.478 -2.1175 -0.3013 -0.7280
17632TIP3    H274312   0.253   5.000  11.461 -0.7102  0.2784 -0.1301
17633TIP3   OH274313   0.391   1.111  14.158  0.4836 -0.9723 -0.0170
17633TIP3    H174314   0.439   1.129  14.077 -1.1445  1.4768 -0.4851
17633TIP3    H274315   0.429   1.171  14.222 -0.1893 -0.8415  0.2647
17634TIP3   OH274316   3.142   6.122  16.445 -0.0502 -0.0408 -0.5505
17634TIP3    H174317   3.079   6.142  16.515 -0.0681 -1.4178 -0.1378
17634TIP3    H274318   3.088   6.118  16.366 -0.1044  1.0786 -0.5752
17635TIP3   OH274319   6.350   0.464  12.707  0.3133  0.0697 -0.1493
17635TIP3    H174320   6.408   0.400  12.666 -1.3026  0.3654 -2.9761
17635TIP3    H274321   6.291   0.411  12.761  0.9190 -0.5505 -0.0971
17636TIP3   OH274322   3.822   4.436  11.625  0.1024 -0.3971  0.0972
17636TIP3    H174323   3.898   4.489  11.602  0.3976 -1.1630 -0.7496
17636TIP3    H274324   3.841   4.403  11.713  1.0152 -1.0550 -0.3439
17637TIP3   OH274325   1.827   3.355   1.758  0.0923 -0.4263  0.5450
17637TIP3    H174326   1.825   3.261   1.776  0.5226 -0.3387  1.0765
17637TIP3    H274327   1.920   3.375   1.744 -0.1791 -0.4123 -1.4181
17638TIP3   OH274328   3.307   1.840   1.682  0.3731 -0.1280 -0.0542
17638TIP3    H174329   3.389   1.837   1.732 -0.6518 -1.1680  1.6057
17638TIP3    H274330   3.272   1.928   1.699  1.2090  0.3727 -0.8867
17639TIP3   OH274331   5.566   3.901  15.389  0.2141  0.1063  0.3872
17639TIP3    H174332   5.543   3.810  15.408  1.2928 -0.2722 -0.0574
17639TIP3    H274333   5.506   3.927  15.320 -0.3603 -0.1387  0.7877
17640TIP3   OH274334   0.580   1.041   4.935  0.2795 -0.1514  0.5774
17640TIP3    H174335   0.523   1.102   4.982 -1.3322 -0.7567 -0.5541
17640TIP3    H274336   0.669   1.066   4.960 -0.4408  1.6040  1.3931
17641TIP3   OH274337   0.775   5.329   2.890 -0.4980 -0.4260  0.2325
17641TIP3    H174338   0.863   5.363   2.876 -0.6055  0.2519  1.1153
17641TIP3    H274339   0.789   5.246   2.935 -0.3093 -0.1185  0.7541
17642TIP3   OH274340   4.975   6.429   1.156 -0.0391 -0.3508 -0.3705
17642TIP3    H174341   4.885   6.398   1.162 -0.4699  1.1667  1.5407
17642TIP3    H274342   4.991   6.439   1.062 -1.3745 -1.9755 -0.7881
17643TIP3   OH274343   6.255   5.720   4.269 -0.3831  0.1140  0.2479
17643TIP3    H174344   6.340   5.680   4.288 -0.2628 -0.1592 -0.8576
17643TIP3    H274345   6.268   5.813   4.289  0.8316  0.4610 -1.9859
17644TIP3   OH274346   1.050   6.495  11.163  0.0618 -0.0402  0.2865
17644TIP3    H174347   1.146   6.500  11.160  0.1227 -1.1305  0.1140
17644TIP3    H274348   1.025   6.472  11.073 -0.5476  2.7593 -0.3061
17645TIP3   OH274349   2.725   2.827  16.914  0.0183 -0.2113  0.4941
17645TIP3    H174350   2.650   2.769  16.918 -0.6981  0.5174 -1.7569
17645TIP3    H274351   2.689   2.915  16.927  0.9069 -0.0969  2.4488
17646TIP3   OH274352   3.776   6.357  14.956  0.4829  0.4153 -0.5344
17646TIP3    H174353   3.811   6.268  14.963  1.1117  0.6155 -1.0516
17646TIP3    H274354   3.719   6.367  15.033  1.3510 -0.0167  0.1820
17647TIP3   OH274355   4.542   1.856  13.667  0.8372  0.3898 -0.1291
17647TIP3    H174356   4.540   1.862  13.763 -0.2970  1.2846 -0.1897
17647TIP3    H274357   4.560   1.945  13.637 -2.7709  0.9764 -0.7986
17648TIP3   OH274358   1.987   1.643  15.780  0.0551 -0.0307  0.9264
17648TIP3    H174359   2.059   1.606  15.729 -0.8061 -1.4868  0.7400
17648TIP3    H274360   2.023   1.724  15.816  0.9766  0.5359 -1.1996
17649TIP3   OH274361   4.475   4.402   0.391 -0.1964  0.1469  0.0143
17649TIP3    H174362   4.535   4.329   0.407 -1.3813 -0.9611 -0.5549
17649TIP3    H274363   4.533   4.476   0.370  1.0054 -0.6170  0.5696
17650TIP3   OH274364   4.077   2.942  11.505 -0.0864  0.0936 -0.2943
17650TIP3    H174365   4.138   2.954  11.432 -0.9499 -1.4865 -1.2950
17650TIP3    H274366   4.021   2.869  11.478  0.1842 -1.1309  2.3571
17651TIP3   OH274367   2.900   4.635   6.103 -0.6190 -0.0529  0.6628
17651TIP3    H174368   2.836   4.697   6.068 -1.4347 -1.3439 -0.2067
17651TIP3    H274369   2.957   4.616   6.028 -1.3618 -1.5596  0.4500
17652TIP3   OH274370   2.248   0.357  14.807  0.6213  0.3832  0.1260
17652TIP3    H174371   2.293   0.431  14.765  0.3903  0.5121  0.1050
17652TIP3    H274372   2.170   0.396  14.846  0.0986  0.0262 -0.5432
17653TIP3   OH274373   6.192   4.990   5.958  0.3604 -0.5158 -0.7163
17653TIP3    H174374   6.243   5.059   6.000  1.9077 -1.1045 -1.6023
17653TIP3    H274375   6.197   4.916   6.018 -0.4798 -0.1913 -0.2332
17654TIP3   OH274376   5.963   5.444   4.374  0.5231  0.6184  0.1766
17654TIP3    H174377   5.936   5.536   4.364 -1.4851  0.0733  0.4053
17654TIP3    H274378   5.959   5.408   4.286  0.2122  0.4619  0.2527
17655TIP3   OH274379   0.880   2.090  15.171 -0.5499  0.4846  0.7545
17655TIP3    H174380   0.924   2.064  15.090  0.8591  2.0221  0.9986
17655TIP3    H274381   0.789   2.104  15.145 -0.5341 -0.9687 -0.1337
17656TIP3   OH274382   1.974   1.974  10.597  0.0862 -0.2617 -0.5000
17656TIP3    H174383   2.015   2.060  10.586  0.2016 -0.2649 -0.1017
17656TIP3    H274384   1.963   1.964  10.691 -2.0816  0.3099 -0.6879
17657TIP3   OH274385   5.338   2.344  12.883 -0.4962  0.0211 -0.1029
17657TIP3    H174386   5.389   2.283  12.830  1.5004  1.2109  0.4217
17657TIP3    H274387   5.375   2.336  12.971 -3.0746 -1.1484  0.9350
17658TIP3   OH274388   0.592   3.148  16.723  0.1291  0.0696  0.0816
17658TIP3    H174389   0.545   3.096  16.657 -0.8732  0.9481  0.0893
17658TIP3    H274390   0.546   3.232  16.724  1.3334  0.7342  0.5323
17659TIP3   OH274391   6.409   6.734  13.328  0.0930  0.1949  0.1815
17659TIP3    H174392   6.375   6.761  13.243  1.0115 -0.4123 -0.3930
17659TIP3    H274393   6.335   6.742  13.387 -0.7558 -0.0691 -0.8256
17660TIP3   OH274394   6.205   5.194  11.344 -0.4683  0.2854  0.3013
17660TIP3    H174395   6.113   5.174  11.328  0.3135 -2.2835 -1.3195
17660TIP3    H274396   6.214   5.190  11.439 -2.1013  0.9790  0.5032
17661TIP3   OH274397   5.471   3.820  13.300 -0.2365 -0.1191 -0.5047
17661TIP3    H174398   5.434   3.865  13.376 -2.3429 -2.8078  0.1489
17661TIP3    H274399   5.441   3.871  13.225 -0.2786  1.1281  0.3455
17662TIP3   OH274400   2.009   2.663  14.734 -0.2865 -0.7175 -0.3655
17662TIP3    H174401   2.012   2.742  14.787 -1.9246  0.4559 -1.9204
17662TIP3    H274402   2.060   2.599  14.782  0.0432  0.9307  1.5365
17663TIP3   OH274403   6.522   5.204  16.994 -0.4260 -0.6610 -0.5743
17663TIP3    H174404   6.543   5.142  17.064  1.6224  0.9991  0.3508
17663TIP3    H274405   6.473   5.274  17.038  0.2894  0.0647 -0.9119
17664TIP3   OH274406   4.109   4.341  12.962 -0.4917 -0.1272 -0.6932
17664TIP3    H174407   4.099   4.292  12.881  1.4124 -0.3834 -0.7897
17664TIP3    H274408   4.112   4.275  13.031 -0.1837 -0.0203 -0.6025
17665TIP3   OH274409   4.008   5.217  14.640  0.0210 -0.0432  0.1459
17665TIP3    H174410   4.054   5.211  14.556 -1.5330 -0.4612 -0.6916
17665TIP3    H274411   4.059   5.280  14.690  1.3436 -0.2762 -0.8662
17666TIP3   OH274412   0.247   2.610  11.279  0.1130 -0.1032  0.5005
17666TIP3    H174413   0.288   2.524  11.269  0.9170  0.0390  2.3417
17666TIP3    H274414   0.170   2.594  11.333  0.8289  0.4548  1.7246
17667TIP3   OH274415   1.699   3.527  16.337  0.3149 -0.3366  0.1892
17667TIP3    H174416   1.611   3.497  16.360 -0.0147 -0.2898 -1.0262
17667TIP3    H274417   1.724   3.473  16.262  1.5109 -0.6734  0.8152
17668TIP3   OH274418   2.596   4.336   4.813 -0.0583  0.3885  0.2284
17668TIP3    H174419   2.689   4.343   4.835 -0.1608  1.8175  0.2663
17668TIP3    H274420   2.594   4.312   4.721  0.3415 -0.5146  0.4468
17669TIP3   OH274421   2.681   0.029   5.262 -0.4123 -0.5644 -0.0891
17669TIP3    H174422   2.596   0.027   5.305 -0.6240  0.2549 -0.4601
17669TIP3    H274423   2.663   0.003   5.172 -0.4961  0.9690 -0.5261
17670TIP3   OH274424   0.084   0.398  10.921 -0.5320  0.3361 -0.6019
17670TIP3    H174425   0.128   0.341  10.985 -0.6845 -1.1039 -1.7645
17670TIP3    H274426  -0.001   0.417  10.961  1.2232  3.5044  1.8715
17671TIP3   OH274427   2.925   5.861  10.977 -0.6083 -0.1221 -0.4894
17671TIP3    H174428   2.833   5.845  10.954 -0.9138  1.2424 -0.2576
17671TIP3    H274429   2.961   5.905  10.900 -0.2942 -0.1223 -0.3429
17672TIP3   OH274430   5.250   4.560  14.430 -0.1156 -0.1094  0.3390
17672TIP3    H174431   5.252   4.652  14.403 -1.1689  0.6177  2.6508
17672TIP3    H274432   5.326   4.521  14.386 -1.3172  1.1480 -3.0303
17673TIP3   OH274433   4.554   6.236   5.791 -0.1791  0.3385 -0.0806
17673TIP3    H174434   4.638   6.249   5.747  0.4450 -1.1534  0.6380
17673TIP3    H274435   4.502   6.184   5.729  0.4085 -1.0725  0.6154
17674TIP3   OH274436   1.140   4.612  13.645  0.2740  0.1067  0.2337
17674TIP3    H174437   1.055   4.655  13.651  0.0249 -0.3594  0.0566
17674TIP3    H274438   1.167   4.598  13.736  0.3589  0.6350  0.2935
17675TIP3   OH274439   5.121   2.537   2.656  0.3086  0.1368 -0.2868
17675TIP3    H174440   5.197   2.482   2.638 -0.7237 -0.9392 -1.4293
17675TIP3    H274441   5.109   2.531   2.751  2.5839  1.5822  0.1338
17676TIP3   OH274442   0.309   5.467  11.713 -0.4193  0.3321 -0.3176
17676TIP3    H174443   0.356   5.384  11.712 -1.1147 -0.0875  0.9870
17676TIP3    H274444   0.217   5.442  11.721 -0.5997  1.2390  0.4990
17677TIP3   OH274445   3.817   5.719  12.228 -0.6046 -0.0381 -0.4610
17677TIP3    H174446   3.801   5.629  12.255 -3.7755 -0.3812 -3.1958
17677TIP3    H274447   3.886   5.713  12.162 -1.2126 -0.5142 -1.0493
17678TIP3   OH274448   4.237   2.409   0.246 -0.3927  0.1526 -0.0857
17678TIP3    H174449   4.295   2.387   0.320 -0.1688  0.3138 -0.2126
17678TIP3    H274450   4.261   2.346   0.178 -1.4074 -0.7610  0.3804
17679TIP3   OH274451   1.585   6.045  14.470  0.1942  0.5340  0.1827
17679TIP3    H174452   1.505   6.098  14.467  1.2980  2.4382  2.6436
17679TIP3    H274453   1.595   6.022  14.562  1.2048 -1.7348 -0.4787
17680TIP3   OH274454   6.569   3.880   6.042  0.0784  0.3652 -0.5632
17680TIP3    H174455   6.549   3.906   6.132 -1.6143 -0.1628 -0.7884
17680TIP3    H274456   6.665   3.874   6.040  0.0990 -0.1650  1.3531
17681TIP3   OH274457   4.665   1.017  10.650  0.5867  0.0918 -0.2221
17681TIP3    H174458   4.656   0.946  10.587  0.4940 -0.2858  0.2162
17681TIP3    H274459   4.730   1.076  10.611  0.3706 -0.0296 -0.7697
17682TIP3   OH274460   0.975   3.073  16.229 -0.4829  0.1906 -0.2702
17682TIP3    H174461   1.046   3.029  16.183 -0.5877 -1.3459  0.9889
17682TIP3    H274462   0.899   3.017  16.214 -1.5045  1.9236 -1.7748
17683TIP3   OH274463   1.012   5.132  13.073 -0.0258  0.3719 -0.0808
17683TIP3    H174464   1.090   5.083  13.099  0.4356  1.0909 -0.1272
17683TIP3    H274465   0.959   5.068  13.025  0.6814 -0.0287 -0.3306
17684TIP3   OH274466   0.009   6.074  13.109 -0.3112 -0.0042  0.9746
17684TIP3    H174467  -0.037   6.157  13.124  0.7302  0.0432  4.3551
17684TIP3    H274468  -0.038   6.011  13.164 -0.3550 -1.4140 -0.6418
17685TIP3   OH274469   0.854   3.348   0.065  0.2280  0.1676 -0.7010
17685TIP3    H174470   0.779   3.331   0.008  0.4427 -1.1593 -0.5841
17685TIP3    H274471   0.930   3.346   0.007  0.4155 -0.8851 -0.4215
17686TIP3   OH274472   0.112   2.355  12.415 -0.0344  0.4602  0.0775
17686TIP3    H174473   0.038   2.410  12.438  0.5103  1.3397 -0.2601
17686TIP3    H274474   0.127   2.373  12.322 -1.3267 -1.9927 -0.6737
17687TIP3   OH274475   6.552   6.571  16.730 -0.4003  0.2029 -0.6490
17687TIP3    H174476   6.478   6.631  16.737 -0.1295  0.5242 -0.5159
17687TIP3    H274477   6.515   6.491  16.693 -0.8819  0.2366 -0.2525
17688TIP3   OH274478   3.874   2.980  13.515 -0.6221 -0.1753  0.3987
17688TIP3    H174479   3.829   3.060  13.543 -2.2159 -0.5275 -1.0751
17688TIP3    H274480   3.960   2.986  13.556 -0.2121  2.9740 -0.7533
17689TIP3   OH274481   6.542   6.253   1.892  0.1318  0.1034 -0.0043
17689TIP3    H174482   6.587   6.333   1.867 -0.1685 -0.2203 -1.6205
17689TIP3    H274483   6.449   6.273   1.882  0.0183 -0.1877  0.4131
17690TIP3   OH274484   6.782   0.474  11.325 -0.4855 -0.3466 -0.3115
17690TIP3    H174485   6.869   0.441  11.305 -0.7285 -1.1569 -0.0291
17690TIP3    H274486   6.726   0.437  11.256 -0.2416  1.9399 -1.8019
17691TIP3   OH274487   6.213   6.333   1.227  0.2254 -0.3321 -0.0963
17691TIP3    H174488   6.193   6.426   1.224  0.2227 -0.3127  0.5648
17691TIP3    H274489   6.302   6.326   1.194 -0.0034 -0.1678 -0.7662
17692TIP3   OH274490   0.375   3.148  16.242  0.3989  0.2004  0.6640
17692TIP3    H174491   0.456   3.188  16.273 -0.0711  0.9672  0.9193
17692TIP3    H274492   0.306   3.200  16.283 -0.2244 -1.7560  2.1722
17693TIP3   OH274493   6.390   4.819  16.925  0.3093 -0.3426 -0.0893
17693TIP3    H174494   6.369   4.837  17.017  1.5605  0.9869 -0.0441
17693TIP3    H274495   6.354   4.732  16.909 -1.8904  0.3291  1.0214
17694TIP3   OH274496   0.323   1.595   1.453  0.1598 -0.0120  0.2288
17694TIP3    H174497   0.228   1.585   1.445  0.3732 -1.6801 -0.2642
17694TIP3    H274498   0.334   1.682   1.491 -1.5392  0.5231 -0.4460
17695TIP3   OH274499   0.880   3.049  12.980 -0.3940 -0.4003  0.0868
17695TIP3    H174500   0.939   3.059  12.905  0.9561  2.1230  1.4335
17695TIP3    H274501   0.793   3.039  12.940  0.4096  0.0135 -1.8357
17696TIP3   OH274502   5.638   6.581  16.364  0.2536 -0.1799  0.4121
17696TIP3    H174503   5.720   6.562  16.410 -0.4173 -1.1431  1.2230
17696TIP3    H274504   5.573   6.590  16.433 -0.0095  2.4170 -0.1076
17697TIP3   OH274505   4.341   4.486  12.717  0.3024 -0.3427  0.9908
17697TIP3    H174506   4.251   4.465  12.694  1.3472 -3.6970 -0.2963
17697TIP3    H274507   4.337   4.508  12.810 -2.1093  1.6247  0.4849
17698TIP3   OH274508   1.271   2.102   3.742  0.5784  0.1142  0.0569
17698TIP3    H174509   1.328   2.070   3.812  0.8312 -0.5037 -0.4288
17698TIP3    H274510   1.277   2.036   3.674  0.7795  0.9885 -0.7918
17699TIP3   OH274511   5.359   2.731  12.051 -0.5251  0.3201  0.5004
17699TIP3    H174512   5.330   2.706  11.963  1.9226  0.7976 -0.4714
17699TIP3    H274513   5.417   2.806  12.037 -0.4704  0.7029  2.5764
17700TIP3   OH274514   6.334   6.185  14.356 -0.0085  0.1056  0.0697
17700TIP3    H174515   6.427   6.196  14.375  0.0143 -1.0618  0.6677
17700TIP3    H274516   6.319   6.238  14.277  1.3781 -0.5483 -0.6366
17701TIP3   OH274517   3.320   5.929   1.716 -0.5548  0.3189  0.1175
17701TIP3    H174518   3.315   5.871   1.640 -0.4703 -0.5732  0.7759
17701TIP3    H274519   3.351   5.872   1.787  0.1185  1.3137  0.6356
17702TIP3   OH274520   3.885   4.519  12.327  0.3113  0.6213 -0.2907
17702TIP3    H174521   3.798   4.481  12.315  0.3990  0.3184  0.0213
17702TIP3    H274522   3.944   4.459  12.280  0.2571  1.2876 -1.2313
17703TIP3   OH274523   4.097   5.274  16.175  0.0613  0.0609  0.1157
17703TIP3    H174524   4.138   5.292  16.259  0.3428  1.0197 -0.2181
17703TIP3    H274525   4.129   5.187  16.150  0.7945  0.2166  0.5054
17704TIP3   OH274526   2.743   1.251   5.379 -0.0728  0.0373 -0.0721
17704TIP3    H174527   2.823   1.202   5.358 -0.1954  0.0062 -0.4732
17704TIP3    H274528   2.774   1.326   5.430  0.2820  0.3596 -0.7587
17705TIP3   OH274529   5.097   3.479  15.629 -0.2605  0.1148  0.5496
17705TIP3    H174530   5.023   3.537  15.647 -0.1730 -0.1099  1.6940
17705TIP3    H274531   5.062   3.415  15.567 -0.3854  1.3213 -0.6515
17706TIP3   OH274532   3.117   0.600  14.649 -0.4713 -0.3573 -1.1722
17706TIP3    H174533   3.117   0.524  14.707  0.1431  0.9568  0.5860
17706TIP3    H274534   3.026   0.630  14.650 -0.1667  0.5773  0.3723
17707TIP3   OH274535   5.110   5.116   4.858 -0.4887 -0.5559 -0.2170
17707TIP3    H174536   5.024   5.118   4.899 -0.6874  0.9693 -0.7039
17707TIP3    H274537   5.121   5.203   4.819  1.4920 -0.5549  0.2949
17708TIP3   OH274538   2.613   0.859   6.026 -1.0767 -0.7441  0.3111
17708TIP3    H174539   2.585   0.935   5.976  0.8280  0.2783  0.7567
17708TIP3    H274540   2.709   0.860   6.019 -0.9932 -2.7213  0.8591
17709TIP3   OH274541   4.876   1.399  13.884 -0.1535  0.6227  0.3250
17709TIP3    H174542   4.891   1.430  13.974  2.1489 -0.6445  0.4036
17709TIP3    H274543   4.889   1.304  13.889  0.7759  0.6396 -1.4938
17710TIP3   OH274544   0.872   0.465   2.418 -0.0925 -0.3739  0.0932
17710TIP3    H174545   0.864   0.515   2.337  1.3485  1.0076  0.7740
17710TIP3    H274546   0.804   0.501   2.476  0.6500  0.5161  0.4260
17711TIP3   OH274547   6.576   4.362   3.264  0.2917 -0.0849  0.0039
17711TIP3    H174548   6.580   4.311   3.345 -3.2112  0.1544  0.4054
17711TIP3    H274549   6.489   4.403   3.266  1.7804  3.3075 -1.8666
17712TIP3   OH274550   6.243   0.191  15.564  0.0784 -0.1035  0.1922
17712TIP3    H174551   6.147   0.187  15.563  0.0770  0.0199 -0.4991
17712TIP3    H274552   6.269   0.133  15.636 -0.4448 -1.8852 -1.0322
17713TIP3   OH274553   2.866   0.310  13.627 -0.2923  0.2587  0.2516
17713TIP3    H174554   2.930   0.279  13.690 -2.1043 -2.2159  0.9282
17713TIP3    H274555   2.792   0.340  13.680 -0.5144  1.2341 -0.5869
17714TIP3   OH274556   3.654   3.710   0.286 -0.3186  0.1487 -0.6137
17714TIP3    H174557   3.680   3.800   0.266 -1.1998  0.2847 -1.1711
17714TIP3    H274558   3.709   3.685   0.360  0.0528  1.0837 -0.5672
17715TIP3   OH274559   5.062   2.902  17.162  1.1369  0.0457  0.1159
17715TIP3    H174560   4.971   2.875  17.165  1.5957 -1.6583 -0.5691
17715TIP3    H274561   5.080   2.936  17.250 -0.1419  0.3779  0.2614
17716TIP3   OH274562   4.690   5.357  12.241  0.2902  0.5175 -0.1912
17716TIP3    H174563   4.701   5.331  12.332  1.0534  0.4891 -0.2874
17716TIP3    H274564   4.669   5.450  12.245 -2.9429 -0.1480  0.1825
17717TIP3   OH274565   1.935   4.155   1.071 -0.0268  0.0570 -0.1251
17717TIP3    H174566   1.984   4.233   1.097 -0.4796 -0.0486  1.0629
17717TIP3    H274567   1.872   4.142   1.142  0.9276 -2.1563  0.3521
17718TIP3   OH274568   6.136   0.852   4.469  0.0834 -0.6885 -0.5863
17718TIP3    H174569   6.059   0.864   4.413 -1.0306 -1.7374  0.6560
17718TIP3    H274570   6.202   0.910   4.433 -1.1008 -0.2353 -2.0692
17719TIP3   OH274571   0.434   0.287   0.889  0.0211 -0.0467 -0.0900
17719TIP3    H174572   0.409   0.195   0.885 -1.8993  0.3910  1.5474
17719TIP3    H274573   0.436   0.308   0.982  1.3885  1.3420 -0.3977
17720TIP3   OH274574   6.474   4.518   4.411  0.3370  0.0853  0.3640
17720TIP3    H174575   6.400   4.548   4.464 -0.4818  0.9485 -1.2450
17720TIP3    H274576   6.534   4.478   4.474 -1.4151 -0.4569  1.7046
17721TIP3   OH274577   1.665   2.189  12.162  0.2311 -0.3427 -0.1984
17721TIP3    H174578   1.591   2.238  12.126  0.1529 -0.2122  0.1383
17721TIP3    H274579   1.683   2.231  12.246  0.1476 -0.9092  0.1035
17722TIP3   OH274580   3.760   5.270   2.892 -0.1356 -0.2017 -0.4034
17722TIP3    H174581   3.809   5.235   2.817  0.5841 -0.9921  0.4235
17722TIP3    H274582   3.671   5.240   2.879 -0.5574  1.7133 -2.2294
17723TIP3   OH274583   5.396   1.976   4.014 -0.5779 -0.7949  0.4747
17723TIP3    H174584   5.406   1.911   3.944  0.1101  0.5661 -0.7159
17723TIP3    H274585   5.462   1.952   4.079  2.5904  1.1786 -1.9076
17724TIP3   OH274586   5.457   6.582  16.901  0.5151  0.8278  0.0534
17724TIP3    H174587   5.521   6.597  16.971  1.5103 -0.7155 -0.5084
17724TIP3    H274588   5.394   6.653  16.911  2.2593  2.3305  0.6899
17725TIP3   OH274589   2.195   6.558   2.464 -0.3559 -0.4659  0.0123
17725TIP3    H174590   2.289   6.553   2.448  0.1102  2.6643  1.3127
17725TIP3    H274591   2.161   6.611   2.392 -1.0525 -1.2222 -0.2194
17726TIP3   OH274592   4.123   1.393  15.612 -0.1099 -0.1448 -0.8080
17726TIP3    H174593   4.184   1.320  15.610 -0.6416 -0.6308  0.1927
17726TIP3    H274594   4.107   1.413  15.520 -0.4803 -1.7464 -1.1152
17727TIP3   OH274595   1.143   1.249  16.119 -0.1900  0.2280  0.1780
17727TIP3    H174596   1.169   1.326  16.171  0.6101  0.1950 -0.1804
17727TIP3    H274597   1.111   1.286  16.037 -1.0122  0.2501  0.5023
17728TIP3   OH274598   5.657   4.955   0.269 -0.0204 -0.0702 -0.0928
17728TIP3    H174599   5.741   4.931   0.307  0.4271  0.2397 -0.8748
17728TIP3    H274600   5.672   5.039   0.227 -0.6426 -0.1457 -0.4896
17729TIP3   OH274601   2.755   2.443  12.676  0.0945 -0.1169 -0.1595
17729TIP3    H174602   2.846   2.471  12.682  0.5912 -1.7945  0.4187
17729TIP3    H274603   2.755   2.355  12.713 -2.2844  1.0067  2.7864
17730TIP3   OH274604   5.321   0.836   6.170 -0.0564  0.1125 -0.0614
17730TIP3    H174605   5.232   0.840   6.204  0.2000  4.2399  0.4050
17730TIP3    H274606   5.355   0.752   6.200 -2.5031  0.1515  3.0322
17731TIP3   OH274607   0.912   6.465   0.560 -0.1897  0.1008 -0.1765
17731TIP3    H174608   0.966   6.535   0.595  0.0361 -0.2028  0.0824
17731TIP3    H274609   0.898   6.490   0.468 -0.2392  0.5591 -0.0449
17732TIP3   OH274610   6.069   3.750  10.259 -0.6525  0.6418  0.1582
17732TIP3    H174611   6.054   3.738  10.352 -0.1179  2.1838  0.4561
17732TIP3    H274612   6.163   3.731  10.247 -1.0770 -1.2578 -0.3769
17733TIP3   OH274613   0.440   0.328   4.695 -1.0856 -0.2057 -0.3094
17733TIP3    H174614   0.394   0.307   4.776 -0.7580  1.0746  0.2035
17733TIP3    H274615   0.371   0.357   4.635 -1.0423  1.1214  0.2667
17734TIP3   OH274616   2.812   1.323  11.841  0.3961 -0.0194  0.3823
17734TIP3    H174617   2.749   1.308  11.911  1.1810 -1.1462  0.8536
17734TIP3    H274618   2.779   1.401  11.795 -1.5587 -0.8465  0.3454
17735TIP3   OH274619   2.795   1.875   2.115  0.4638  0.7365  0.4760
17735TIP3    H174620   2.883   1.903   2.142  0.8101 -0.1402  0.2698
17735TIP3    H274621   2.765   1.944   2.056  1.2011  0.7999  0.1769
17736TIP3   OH274622   2.046   2.339   2.938  0.2132  0.1463 -1.1863
17736TIP3    H174623   2.010   2.421   2.970 -2.1386 -2.0137  2.0161
17736TIP3    H274624   1.970   2.290   2.907  1.2810 -1.7670 -0.8525
17737TIP3   OH274625   0.948   5.288   2.294 -0.5855  0.1286 -0.5520
17737TIP3    H174626   0.998   5.212   2.263 -0.2740 -0.2220  0.7774
17737TIP3    H274627   0.895   5.254   2.366  0.1305  1.3410  0.5572
17738TIP3   OH274628   1.796   6.379   1.752  0.1546  0.0119 -0.1299
17738TIP3    H174629   1.851   6.316   1.706  0.6445  0.8286 -0.6703
17738TIP3    H274630   1.849   6.459   1.755 -0.4208  0.3660  0.6396
17739TIP3   OH274631   5.875   0.037  15.223 -0.1655  0.4610  0.1857
17739TIP3    H174632   5.841  -0.037  15.173  2.4585 -0.8819  0.2805
17739TIP3    H274633   5.860   0.014  15.314  0.3673  0.1534  0.2010
17740TIP3   OH274634   4.095   3.961  15.238 -1.1564 -0.3617 -0.1368
17740TIP3    H174635   4.059   3.992  15.155  0.1627 -0.3272 -0.6997
17740TIP3    H274636   4.098   3.866  15.229 -1.0184 -0.3584 -0.1206
17741TIP3   OH274637   4.860   1.996   5.014  0.2420 -0.1998 -1.0828
17741TIP3    H174638   4.793   2.026   5.076  0.4225  0.0250 -0.9952
17741TIP3    H274639   4.874   1.904   5.037  0.8782  0.0935 -0.2711
17742TIP3   OH274640   1.132   3.235  15.516  0.1113  0.1370  0.2031
17742TIP3    H174641   1.214   3.248  15.564  0.2595 -0.1023  0.0119
17742TIP3    H274642   1.125   3.141  15.506  0.7603  0.2485 -1.4497
17743TIP3   OH274643   5.864   6.766  15.491  0.0034  0.0200  0.0930
17743TIP3    H174644   5.926   6.697  15.516 -0.1387 -0.4750 -0.8930
17743TIP3    H274645   5.806   6.775  15.566  1.6475  0.9264  1.2910
17744TIP3   OH274646   2.041   3.201  12.816 -0.4706  0.0153 -0.5460
17744TIP3    H174647   2.054   3.147  12.894  1.0985  1.0527 -0.0699
17744TIP3    H274648   1.985   3.148  12.759  0.3743 -1.7600  0.2568
17745TIP3   OH274649   0.349   3.124  14.834 -0.1947 -0.1249  0.1121
17745TIP3    H174650   0.394   3.061  14.778  0.9562  1.4300 -0.7515
17745TIP3    H274651   0.406   3.133  14.911 -0.9048 -0.9445  0.7467
17746TIP3   OH274652   3.812   2.837   1.440  0.0044 -0.3796 -0.1081
17746TIP3    H174653   3.799   2.744   1.458 -1.5590 -0.0966  0.3009
17746TIP3    H274654   3.876   2.839   1.368 -0.3160 -1.7781 -0.4482
17747TIP3   OH274655   4.416   0.743   4.962 -0.0654 -0.1371  0.5711
17747TIP3    H174656   4.489   0.785   4.917  0.1799 -1.7113 -0.5253
17747TIP3    H274657   4.448   0.656   4.985 -1.3878 -0.6181  0.6324
17748TIP3   OH274658   3.818   2.406  16.985  0.0507 -0.3676 -0.1768
17748TIP3    H174659   3.886   2.358  17.032  0.1753 -0.0689 -0.0519
17748TIP3    H274660   3.757   2.338  16.955 -0.7015 -0.4473  1.4936
17749TIP3   OH274661   3.153   4.351  14.264 -0.4026  0.1947  0.0936
17749TIP3    H174662   3.128   4.387  14.349 -1.1946 -0.3720  0.1077
17749TIP3    H274663   3.248   4.358  14.262 -0.4361  0.9570  0.6880
17750TIP3   OH274664   2.533   6.624  11.511 -0.3585  0.3712 -0.3447
17750TIP3    H174665   2.486   6.640  11.429 -1.1095 -0.5072 -0.0977
17750TIP3    H274666   2.527   6.529  11.523 -0.4172  0.5176  0.8315
17751TIP3   OH274667   5.262   2.144   3.394  0.0617 -0.9181  0.3192
17751TIP3    H174668   5.178   2.100   3.410 -0.3517 -0.5383 -0.7685
17751TIP3    H274669   5.317   2.116   3.467 -0.9596 -1.2922  0.9681
17752TIP3   OH274670   3.665   2.774  13.124 -0.1892 -0.0711  0.0881
17752TIP3    H174671   3.710   2.817  13.051 -1.8937  1.7691  0.0687
17752TIP3    H274672   3.727   2.779  13.197  1.4090 -1.6566 -1.1155
17753TIP3   OH274673   5.263   5.938  16.273  0.0117  0.4560 -0.5418
17753TIP3    H174674   5.185   5.992  16.262 -0.2488 -0.1107 -1.5820
17753TIP3    H274675   5.250   5.894  16.357 -0.7750  0.3875 -0.6955
17754TIP3   OH274676   5.493   6.642  11.302  0.1348 -0.1553 -0.6430
17754TIP3    H174677   5.569   6.674  11.350 -1.0299  0.3894  0.9089
17754TIP3    H274678   5.440   6.599  11.369 -1.0070 -0.3581 -1.6612
17755TIP3   OH274679   2.041   6.326   2.521 -0.1306  0.0266 -0.0520
17755TIP3    H174680   2.068   6.413   2.492 -0.3517  0.6598  1.5652
17755TIP3    H274681   2.105   6.266   2.483 -0.4748  0.8076 -1.8692
17756TIP3   OH274682   4.336   5.628  15.293 -0.1027  0.3516 -0.1906
17756TIP3    H174683   4.345   5.592  15.381 -2.3241 -1.8637 -0.8051
17756TIP3    H274684   4.423   5.620  15.255  0.5190 -0.1140  1.2825
17757TIP3   OH274685   2.924   2.735  14.870  0.1232 -0.0552  0.2286
17757TIP3    H174686   2.869   2.783  14.808  0.4033 -0.4689 -0.3345
17757TIP3    H274687   2.878   2.653  14.885  1.0304 -0.7808 -0.9269
17758TIP3   OH274688   3.430   2.516   5.591  0.6726  0.6009 -0.4358
17758TIP3    H174689   3.364   2.571   5.633  0.4667 -0.0327  0.0916
17758TIP3    H274690   3.510   2.569   5.590  0.1167  1.4213 -1.2002
17759TIP3   OH274691   2.136   0.424  12.537  0.3267 -0.1511 -0.2618
17759TIP3    H174692   2.158   0.470  12.618  2.8414  1.2874 -1.7096
17759TIP3    H274693   2.174   0.337  12.547  0.9914  0.1603 -0.0578
17760TIP3   OH274694   2.491   3.521  16.710 -0.1525 -0.4679  0.1025
17760TIP3    H174695   2.402   3.555  16.713 -0.8719 -2.1440 -1.6936
17760TIP3    H274696   2.540   3.585  16.658 -0.1128  0.8168  1.6812
17761TIP3   OH274697   3.831   4.667  16.602 -0.0801  0.3715 -0.3274
17761TIP3    H174698   3.891   4.695  16.533  2.1252 -1.4759  0.8050
17761TIP3    H274699   3.783   4.593  16.563  0.1504  0.2382 -0.3561
17762TIP3   OH274700   4.338   3.282   4.087 -0.2859 -0.1273  0.4080
17762TIP3    H174701   4.423   3.305   4.126  0.0202 -0.3075 -0.1441
17762TIP3    H274702   4.274   3.328   4.142  0.1346 -0.3618  1.1097
17763TIP3   OH274703   0.403   6.576   1.833  0.3579 -0.4410 -0.2465
17763TIP3    H174704   0.435   6.490   1.804 -0.9994 -0.9178 -0.3719
17763TIP3    H274705   0.423   6.579   1.926  0.6605 -0.7681 -0.2992
17764TIP3   OH274706   6.047   2.400   3.714  0.3773  0.4454  0.4484
17764TIP3    H174707   5.977   2.345   3.749  0.1493 -0.3760 -1.2417
17764TIP3    H274708   6.009   2.441   3.636  0.9428  2.0464  1.0005
17765TIP3   OH274709   3.741   3.114   0.888  0.0430  0.4774  0.1055
17765TIP3    H174710   3.748   3.209   0.904 -0.0080  0.5344 -0.2172
17765TIP3    H274711   3.803   3.097   0.817 -1.4294  0.5993 -1.2165
17766TIP3   OH274712   4.897   1.402   2.386 -0.2441  0.3134  0.4133
17766TIP3    H174713   4.975   1.363   2.347 -0.3939  0.1794  0.2510
17766TIP3    H274714   4.835   1.412   2.314 -1.1929 -1.5955  0.9223
17767TIP3   OH274715   5.559   4.677   2.235 -0.2277  0.1151 -0.3841
17767TIP3    H174716   5.575   4.723   2.318  0.3964  0.8801 -0.9251
17767TIP3    H274717   5.521   4.593   2.262  1.9063 -0.5166  0.8102
17768TIP3   OH274718   4.812   0.645   3.923  0.3800  0.2818  0.2364
17768TIP3    H174719   4.827   0.550   3.924 -1.7812 -0.0833  0.5305
17768TIP3    H274720   4.717   0.654   3.910  0.4914  2.4011  0.7436
17769TIP3   OH274721   4.285   3.987  13.436 -0.1654 -0.5441  0.1066
17769TIP3    H174722   4.256   4.056  13.377 -0.5509 -0.4767  0.3690
17769TIP3    H274723   4.207   3.932  13.450  0.2917 -1.3846 -0.5834
17770TIP3   OH274724   3.425   4.100   4.857 -0.3220 -0.8459 -0.2556
17770TIP3    H174725   3.440   4.185   4.815 -1.4843 -1.3261 -1.6911
17770TIP3    H274726   3.413   4.121   4.950 -1.0060  0.5996 -0.6514
17771TIP3   OH274727   5.190   4.712   1.665 -0.5812  0.1544  0.5148
17771TIP3    H174728   5.278   4.747   1.678 -0.5050 -0.2858  1.1481
17771TIP3    H274729   5.191   4.626   1.706 -0.4498 -1.0725 -1.9632
17772TIP3   OH274730   4.497   2.423   0.941  0.3995 -0.0406 -0.9472
17772TIP3    H174731   4.589   2.438   0.961  0.2534 -1.1293  0.6731
17772TIP3    H274732   4.450   2.480   1.002 -0.0232 -1.5211  0.1534
17773TIP3   OH274733   0.541   1.224   2.786  0.2944 -0.6751 -0.3536
17773TIP3    H174734   0.600   1.293   2.755 -0.1092 -0.0036  0.3517
17773TIP3    H274735   0.522   1.247   2.876 -0.3838 -1.3469 -0.3195
17774TIP3   OH274736   2.621   4.844  16.412  0.5769 -0.0363 -0.1096
17774TIP3    H174737   2.560   4.891  16.354 -3.1759 -1.4571  2.5173
17774TIP3    H274738   2.666   4.782  16.354 -1.4479  0.1370 -1.9259
17775TIP3   OH274739   2.260   5.236   0.972  0.0027 -0.3707  0.3723
17775TIP3    H174740   2.200   5.211   0.901  0.0282 -0.9612  0.5557
17775TIP3    H274741   2.333   5.279   0.928 -0.1911 -0.3430  0.0772
17776TIP3   OH274742   2.188   4.504  13.688 -0.0790  0.3011  0.0232
17776TIP3    H174743   2.267   4.558  13.698  0.6914 -1.2506  2.7425
17776TIP3    H274744   2.204   4.454  13.607  0.9593  1.2435 -0.3686
17777TIP3   OH274745   1.332   0.063  13.233 -0.0883 -0.1745 -0.1109
17777TIP3    H174746   1.239   0.078  13.251  0.1736  1.7715 -0.2268
17777TIP3    H274747   1.339   0.069  13.138  0.6086  2.8576  0.0623
17778TIP3   OH274748   2.143   1.209   3.815  0.2959  0.9473 -0.1050
17778TIP3    H174749   2.073   1.152   3.784 -0.0534  0.7568  1.0013
17778TIP3    H274750   2.211   1.202   3.749 -0.4148  0.5239 -0.7954
17779TIP3   OH274751   4.031   0.754   5.067 -0.3551  0.6774 -0.2644
17779TIP3    H174752   4.026   0.660   5.085 -1.5776  0.6684 -0.5905
17779TIP3    H274753   4.103   0.785   5.122 -1.6450 -0.0020  1.8943
17780TIP3   OH274754   5.611   4.514   4.574  0.1139 -0.2831  0.1947
17780TIP3    H174755   5.542   4.557   4.523 -0.7027 -0.2007  1.3420
17780TIP3    H274756   5.690   4.565   4.556 -0.0075 -0.6539 -1.4996
17781TIP3   OH274757   5.582   4.432  11.175  0.6769 -0.1899 -0.4035
17781TIP3    H174758   5.506   4.404  11.225  0.0859  0.1260 -1.1253
17781TIP3    H274759   5.546   4.473  11.096  1.5725  0.4166 -0.5120
17782TIP3   OH274760   0.159   4.854   4.260  0.2955  0.0558 -0.6017
17782TIP3    H174761   0.070   4.867   4.228 -0.4565 -0.0532  1.3941
17782TIP3    H274762   0.174   4.927   4.321  1.8079  0.4381 -1.4068
17783TIP3   OH274763   3.685   2.019   2.776  0.0055 -0.2625  0.3468
17783TIP3    H174764   3.771   2.026   2.734  0.1528  0.0661  0.7049
17783TIP3    H274765   3.673   2.103   2.821 -0.3901 -0.4070  0.5111
17784TIP3   OH274766   2.060   2.658  13.012  0.0422  0.2006  0.1773
17784TIP3    H174767   2.152   2.677  12.996  0.1526 -1.1988 -0.8920
17784TIP3    H274768   2.029   2.732  13.066  1.8837  0.4401  0.9269
17785TIP3   OH274769   2.762   6.496  17.003  0.3031  0.2827  0.1934
17785TIP3    H174770   2.841   6.505  17.057  0.4084 -2.7181  0.6481
17785TIP3    H274771   2.790   6.439  16.931 -1.3444 -0.5061  0.1633
17786TIP3   OH274772   0.819   0.377   6.199 -0.7194 -0.0733  0.8072
17786TIP3    H174773   0.806   0.353   6.107 -0.4739  1.9909  0.2008
17786TIP3    H274774   0.804   0.472   6.201  3.6974  0.6892  2.0724
17787TIP3   OH274775   0.843   3.789   5.128 -0.0424 -0.1911  0.8166
17787TIP3    H174776   0.829   3.694   5.135  0.7934 -0.1929  2.5784
17787TIP3    H274777   0.916   3.798   5.067  0.7256 -0.7484  1.6450
17788TIP3   OH274778   6.108   6.528   4.753  0.3755  0.7487 -0.1834
17788TIP3    H174779   6.107   6.618   4.720  1.7660  1.2106  0.9529
17788TIP3    H274780   6.035   6.485   4.708  1.4374  1.6643 -2.8786
17789TIP3   OH274781   6.420   3.312  15.076  0.5046  0.5252 -0.2270
17789TIP3    H174782   6.416   3.234  15.132 -0.1944 -0.0957 -1.1322
17789TIP3    H274783   6.336   3.312  15.029  0.0527  2.3968  0.5187
17790TIP3   OH274784   4.213   0.773   3.992  0.2720 -0.2272 -0.1419
17790TIP3    H174785   4.139   0.712   3.994  0.3590 -0.3104  0.9395
17790TIP3    H274786   4.245   0.775   4.083  1.1737  0.3200 -0.4627
17791TIP3   OH274787   3.071   2.814  15.103  0.0763 -0.3137  0.1381
17791TIP3    H174788   3.069   2.791  15.011  1.6186  0.7106 -0.1564
17791TIP3    H274789   3.110   2.738  15.146 -0.8142 -0.8679 -0.0050
17792TIP3   OH274790   4.188   1.465   0.450 -0.0434 -0.1472 -0.1600
17792TIP3    H174791   4.112   1.415   0.480 -0.8637 -0.8586 -3.2659
17792TIP3    H274792   4.249   1.398   0.419 -0.0694  0.6102 -1.9060
17793TIP3   OH274793   2.172   4.604   1.471  0.0692 -0.3777 -0.3256
17793TIP3    H174794   2.112   4.548   1.522 -0.6992 -1.4312 -2.3315
17793TIP3    H274795   2.134   4.691   1.476  0.2816 -0.3532  1.3077
17794TIP3   OH274796   0.080   3.264   3.490  0.3995  0.2603 -0.4269
17794TIP3    H174797   0.111   3.227   3.572  1.5012  0.8773 -0.5559
17794TIP3    H274798   0.058   3.188   3.436  0.4235 -0.1590  0.1537
17795TIP3   OH274799   2.372   1.678  15.741 -0.1760  0.0716 -0.1458
17795TIP3    H174800   2.292   1.636  15.707 -0.5214 -0.6365  1.4679
17795TIP3    H274801   2.342   1.762  15.775 -0.0623  0.2433 -0.4789
17796TIP3   OH274802   6.506   2.981  16.443  0.2608  0.1953  0.3898
17796TIP3    H174803   6.523   3.072  16.464 -1.7929  0.7009  0.0165
17796TIP3    H274804   6.416   2.966  16.474  1.6057 -2.5786  3.2767
17797TIP3   OH274805   2.845   2.248   1.673  0.9682  0.2148  0.6939
17797TIP3    H174806   2.763   2.274   1.713  0.9606  0.4898  0.5030
17797TIP3    H274807   2.876   2.174   1.726  1.6178  1.4003  2.0117
17798TIP3   OH274808   0.806   4.071  15.283 -0.5768  0.3608  0.1200
17798TIP3    H174809   0.885   4.067  15.338  0.8416  1.2332 -1.8240
17798TIP3    H274810   0.739   4.025  15.335  1.0519  0.0596  2.0251
17799TIP3   OH274811   3.663   5.377   5.499  0.6399 -0.3331  0.4006
17799TIP3    H174812   3.572   5.361   5.525  1.2964 -0.9225  2.4423
17799TIP3    H274813   3.657   5.448   5.435 -0.9804  2.0669  3.0941
17800TIP3   OH274814   1.671   3.936   2.472 -0.3591 -0.0895  0.5321
17800TIP3    H174815   1.695   4.024   2.443 -2.0559  0.6176  1.2561
17800TIP3    H274816   1.585   3.921   2.433 -1.5934 -0.0762  3.1872
17801TIP3   OH274817   5.011   0.186  13.839  0.2013  0.2676  0.1840
17801TIP3    H174818   5.002   0.267  13.789 -1.0061 -0.0149 -0.0489
17801TIP3    H274819   4.970   0.205  13.923 -3.5761 -1.3234 -1.2214
17802TIP3   OH274820   1.550   4.999  15.399 -0.3273  0.3512  0.3384
17802TIP3    H174821   1.605   5.056  15.452 -0.6191 -0.7932  1.8786
17802TIP3    H274822   1.463   5.038  15.403  0.3799  2.4119 -2.4564
17803TIP3   OH274823   0.793   3.015   4.647 -0.0511 -0.5836 -0.3001
17803TIP3    H174824   0.762   3.098   4.610 -0.5376 -0.9781 -0.7780
17803TIP3    H274825   0.887   3.027   4.656 -0.4007  0.9200  1.9101
17804TIP3   OH274826   5.693   0.388   4.337 -0.2782  0.3968  0.1190
17804TIP3    H174827   5.692   0.332   4.414 -3.1704 -1.1196 -0.8985
17804TIP3    H274828   5.728   0.471   4.367  0.4997 -0.7788  2.5803
17805TIP3   OH274829   3.776   1.335   1.066  0.0449  0.6277 -0.0996
17805TIP3    H174830   3.794   1.278   0.991 -1.2274 -0.4582  0.4150
17805TIP3    H274831   3.847   1.399   1.065  0.8313 -0.2562 -1.3768
17806TIP3   OH274832   2.823   6.257   1.321  0.4463 -0.9019  0.2233
17806TIP3    H174833   2.782   6.339   1.348 -0.9673 -2.2590  2.3972
17806TIP3    H274834   2.750   6.203   1.291  1.4563 -1.1410 -1.9006
17807TIP3   OH274835   4.598   0.556   1.958 -0.4656 -0.0794 -0.2032
17807TIP3    H174836   4.592   0.611   2.036  1.7884  1.8851 -1.3356
17807TIP3    H274837   4.681   0.510   1.968 -1.0020 -1.1545 -0.6203
17808TIP3   OH274838   0.495   3.391   4.771 -0.5042  0.3796  0.2531
17808TIP3    H174839   0.515   3.298   4.765 -0.4442  0.3143  1.2778
17808TIP3    H274840   0.574   3.435   4.738 -0.3077  0.0729  0.3144
17809TIP3   OH274841   3.109   2.144  10.599  0.1586  0.0924 -0.1590
17809TIP3    H174842   3.033   2.131  10.542  0.3201  2.2117 -0.9079
17809TIP3    H274843   3.071   2.159  10.685 -0.1951 -0.5300 -0.2020
17810TIP3   OH274844   5.495   2.299   2.861 -0.2186 -0.0235 -0.1005
17810TIP3    H174845   5.445   2.317   2.782  0.3323  1.6454 -0.0835
17810TIP3    H274846   5.586   2.315   2.837  0.1002 -0.8878  0.4848
17811TIP3   OH274847   1.185   4.467  14.542  0.4571  0.1144  0.0247
17811TIP3    H174848   1.162   4.389  14.493  0.0058  1.2763 -1.6534
17811TIP3    H274849   1.280   4.474  14.534  0.1908  1.4307 -2.4916
17812TIP3   OH274850   1.046   1.064  11.974 -0.3942  0.1011 -0.0185
17812TIP3    H174851   1.117   1.081  11.912 -0.4498  1.0072  0.1561
17812TIP3    H274852   1.016   0.975  11.952  1.7227 -0.8585  0.8348
17813TIP3   OH274853   2.702   3.610  15.770 -0.9665 -0.0639  0.2301
17813TIP3    H174854   2.790   3.585  15.798 -1.8637 -3.5956  0.1261
17813TIP3    H274855   2.717   3.668  15.695  1.2756 -1.0733 -0.1545
17814TIP3   OH274856   4.615   1.365   0.216 -0.2908 -0.2251 -0.1257
17814TIP3    H174857   4.627   1.280   0.175 -1.0257 -1.1707  1.6038
17814TIP3    H274858   4.522   1.370   0.237 -0.1000  0.6291  0.5759
17815TIP3   OH274859   6.594   5.850  10.406  0.2802 -0.2644 -0.0017
17815TIP3    H174860   6.540   5.785  10.451 -0.5489  0.4804  0.0993
17815TIP3    H274861   6.598   5.819  10.315 -0.0854 -0.4750  0.0528
17816TIP3   OH274862   3.974   4.265   3.264  0.0376 -0.1651 -0.3599
17816TIP3    H174863   3.978   4.326   3.338  0.7932  1.0307 -1.3611
17816TIP3    H274864   4.064   4.257   3.235  0.0822 -2.6020  0.4019
17817TIP3   OH274865   2.311   3.451   0.000  0.1956  0.4751  0.1120
17817TIP3    H174866   2.311   3.538   0.039 -0.1969 -0.4000  2.1823
17817TIP3    H274867   2.350   3.462  -0.086  0.6758  2.5895  0.5870
17818TIP3   OH274868   4.609   5.094  11.513  0.3819  0.9403  0.3321
17818TIP3    H174869   4.519   5.079  11.485  0.7188 -0.8679  0.1416
17818TIP3    H274870   4.602   5.144  11.594 -0.8822 -1.0509  1.4848
17819TIP3   OH274871   6.512   6.230  13.928  0.0689  0.0240  0.1302
17819TIP3    H174872   6.564   6.195  14.001  0.2773  1.5185  0.6996
17819TIP3    H274873   6.451   6.291  13.968 -0.0616  0.5846 -0.8990
17820TIP3   OH274874   5.225   4.282   0.605 -0.4209  0.2199  0.1519
17820TIP3    H174875   5.314   4.287   0.568  0.2709 -1.0036  1.5867
17820TIP3    H274876   5.195   4.195   0.580 -1.3689  0.7705 -0.6393
17821TIP3   OH274877   3.187   2.078   1.603  0.1370 -0.3637  0.3473
17821TIP3    H174878   3.141   2.087   1.687 -1.1006 -1.7998 -0.1500
17821TIP3    H274879   3.118   2.087   1.537  1.3200  2.2650 -0.6084
17822TIP3   OH274880   0.176   0.482   4.961  0.4060 -0.2539 -0.3990
17822TIP3    H174881   0.152   0.572   4.937 -3.4197 -0.2839  2.8354
17822TIP3    H274882   0.140   0.428   4.891  0.6225  0.5513 -1.1387
17823TIP3   OH274883   1.616   5.023   0.235 -0.6402 -0.0393 -0.6791
17823TIP3    H174884   1.629   5.034   0.329 -1.8327  1.1312 -0.6404
17823TIP3    H274885   1.523   5.003   0.225 -1.4851  4.0071 -1.8964
17824TIP3   OH274886   5.360   2.803   2.820 -0.6417  0.0652 -0.0179
17824TIP3    H174887   5.446   2.844   2.807  0.2077 -0.9707  2.1144
17824TIP3    H274888   5.376   2.733   2.883 -2.9467 -0.5618 -0.0855
17825TIP3   OH274889   4.103   0.367  15.260  0.0692 -0.1894 -0.8925
17825TIP3    H174890   4.091   0.452  15.218  1.3601  0.3979 -0.1097
17825TIP3    H274891   4.184   0.332  15.223  0.6401 -0.1515  0.2917
17826TIP3   OH274892   0.280   1.391   2.576  0.2527  0.0094 -0.0648
17826TIP3    H174893   0.280   1.471   2.629  0.9755  0.7459 -1.1569
17826TIP3    H274894   0.261   1.421   2.487  1.2766 -0.9379 -0.6151
17827TIP3   OH274895   5.946   3.487  16.513  0.4659 -0.0136 -0.3031
17827TIP3    H174896   5.851   3.475  16.516  0.7544 -2.3776  0.5808
17827TIP3    H274897   5.959   3.580  16.534 -1.7079  0.7563 -2.1311
17828TIP3   OH274898   3.793   2.462  14.177 -0.4944 -0.1792  0.3803
17828TIP3    H174899   3.732   2.518  14.225 -0.6375 -1.2400  1.4521
17828TIP3    H274900   3.843   2.418  14.245 -0.6659 -1.6619 -0.4371
17829TIP3   OH274901   4.659   4.205   2.920  0.2184  0.1215 -0.1315
17829TIP3    H174902   4.571   4.166   2.924  0.2920  0.1099  1.7343
17829TIP3    H274903   4.687   4.209   3.011  3.2222 -2.2149 -0.8908
17830TIP3   OH274904   2.741   6.060  12.033  0.2029  0.1537  0.7203
17830TIP3    H174905   2.794   6.066  12.112 -0.2978 -0.6760  1.1206
17830TIP3    H274906   2.687   5.982  12.045 -0.1166  0.2022 -0.2898
17831TIP3   OH274907   6.232   6.453  12.564 -0.3104  0.0634  0.1417
17831TIP3    H174908   6.141   6.449  12.534 -0.6106  0.3434  1.0125
17831TIP3    H274909   6.235   6.395  12.641  0.1269  0.4544  0.4235
17832TIP3   OH274910   5.423   3.990  14.783 -0.2587  0.4832  0.9033
17832TIP3    H174911   5.444   3.979  14.690  0.8555  0.9446  1.0947
17832TIP3    H274912   5.348   3.932  14.797 -0.0342 -0.0765 -0.1346
17833TIP3   OH274913   0.853   2.513   1.217 -0.7578  0.2732  0.5044
17833TIP3    H174914   0.838   2.581   1.151  0.7464  0.2326  0.1040
17833TIP3    H274915   0.766   2.491   1.248 -1.3429  1.7125 -0.0505
17834TIP3   OH274916   6.639   3.420  11.773 -0.3003 -0.1822 -0.0887
17834TIP3    H174917   6.733   3.423  11.756 -0.2073  2.9893  0.6101
17834TIP3    H274918   6.599   3.465  11.698 -1.2046 -0.5658  0.1450
17835TIP3   OH274919   0.464   1.177  11.694  0.2379 -0.0636 -0.0798
17835TIP3    H174920   0.423   1.166  11.779 -0.5793  0.2687 -0.4267
17835TIP3    H274921   0.448   1.095  11.648  1.5226 -0.6080  0.4404
17836TIP3   OH274922   3.216   4.640   4.452  0.4919 -0.1548 -0.5167
17836TIP3    H174923   3.257   4.624   4.537 -1.3799 -0.2571  0.3963
17836TIP3    H274924   3.170   4.558   4.433 -0.1765  0.3396 -1.0086
17837TIP3   OH274925   4.190   0.307  12.791 -0.1978  0.4836  0.5647
17837TIP3    H174926   4.200   0.370  12.720 -1.1579  0.4970  0.4334
17837TIP3    H274927   4.253   0.237  12.771  0.2105  0.9534  0.2151
17838TIP3   OH274928   3.690   2.375  11.828  0.3796  0.1207  0.7011
17838TIP3    H174929   3.669   2.282  11.826 -1.3191  0.4622  1.2354
17838TIP3    H274930   3.769   2.381  11.882  0.9503 -1.0750  0.0145
17839TIP3   OH274931   1.274   1.385  13.848 -0.3169 -0.0083 -0.6318
17839TIP3    H174932   1.346   1.430  13.891 -1.4150  2.3317 -1.1882
17839TIP3    H274933   1.269   1.300  13.892  1.6941  0.4348  0.5127
17840TIP3   OH274934   3.514   0.944   3.743  0.0848 -0.3542  0.4340
17840TIP3    H174935   3.459   0.985   3.676  0.0923  0.1252  0.7203
17840TIP3    H274936   3.603   0.968   3.719  0.0586  0.1892  0.8597
17841TIP3   OH274937   6.333   2.284   2.182  0.9632 -0.0893 -0.0370
17841TIP3    H174938   6.404   2.337   2.146 -1.1392  2.2817 -0.8322
17841TIP3    H274939   6.320   2.319   2.270  0.4666 -0.2022 -0.0683
17842TIP3   OH274940   6.563   1.372  11.529 -0.3618 -0.5914  0.2333
17842TIP3    H174941   6.600   1.328  11.453 -0.2237  1.8340 -1.1655
17842TIP3    H274942   6.469   1.363  11.519 -0.2929 -3.6010  1.8573
17843TIP3   OH274943   5.126   0.697  12.667  0.8164 -0.7323 -0.6492
17843TIP3    H174944   5.207   0.688  12.617  1.0871 -1.8535 -0.0504
17843TIP3    H274945   5.150   0.753  12.741  0.7686 -0.1861 -1.0488
17844TIP3   OH274946   1.846   5.528   0.204 -0.4362  0.4697 -0.4314
17844TIP3    H174947   1.904   5.484   0.142  0.7897  1.9326 -0.3330
17844TIP3    H274948   1.873   5.619   0.204  0.4063  0.3208  3.1172
17845TIP3   OH274949   0.806   2.910  15.015  0.3323 -0.3128  0.0902
17845TIP3    H174950   0.895   2.874  15.018 -0.0070 -1.1993 -0.3876
17845TIP3    H274951   0.805   2.968  14.939  0.9784  0.9845  1.0525
17846TIP3   OH274952   6.120   2.931  11.964  0.4930  0.2481  1.0804
17846TIP3    H174953   6.176   2.856  11.945 -1.9117 -1.7566  1.6089
17846TIP3    H274954   6.153   2.966  12.047  2.2365  0.4207  0.3401
17847TIP3   OH274955   0.603   3.110  10.760  0.0065  0.6191  0.6804
17847TIP3    H174956   0.658   3.043  10.720  0.2701  1.6006 -0.6302
17847TIP3    H274957   0.557   3.150  10.686 -0.1771  1.8549  1.4507
17848TIP3   OH274958   4.605   6.415   1.707 -0.0295 -0.3736  0.2307
17848TIP3    H174959   4.531   6.355   1.707  0.3385 -0.8969 -2.1487
17848TIP3    H274960   4.599   6.460   1.622  2.1172 -0.1188  0.1892
17849TIP3   OH274961   4.803   4.037   4.302  0.0184 -0.1906 -0.1496
17849TIP3    H174962   4.854   3.980   4.244  0.5331 -0.5660  0.6676
17849TIP3    H274963   4.780   4.112   4.247  1.0124 -0.2555 -0.6691
17850TIP3   OH274964   1.489   5.469   2.820  0.4404  0.2525 -0.1720
17850TIP3    H174965   1.515   5.506   2.736  1.1189 -1.7157 -0.8340
17850TIP3    H274966   1.553   5.401   2.838 -0.0146  0.2877  1.6869
17851TIP3   OH274967   1.872   1.056  14.942  0.0667 -0.1256  0.0361
17851TIP3    H174968   1.855   1.149  14.955  0.4829 -0.0948  0.3941
17851TIP3    H274969   1.787   1.019  14.917 -0.7192 -0.0974  2.4708
17852TIP3   OH274970   6.383   1.931  11.616  0.2206  0.0390  0.0048
17852TIP3    H174971   6.365   1.838  11.628 -0.6573 -0.1204 -2.2961
17852TIP3    H274972   6.341   1.974  11.691 -0.9202 -1.2488  0.1099
17853TIP3   OH274973   4.564   5.633  12.386  0.2266 -0.2244 -0.1353
17853TIP3    H174974   4.650   5.628  12.344  0.4471  0.4054  0.2362
17853TIP3    H274975   4.580   5.599  12.474  0.2790  0.6809  0.2071
17854TIP3   OH274976   1.330   3.725   0.902 -0.2957  0.0435 -0.4203
17854TIP3    H174977   1.318   3.721   0.807 -1.0678 -1.5442 -0.2787
17854TIP3    H274978   1.421   3.701   0.916  0.2936  1.9164 -0.8425
17855TIP3   OH274979   0.267   6.592  13.917  0.1630  0.7605 -0.0326
17855TIP3    H174980   0.333   6.628  13.975  1.8275 -0.0123 -1.4109
17855TIP3    H274981   0.270   6.648  13.839  0.0540 -0.0070 -0.6012
17856TIP3   OH274982   4.617   5.326   5.140  0.3671  0.1363 -0.3836
17856TIP3    H174983   4.574   5.407   5.111 -2.0035 -1.1099 -0.4226
17856TIP3    H274984   4.586   5.313   5.229 -1.8459 -2.4460 -1.4812
17857TIP3   OH274985   1.318   0.237  16.776  0.5664  0.7050 -0.2950
17857TIP3    H174986   1.353   0.205  16.693  0.0323  1.1160 -0.6823
17857TIP3    H274987   1.309   0.158  16.830 -0.9870  0.1566 -1.3331
17858TIP3   OH274988   4.464   1.196  15.797 -0.1618 -0.2116  0.3594
17858TIP3    H174989   4.514   1.156  15.868  0.7285 -0.2298 -0.2697
17858TIP3    H274990   4.500   1.284  15.789  0.6700 -0.6706 -0.9760
17859TIP3   OH274991   1.696   4.281  10.930 -0.5266 -0.0525 -0.2182
17859TIP3    H174992   1.627   4.222  10.901 -0.2585 -0.5501  0.1469
17859TIP3    H274993   1.777   4.236  10.909 -0.3040  0.6937 -0.9832
17860TIP3   OH274994   6.391   3.704   6.156 -0.6283  0.0747 -0.0178
17860TIP3    H174995   6.309   3.752   6.145 -0.0325  1.4464  1.3502
17860TIP3    H274996   6.451   3.744   6.093 -0.2905  0.7744  0.7400
17861TIP3   OH274997   1.715   0.806   6.098 -0.3108 -0.4286  0.0917
17861TIP3    H174998   1.765   0.726   6.116 -0.0355 -0.5060 -0.9780
17861TIP3    H274999   1.779   0.876   6.100 -0.4603 -0.3074  0.5000
17862TIP3   OH275000   5.118   6.355   1.814  0.5132  0.0643 -0.8343
17862TIP3    H175001   5.027   6.358   1.842  1.2439  0.5227  1.6054
17862TIP3    H275002   5.139   6.262   1.807  1.1439 -0.1446  3.0906
17863TIP3   OH275003   6.475   5.448  12.000  0.2881 -0.3533 -0.3078
17863TIP3    H175004   6.556   5.454  12.051 -1.1810  0.3678  2.0026
17863TIP3    H275005   6.451   5.539  11.983 -0.9461 -0.5161  0.5183
17864TIP3   OH275006   3.950   3.328  11.581  0.6995 -1.1335  0.1530
17864TIP3    H175007   3.928   3.284  11.664 -1.7186 -0.0526  0.1336
17864TIP3    H275008   3.913   3.270  11.514 -0.5236 -0.2110  0.0211
17865TIP3   OH275009   6.501   5.010  15.501  0.4418  0.2939 -0.3494
17865TIP3    H175010   6.421   5.051  15.467  1.8636  3.2170 -0.3771
17865TIP3    H275011   6.478   4.982  15.589 -1.7299 -2.5427 -1.7292
17866TIP3   OH275012   6.263   2.519   1.101 -0.1078 -0.5389  0.4054
17866TIP3    H175013   6.213   2.601   1.095  0.2633 -0.4119 -1.0368
17866TIP3    H275014   6.298   2.519   1.190 -1.3578  0.1440  0.9029
17867TIP3   OH275015   1.644   1.995  15.307  0.2015 -0.0063  0.5250
17867TIP3    H175016   1.572   2.009  15.370  0.5560 -2.9141  1.6698
17867TIP3    H275017   1.699   2.073  15.317 -1.5629  1.2027  1.3030
17868TIP3   OH275018   3.646   1.074   3.315  0.0114  0.3556  0.3754
17868TIP3    H175019   3.661   1.045   3.225  2.8166  2.0056  0.2519
17868TIP3    H275020   3.605   0.998   3.358 -1.3229 -0.4727 -2.2264
17869TIP3   OH275021   1.634   2.487  10.930  0.3447 -0.0374  0.6198
17869TIP3    H175022   1.644   2.494  10.835 -1.9970  1.1731  0.4192
17869TIP3    H275023   1.716   2.520  10.966  2.0044 -2.2629 -0.9751
17870TIP3   OH275024   0.577   5.882  17.017 -0.0890 -0.0010  0.8383
17870TIP3    H175025   0.545   5.839  17.096  0.6105  0.9748  1.6726
17870TIP3    H275026   0.661   5.919  17.043  0.1340  0.3553 -0.3653
17871TIP3   OH275027   2.121   3.630   1.175 -0.0213  0.1047  0.6187
17871TIP3    H175028   2.123   3.668   1.262  0.5753  0.0520  0.6269
17871TIP3    H275029   2.094   3.702   1.118  2.0284  0.7985  0.5007
17872TIP3   OH275030   4.623   5.729   5.567 -0.2599  0.0750 -0.0306
17872TIP3    H175031   4.549   5.731   5.507  0.3261 -0.9142 -0.8103
17872TIP3    H275032   4.638   5.821   5.590 -0.8718  0.4079 -0.9190
17873TIP3   OH275033   0.043   2.060  13.956 -0.2642 -0.2319  0.1620
17873TIP3    H175034   0.071   2.085  14.044  0.9075  1.3513 -0.6416
17873TIP3    H275035   0.032   2.143  13.909  1.7751 -1.1178 -1.9872
17874TIP3   OH275036   0.125   3.200  11.023  0.1203 -0.1990 -0.0038
17874TIP3    H175037   0.059   3.265  10.999  1.2948  1.6204  1.6057
17874TIP3    H275038   0.193   3.209  10.957  0.5578  0.6256  0.5577
17875TIP3   OH275039   4.845   4.186  11.671 -0.0871  0.5816 -0.0073
17875TIP3    H175040   4.880   4.274  11.682  0.1698  0.2458  1.9910
17875TIP3    H275041   4.788   4.173  11.747 -0.0464 -1.0024 -0.2256
17876TIP3   OH275042   6.739   4.337   2.274 -0.6406 -0.5301 -0.4067
17876TIP3    H175043   6.806   4.280   2.237 -0.1010 -0.4931  0.4838
17876TIP3    H275044   6.786   4.416   2.300 -0.9085 -0.7594  0.8104
17877TIP3   OH275045   5.718   6.212  12.563  0.3583  0.2399  0.7515
17877TIP3    H175046   5.743   6.245  12.649 -0.4366  0.3436  0.9520
17877TIP3    H275047   5.630   6.247  12.549  1.0070  1.3237 -0.6806
17878TIP3   OH275048   3.252   3.084  16.299  0.0400 -0.1451 -0.4440
17878TIP3    H175049   3.166   3.063  16.262 -0.8490  0.7701  1.0511
17878TIP3    H275050   3.238   3.164  16.350  1.6921 -0.2184  0.1659
17879TIP3   OH275051   6.379   2.422  13.425  0.3566 -0.3308 -0.2631
17879TIP3    H175052   6.361   2.462  13.511  0.4112 -0.3576 -0.2406
17879TIP3    H275053   6.440   2.351  13.444  0.2137 -0.4633 -0.2989
17880TIP3   OH275054   3.144   0.843   1.626  0.1308 -0.0293  0.4063
17880TIP3    H175055   3.060   0.797   1.624  0.0174  0.1969  0.0334
17880TIP3    H275056   3.124   0.931   1.595  0.7778 -0.4035 -1.1108
17881TIP3   OH275057   1.594   2.472   3.333 -0.6468  0.2777  0.1257
17881TIP3    H175058   1.534   2.419   3.385  0.6559 -0.0122  1.3911
17881TIP3    H275059   1.637   2.410   3.275  1.2240 -0.1818  1.9384
17882TIP3   OH275060   2.424   2.868  16.547  0.0681  0.2600  0.0899
17882TIP3    H175061   2.470   2.882  16.465  1.4210 -0.8041  0.6506
17882TIP3    H275062   2.337   2.906  16.533  0.5730  0.8370 -1.5277
17883TIP3   OH275063   4.965   5.589   4.287 -0.3052  0.5993  0.2825
17883TIP3    H175064   4.939   5.608   4.377  1.7213 -1.5040  1.3416
17883TIP3    H275065   5.060   5.599   4.286 -0.1231 -1.0286 -1.2300
17884TIP3   OH275066   4.149   5.068   1.188  0.1547 -0.0589 -0.5040
17884TIP3    H175067   4.102   5.140   1.145  0.4983 -1.0313 -2.5819
17884TIP3    H275068   4.232   5.108   1.215 -0.9958  1.1397  1.3192
17885TIP3   OH275069   5.372   0.464   2.396  0.1118 -0.7853 -0.3480
17885TIP3    H175070   5.307   0.493   2.332  0.7898  0.1821 -0.6039
17885TIP3    H275071   5.410   0.385   2.358 -1.3485 -1.7057  0.0913
17886TIP3   OH275072   1.044   5.415   2.854 -0.0607 -0.1456 -0.6879
17886TIP3    H175073   1.108   5.398   2.784 -0.3873  1.1707 -1.3181
17886TIP3    H275074   1.035   5.510   2.856 -0.6397 -0.2148  0.6393
17887TIP3   OH275075   1.344   5.178   1.652  0.6375 -0.1456 -0.0342
17887TIP3    H175076   1.410   5.109   1.652 -0.1337 -0.8921  0.3508
17887TIP3    H275077   1.372   5.239   1.583  1.9409 -0.2365  0.4140
17888TIP3   OH275078   0.876   3.209  16.789 -0.4277 -0.2002 -0.1118
17888TIP3    H175079   0.807   3.161  16.742 -0.5563  0.7109 -0.8671
17888TIP3    H275080   0.958   3.171  16.757 -0.5472 -0.3999 -0.1850
17889TIP3   OH275081   5.307   2.587  17.238 -0.1316 -1.2822  0.2693
17889TIP3    H175082   5.257   2.508  17.219  0.3886 -1.4400 -0.4351
17889TIP3    H275083   5.316   2.631  17.154 -1.8105  0.3494  0.8953
17890TIP3   OH275084   0.450   2.335   2.866  0.3488 -0.1247 -0.3015
17890TIP3    H175085   0.473   2.247   2.836 -0.2809  0.3054 -2.0584
17890TIP3    H275086   0.355   2.332   2.877  0.3948  0.1792  0.2046
17891TIP3   OH275087   2.019   4.629  17.054  0.0789 -0.6621 -0.0225
17891TIP3    H175088   1.982   4.717  17.055 -0.5514 -0.9252 -0.0347
17891TIP3    H275089   2.068   4.625  16.971 -0.6774 -0.6435 -0.4756
17892TIP3   OH275090   4.574   6.665  12.612 -0.3451  0.0286 -0.7376
17892TIP3    H175091   4.558   6.654  12.518 -1.1843  0.3758 -0.6435
17892TIP3    H275092   4.593   6.577  12.644  1.3233  0.0975 -1.4736
17893TIP3   OH275093   5.712   3.482   4.341 -0.0477  0.2530  0.6016
17893TIP3    H175094   5.783   3.521   4.393  1.8989 -0.9041 -1.1195
17893TIP3    H275095   5.685   3.405   4.392 -0.9086  1.3627  1.8483
17894TIP3   OH275096   0.870   0.619   1.580 -0.1930 -0.6428 -0.1932
17894TIP3    H175097   0.805   0.668   1.631 -0.6082 -0.9231 -0.4418
17894TIP3    H275098   0.903   0.681   1.515  0.2916 -0.3020  0.3789
17895TIP3   OH275099   1.380   0.354   1.204  0.3932 -0.0515 -0.3019
17895TIP3    H175100   1.341   0.396   1.127 -0.2998 -3.0612 -1.6496
17895TIP3    H275101   1.475   0.359   1.189  0.2608 -0.6184 -1.3728
17896TIP3   OH275102   5.654   1.574   6.240 -0.2236 -0.1781 -0.6533
17896TIP3    H175103   5.616   1.625   6.312 -0.4766  0.4054 -1.2001
17896TIP3    H275104   5.720   1.519   6.283  0.7574  1.3180 -0.2040
17897TIP3   OH275105   1.587   3.175  15.029  0.1822  0.0059 -0.4001
17897TIP3    H175106   1.677   3.203  15.045 -0.2879  0.4944  1.5045
17897TIP3    H275107   1.563   3.126  15.108 -0.8881 -1.0147 -1.3295
17898TIP3   OH275108   2.346   4.894   5.327 -0.1981  0.3533  0.0904
17898TIP3    H175109   2.395   4.953   5.386  0.8873 -0.4148 -0.0338
17898TIP3    H275110   2.317   4.951   5.256 -0.3160  1.0135  0.6535
17899TIP3   OH275111   6.154   6.100   5.207 -0.1260  0.2492  0.2842
17899TIP3    H175112   6.208   6.155   5.264  1.6079 -0.4815 -0.6434
17899TIP3    H275113   6.134   6.023   5.260  1.8516 -0.6331 -0.2468
17900TIP3   OH275114   2.148   5.892  14.337 -0.0054 -0.3148  0.1182
17900TIP3    H175115   2.215   5.865  14.275  1.3348 -1.8112  2.1381
17900TIP3    H275116   2.088   5.817  14.342  1.4849 -1.4268  2.7042
17901TIP3   OH275117   0.219   0.090  14.821 -0.3197  0.2798  0.1269
17901TIP3    H175118   0.280   0.034  14.869  0.6534  1.4192  0.2344
17901TIP3    H275119   0.166   0.131  14.889 -0.7370 -0.1486  0.0673
17902TIP3   OH275120   6.778   4.962   2.284  0.0970 -0.2010 -0.3266
17902TIP3    H175121   6.754   4.984   2.374  0.1611 -0.2028 -0.3090
17902TIP3    H275122   6.746   5.035   2.232 -3.0812 -1.7845 -0.7524
17903TIP3   OH275123   6.783   2.418  13.127 -0.1338  0.2215  0.1399
17903TIP3    H175124   6.810   2.332  13.157  1.1501  0.3306 -0.6671
17903TIP3    H275125   6.689   2.410  13.112  0.0911 -1.2118 -0.5081
17904TIP3   OH275126   1.364   1.503  10.683  0.1790 -0.5401 -0.0827
17904TIP3    H175127   1.328   1.420  10.714  0.2631  0.3406  2.4692
17904TIP3    H275128   1.332   1.511  10.593  0.0887 -3.2653 -0.3171
17905TIP3   OH275129   5.505   5.403   4.354 -0.1733 -0.0403  0.0199
17905TIP3    H175130   5.423   5.363   4.328 -1.1719  0.1474  2.6588
17905TIP3    H275131   5.545   5.433   4.273 -2.2934 -0.9129 -1.3748
17906TIP3   OH275132   0.143   6.654  14.675  0.2089 -0.5237  0.0794
17906TIP3    H175133   0.153   6.729  14.734 -0.2692  0.8806 -1.6041
17906TIP3    H275134   0.061   6.613  14.703  0.6926 -0.6896  1.2894
17907TIP3   OH275135   5.962   5.116  16.562 -1.0407  0.1744 -0.1116
17907TIP3    H175136   5.893   5.054  16.585 -0.0156 -1.2036 -0.7302
17907TIP3    H275137   6.027   5.064  16.516  1.0861  1.1608  1.7045
17908TIP3   OH275138   5.666   0.005  11.921  0.2311  0.6058 -0.5950
17908TIP3    H175139   5.652   0.097  11.944 -2.0537  0.4292 -1.1545
17908TIP3    H275140   5.675  -0.039  12.006  0.8290  1.2540 -0.3116
17909TIP3   OH275141   5.131   0.623   3.451  0.5107 -0.7693 -0.1608
17909TIP3    H175142   5.090   0.585   3.528 -0.4384 -0.8186 -0.6821
17909TIP3    H275143   5.191   0.556   3.420 -0.3193 -1.3939 -0.4167
17910TIP3   OH275144   6.717   3.040  16.811 -0.2381 -0.2195 -0.1420
17910TIP3    H175145   6.692   3.133  16.811  1.1617  0.1683 -1.1143
17910TIP3    H275146   6.641   2.995  16.847 -1.4696  1.1664 -0.9687
17911TIP3   OH275147   1.130   4.876  15.501  0.1542  0.0844  0.1099
17911TIP3    H175148   1.208   4.820  15.507  0.0772  0.0822  1.2571
17911TIP3    H275149   1.160   4.955  15.457 -0.0237 -1.3584 -2.7633
17912TIP3   OH275150   6.103   5.790  12.486 -0.0985 -0.5810 -0.2681
17912TIP3    H175151   6.078   5.807  12.577 -1.3555 -1.6173 -0.4082
17912TIP3    H275152   6.051   5.853  12.436  0.1984 -0.3670 -0.3082
17913TIP3   OH275153   6.344   1.232  16.468  0.1853 -0.2556  0.3903
17913TIP3    H175154   6.333   1.321  16.503  0.4519 -0.0290 -0.1007
17913TIP3    H275155   6.332   1.242  16.373 -0.5582 -0.8727  0.4101
17914TIP3   OH275156   0.325   0.295   3.252  0.1816  0.2148 -0.2767
17914TIP3    H175157   0.332   0.326   3.162  0.0978 -1.4529 -0.8697
17914TIP3    H275158   0.239   0.324   3.281  0.4702  1.3129 -0.5142
17915TIP3   OH275159   1.777   4.841   2.557 -0.1107  0.1612 -0.2993
17915TIP3    H175160   1.705   4.885   2.512 -1.0811 -1.1715 -0.0792
17915TIP3    H275161   1.734   4.779   2.615  1.1288  1.5710  2.2169
17916TIP3   OH275162   4.385   6.326   3.921  0.2122  0.5185  0.1302
17916TIP3    H175163   4.327   6.403   3.922 -0.2671  0.1641 -0.5875
17916TIP3    H275164   4.331   6.255   3.889  0.2011 -0.5041  2.3017
17917TIP3   OH275165   5.411   3.615   4.582 -0.0725 -0.3852  0.2829
17917TIP3    H175166   5.410   3.604   4.487 -0.2944  2.3495 -0.0717
17917TIP3    H275167   5.502   3.638   4.602 -0.0297 -0.9388  0.7384
17918TIP3   OH275168   2.080   5.892  12.610  0.3933  0.3328 -0.4155
17918TIP3    H175169   2.064   5.929  12.696 -1.0401 -2.4259  0.5525
17918TIP3    H275170   2.163   5.845  12.619  1.3901  1.8836 -1.2020
17919TIP3   OH275171   4.726   5.074   0.956  0.1855 -0.2955  0.7082
17919TIP3    H175172   4.664   5.120   1.013 -0.4926 -0.9165  0.4967
17919TIP3    H275173   4.695   4.983   0.957  0.2168 -0.3268 -0.5830
17920TIP3   OH275174   6.754   3.085   1.169 -0.2423 -0.0443 -0.3062
17920TIP3    H175175   6.776   2.992   1.178 -0.9361 -0.1378  0.5202
17920TIP3    H275176   6.669   3.084   1.125 -0.9575  0.1415  1.0409
17921TIP3   OH275177   3.380   6.173   1.839 -0.5773  0.3810 -0.8673
17921TIP3    H175178   3.363   6.082   1.818  2.4879 -0.9947  2.2078
17921TIP3    H275179   3.367   6.179   1.933  1.2723  2.6160 -0.7047
17922TIP3   OH275180   0.739   4.949  14.629  0.4446  0.5133 -0.0870
17922TIP3    H175181   0.688   5.027  14.652  1.4601  0.7229  1.5272
17922TIP3    H275182   0.829   4.971  14.653  0.8449 -0.9223 -0.2078
17923TIP3   OH275183   5.554   5.547   4.909 -0.2444 -0.1076 -0.4957
17923TIP3    H175184   5.639   5.523   4.945 -0.2246 -1.5367 -1.4937
17923TIP3    H275185   5.501   5.569   4.986 -0.2102 -3.1529  0.4356
17924TIP3   OH275186   2.673   4.115   2.768 -0.1958 -0.5200 -0.6893
17924TIP3    H175187   2.599   4.139   2.824  0.1212  2.5231 -1.4875
17924TIP3    H275188   2.749   4.118   2.827 -0.0452  1.3975 -0.9289
17925TIP3   OH275189   4.153   5.297  13.013  0.3309 -0.9395  0.3377
17925TIP3    H175190   4.162   5.317  12.920 -1.4230 -0.5096  0.2610
17925TIP3    H275191   4.236   5.254  13.035  1.9084  1.3848 -0.7779
17926TIP3   OH275192   0.213   5.150   1.373 -0.6244  0.0985  0.1746
17926TIP3    H175193   0.292   5.182   1.416 -0.4080  0.4884 -0.5094
17926TIP3    H275194   0.243   5.078   1.318 -0.9512 -0.6185  0.9063
17927TIP3   OH275195   1.653   2.796   4.728 -0.2363 -0.1600  0.1860
17927TIP3    H175196   1.718   2.857   4.761 -0.8161 -0.3475  1.7362
17927TIP3    H275197   1.625   2.833   4.644  1.9838 -0.1962 -0.6060
17928TIP3   OH275198   2.356   2.738   4.830  0.3182 -0.3702  0.0087
17928TIP3    H175199   2.324   2.678   4.763  1.7431 -1.1918  0.0329
17928TIP3    H275200   2.277   2.778   4.867 -0.5895 -1.4958 -0.6860
17929TIP3   OH275201   1.087   2.714  14.796 -0.1342 -0.4491  0.3970
17929TIP3    H175202   1.173   2.733  14.758  0.6790  0.8089  2.7643
17929TIP3    H275203   1.026   2.769  14.747  0.6578 -0.0069 -0.1005
17930TIP3   OH275204   4.618   0.153  12.689 -0.2394 -0.1954  0.2689
17930TIP3    H175205   4.607   0.058  12.685 -0.8509 -0.1900  1.4717
17930TIP3    H275206   4.564   0.187  12.618  0.4811 -0.7734 -0.5641
17931TIP3   OH275207   3.723   2.993  14.136 -0.1490  0.2177 -0.1111
17931TIP3    H175208   3.658   2.922  14.136 -0.3486  0.4013  0.1723
17931TIP3    H275209   3.731   3.017  14.044 -3.0334  2.5203  0.1643
17932TIP3   OH275210   5.073   4.731  14.653  0.8220  0.5100 -1.0787
17932TIP3    H175211   5.085   4.790  14.579  4.9768  1.7305  0.4351
17932TIP3    H275212   5.130   4.656  14.633 -1.7651 -1.4364 -1.3573
17933TIP3   OH275213   2.850   6.395   4.179 -0.0379  0.3212 -0.1507
17933TIP3    H175214   2.820   6.336   4.248  0.1968 -0.8777 -1.0560
17933TIP3    H275215   2.945   6.386   4.178  0.2673  2.8295  1.5608
17934TIP3   OH275216   5.378   0.752  12.246  0.2727 -0.1070 -0.2586
17934TIP3    H175217   5.369   0.776  12.153 -1.2662 -0.6152 -0.2596
17934TIP3    H275218   5.305   0.692  12.262  0.6320 -0.1545  1.2439
17935TIP3   OH275219   1.109   0.147  12.410  0.7518  0.7037 -0.1152
17935TIP3    H175220   1.125   0.113  12.498  0.1832  1.3545  0.2424
17935TIP3    H275221   1.035   0.207  12.420 -0.0762 -0.1032 -1.2479
17936TIP3   OH275222   0.512   2.666   6.318  0.2424  0.0593  0.7429
17936TIP3    H175223   0.528   2.689   6.410 -1.4511  1.0295  0.8306
17936TIP3    H275224   0.423   2.630   6.318  0.7914 -1.3430 -0.2948
17937TIP3   OH275225   2.502   2.181   2.829 -0.1525  0.2331 -0.6421
17937TIP3    H175226   2.428   2.138   2.785 -1.2000  2.4210 -1.0701
17937TIP3    H275227   2.500   2.145   2.918 -0.8554 -0.7741 -1.0494
17938TIP3   OH275228   3.373   0.375   4.228 -0.1127  0.3819  0.2003
17938TIP3    H175229   3.403   0.393   4.317 -1.9058  1.0387  0.7103
17938TIP3    H275230   3.288   0.333   4.240  1.6501 -3.7993 -1.1075
17939TIP3   OH275231   2.435   1.423  14.776 -0.7111 -0.0288  0.1771
17939TIP3    H175232   2.347   1.403  14.743 -0.8982  0.9021  0.0795
17939TIP3    H275233   2.420   1.463  14.861 -0.3303 -0.6390  0.5332
17940TIP3   OH275234   1.436   5.170  12.566 -0.4900 -0.2267  0.2731
17940TIP3    H175235   1.384   5.090  12.573 -0.3601 -0.6282 -2.6848
17940TIP3    H275236   1.513   5.154  12.621 -1.9544 -0.8595  2.1992
17941TIP3   OH275237   2.575   3.679  13.961  0.1003 -0.4783  1.1504
17941TIP3    H175238   2.578   3.596  14.008  1.3996 -0.6560  0.7750
17941TIP3    H275239   2.657   3.723  13.984 -0.0163  0.1609  0.3799
17942TIP3   OH275240   3.231   2.748   2.709 -1.0354  0.5052 -1.0381
17942TIP3    H175241   3.322   2.776   2.711 -1.1067  0.6121  1.0506
17942TIP3    H275242   3.234   2.654   2.729 -1.5900  1.0687  1.8025
17943TIP3   OH275243   4.799   3.693   5.419 -0.1334  0.0808 -0.0213
17943TIP3    H175244   4.840   3.607   5.416 -2.0898 -0.8670 -0.7454
17943TIP3    H275245   4.776   3.706   5.511  0.3194 -0.0865  0.1160
17944TIP3   OH275246   3.350   3.863  12.443 -0.2388  0.7460 -0.0211
17944TIP3    H175247   3.386   3.780  12.473 -0.5669  0.2492 -0.9889
17944TIP3    H275248   3.380   3.927  12.508  0.9094  0.0529  0.1476
17945TIP3   OH275249   5.870   2.387   3.483  0.1719 -0.3614 -0.0392
17945TIP3    H175250   5.814   2.464   3.469 -0.6696 -0.8229  0.7611
17945TIP3    H275251   5.809   2.314   3.487  0.9654 -1.0598 -0.6489
17946TIP3   OH275252   0.918   4.373   2.168 -0.2253  0.0256 -0.3603
17946TIP3    H175253   0.905   4.279   2.180  1.7650 -0.2846 -0.3703
17946TIP3    H275254   0.830   4.409   2.157 -1.0940 -1.6704  0.7998
17947TIP3   OH275255   3.805   4.299  16.972 -0.6928 -0.3914  0.5206
17947TIP3    H175256   3.768   4.377  16.933  1.2661 -0.2767 -1.1611
17947TIP3    H275257   3.729   4.242  16.988 -1.6416 -0.0869 -2.6135
17948TIP3   OH275258   0.234   5.854  12.063  0.0253  0.8240  0.2565
17948TIP3    H175259   0.199   5.901  12.139  2.7046  4.1250 -0.3815
17948TIP3    H275260   0.292   5.918  12.021  0.4157 -1.6987 -3.2470
17949TIP3   OH275261   6.282   2.826  12.907  0.2282 -0.5665  0.4964
17949TIP3    H175262   6.189   2.820  12.883  0.3801 -0.7785 -0.0506
17949TIP3    H275263   6.327   2.775  12.840  0.7012 -0.8576  1.0325
17950TIP3   OH275264   3.443   6.225  15.919  0.0083  0.2531 -0.4145
17950TIP3    H175265   3.351   6.243  15.938 -0.0631  0.5899 -1.0863
17950TIP3    H275266   3.458   6.264  15.833  0.7369  0.0624 -0.3754
17951TIP3   OH275267   1.511   0.593   4.121  0.1514 -0.2368  0.0000
17951TIP3    H175268   1.525   0.551   4.036 -0.6891  1.0328 -0.7907
17951TIP3    H275269   1.417   0.611   4.124  0.4121  1.1207  0.5321
17952TIP3   OH275270   6.238   3.378   2.997  0.1231  0.0574  0.3536
17952TIP3    H175271   6.305   3.447   2.994  0.0129  0.1663  0.3843
17952TIP3    H275272   6.285   3.298   2.973  0.2844  0.1183  0.4643
17953TIP3   OH275273   0.649   6.219   5.681  0.4678 -0.0327  0.3165
17953TIP3    H175274   0.569   6.192   5.726  0.1252 -0.2796 -0.4288
17953TIP3    H275275   0.713   6.152   5.703 -0.5831 -1.9232 -2.1424
17954TIP3   OH275276   6.152   4.277  12.395 -0.1499  0.0492 -0.2507
17954TIP3    H175277   6.201   4.272  12.313  1.9766 -1.2499  1.0487
17954TIP3    H275278   6.162   4.190  12.434 -1.3929  0.5664  1.2491
17955TIP3   OH275279   1.542   0.084   5.898 -0.4115  0.4955  0.0373
17955TIP3    H175280   1.584   0.022   5.957 -0.9113  0.8489  0.7775
17955TIP3    H275281   1.456   0.099   5.937 -0.2489  1.7336 -0.0670
17956TIP3   OH275282   4.103   3.801   2.735 -0.4515 -0.2794 -0.2544
17956TIP3    H175283   4.032   3.808   2.671 -0.2111 -1.3649 -0.6590
17956TIP3    H275284   4.172   3.753   2.688 -0.4274 -1.4302  0.9552
17957TIP3   OH275285   4.491   2.537  10.482 -0.2267  0.0279  0.0618
17957TIP3    H175286   4.548   2.583  10.421 -0.7267  0.1605 -0.3156
17957TIP3    H275287   4.412   2.592  10.487 -0.5804 -0.4744  0.0736
17958TIP3   OH275288   4.215   3.407  12.594 -0.4215  0.1890  0.1176
17958TIP3    H175289   4.167   3.341  12.544  0.7524  0.5429 -1.5463
17958TIP3    H275290   4.170   3.412  12.678 -2.1552 -0.7940 -0.7298
17959TIP3   OH275291   1.623   0.265   2.007  0.6422 -0.2257  0.1689
17959TIP3    H175292   1.648   0.294   2.095 -1.5302  1.9180  0.1293
17959TIP3    H275293   1.538   0.223   2.019 -0.2945  1.2462 -1.0565
17960TIP3   OH275294   4.068   3.460  11.340  0.4022  0.3086  0.0044
17960TIP3    H175295   4.070   3.544  11.294 -2.5660  0.6012  0.3590
17960TIP3    H275296   4.125   3.474  11.415  1.5924  1.3211 -1.0386
17961TIP3   OH275297   6.696   2.987  10.442 -0.0959  0.0976  0.1909
17961TIP3    H175298   6.691   2.893  10.427 -1.2290  0.3150 -0.9011
17961TIP3    H275299   6.753   2.997  10.518  1.7461 -1.3600 -0.9549
17962TIP3   OH275300   3.894   0.401   0.220 -0.5715  0.0675 -0.9088
17962TIP3    H175301   3.940   0.325   0.255  0.5719  1.5810  0.9555
17962TIP3    H275302   3.802   0.374   0.216 -0.0312 -1.7584 -1.2985
17963TIP3   OH275303   3.155   5.056  13.564  0.0503  0.0368  0.1498
17963TIP3    H175304   3.072   5.072  13.609 -0.2648 -0.5760 -0.2077
17963TIP3    H275305   3.159   5.124  13.497  0.4663  0.8837  1.0115
17964TIP3   OH275306   2.291   4.157  16.993 -0.4863  0.1788  0.1747
17964TIP3    H175307   2.212   4.207  17.009  0.4337  1.4412  0.8090
17964TIP3    H275308   2.297   4.096  17.067  0.8060  2.2361  1.8069
17965TIP3   OH275309   5.396   0.865  15.499  0.0557 -0.5383 -0.1207
17965TIP3    H175310   5.483   0.828  15.512 -0.8514 -2.2160  1.5038
17965TIP3    H275311   5.336   0.793  15.519 -1.7088  0.1333 -2.6942
17966TIP3   OH275312   2.318   3.632  11.952  0.0780 -0.2444  0.0761
17966TIP3    H175313   2.377   3.634  11.877 -0.8183  1.0276 -0.6133
17966TIP3    H275314   2.312   3.540  11.976  0.1764 -0.6896 -1.5720
17967TIP3   OH275315   6.515   2.616   6.077  0.7068 -0.4192  0.8506
17967TIP3    H175316   6.478   2.544   6.129  0.9012 -0.9311  0.2950
17967TIP3    H275317   6.486   2.695   6.122  0.5191 -0.8448  1.4963
17968TIP3   OH275318   4.569   4.715  12.777  0.0624  0.2903 -0.1890
17968TIP3    H175319   4.641   4.655  12.794  0.4432 -0.0445 -2.8130
17968TIP3    H275320   4.490   4.665  12.802  0.6372  0.2185  1.5227
17969TIP3   OH275321   2.178   1.015  13.626  0.0822 -0.1264 -0.2584
17969TIP3    H175322   2.132   1.087  13.584 -1.4904 -0.7173  0.4393
17969TIP3    H275323   2.251   0.996  13.567 -1.7431 -0.5611 -2.4269
17970TIP3   OH275324   1.850   3.314  15.156  0.3743 -0.3046  0.2252
17970TIP3    H175325   1.781   3.334  15.219  0.5819  1.6660 -0.1394
17970TIP3    H275326   1.924   3.285  15.209 -0.1163 -0.5883  0.7497
17971TIP3   OH275327   4.291   4.794   0.342  0.3896  0.3275  0.1788
17971TIP3    H175328   4.328   4.799   0.430 -0.3117 -2.9820  0.7395
17971TIP3    H275329   4.208   4.840   0.349  1.4374  2.2304  0.5709
17972TIP3   OH275330   3.907   3.223   6.550 -0.2191 -0.2103  0.5528
17972TIP3    H175331   3.905   3.157   6.480 -1.2446 -0.8394  1.1637
17972TIP3    H275332   3.953   3.180   6.622  1.4707  0.6854  0.0408
17973TIP3   OH275333   0.083   0.645  13.539  0.3042  0.3220  0.5915
17973TIP3    H175334   0.120   0.637  13.452 -1.8130 -0.1301 -0.3025
17973TIP3    H275335   0.065   0.739  13.549 -0.4097  0.2430  0.1106
17974TIP3   OH275336   2.071   4.330  10.333  0.0657 -0.0945  0.8642
17974TIP3    H175337   2.075   4.246  10.378  1.9967  0.3746  1.6182
17974TIP3    H275338   2.083   4.395  10.402 -0.2992  0.7569  0.1315
17975TIP3   OH275339   5.135   1.208  14.752 -0.0225  0.0134 -0.0577
17975TIP3    H175340   5.163   1.249  14.834 -0.2864  0.6638 -0.2905
17975TIP3    H275341   5.155   1.272  14.684 -0.8111 -0.0686 -0.3790
17976TIP3   OH275342   6.238   3.821   1.218  0.5922  0.0016 -0.1168
17976TIP3    H175343   6.158   3.844   1.171  0.2582 -0.5366  0.1875
17976TIP3    H275344   6.211   3.816   1.310  0.7415 -1.2490 -0.1354
17977TIP3   OH275345   6.523   4.463  17.170  0.0960  0.1856  0.6199
17977TIP3    H175346   6.435   4.482  17.203 -0.6933 -2.0704 -0.0487
17977TIP3    H275347   6.508   4.409  17.092  2.0450  1.4319 -0.6642
17978TIP3   OH275348   2.484   1.242   3.348 -0.1246  0.1737  0.0430
17978TIP3    H175349   2.394   1.216   3.367 -0.2012 -0.1711 -0.7564
17978TIP3    H275350   2.533   1.160   3.350  0.2901  0.4450  1.1172
17979TIP3   OH275351   1.434   4.572  16.228  0.1186  0.0894 -0.6208
17979TIP3    H175352   1.351   4.559  16.182  0.5889  1.7804 -1.9705
17979TIP3    H275353   1.454   4.665  16.216  0.7644  0.3396  2.1479
17980TIP3   OH275354   4.798   2.476   3.816 -0.3476 -0.5722 -0.1606
17980TIP3    H175355   4.704   2.492   3.804 -0.2228 -0.1893 -0.6174
17980TIP3    H275356   4.809   2.474   3.911 -0.4771  1.3913 -0.0794
17981TIP3   OH275357   6.480   5.287  10.494 -0.0007 -0.4044 -0.0471
17981TIP3    H175358   6.521   5.357  10.443  0.1958 -1.3022 -1.1404
17981TIP3    H275359   6.438   5.232  10.429  0.3139 -1.6086  0.7571
17982TIP3   OH275360   6.786   2.698  13.224 -0.1071  0.3511 -0.1291
17982TIP3    H175361   6.874   2.665  13.209 -0.1602 -0.2842  0.8461
17982TIP3    H275362   6.729   2.637  13.176 -0.1228 -0.2912  0.6840
17983TIP3   OH275363   0.885   6.435  14.149 -0.5008  0.2673  0.4299
17983TIP3    H175364   0.899   6.481  14.232  1.0789 -0.8646  0.8119
17983TIP3    H275365   0.968   6.446  14.102 -1.5316  1.2704 -1.2048
17984TIP3   OH275366   1.741   1.279  11.577 -0.5581 -0.4862 -0.1794
17984TIP3    H175367   1.832   1.265  11.604 -0.9632  0.6504  1.9230
17984TIP3    H275368   1.693   1.206  11.615 -0.8702  0.2003  0.7697
17985TIP3   OH275369   4.059   4.486   1.919  0.5222  0.3541 -0.4611
17985TIP3    H175370   4.060   4.578   1.943  0.3747  0.1083  0.5070
17985TIP3    H275371   3.966   4.465   1.908  0.5620  0.3471 -0.8029
17986TIP3   OH275372   4.732   4.280   4.175 -0.3542 -0.0368  0.7508
17986TIP3    H175373   4.679   4.357   4.194 -0.1922  0.9164 -2.3149
17986TIP3    H275374   4.752   4.288   4.081 -0.1877 -3.7092  0.4138
17987TIP3   OH275375   5.743   2.518  14.399 -0.9890 -0.1349 -0.2986
17987TIP3    H175376   5.721   2.570  14.323  0.6986  1.2430  0.1207
17987TIP3    H275377   5.804   2.451  14.366 -0.0544  0.6208 -0.1429
17988TIP3   OH275378   0.437   2.982   4.213  0.0911 -0.2442  0.2879
17988TIP3    H175379   0.422   3.074   4.232 -1.1687  0.0513 -2.0115
17988TIP3    H275380   0.349   2.946   4.198  0.6800 -1.4674 -0.2978
17989TIP3   OH275381   2.689   0.106  13.001 -0.7184 -0.5847  0.1757
17989TIP3    H175382   2.706   0.013  12.987 -0.8799 -0.5306 -0.3910
17989TIP3    H275383   2.640   0.110  13.083 -1.3350 -1.0610 -0.1661
17990TIP3   OH275384   1.684   3.125  11.804 -0.2361 -0.2347 -0.4441
17990TIP3    H175385   1.750   3.190  11.780 -0.2957 -0.0525 -0.1123
17990TIP3    H275386   1.618   3.174  11.853  0.4156 -0.7954  1.0219
17991TIP3   OH275387   1.630   1.029   2.393 -0.0628 -0.2023  0.1152
17991TIP3    H175388   1.592   0.942   2.380 -0.3907 -0.2226  1.2070
17991TIP3    H275389   1.554   1.088   2.394  0.1833  0.1428 -0.9595
17992TIP3   OH275390   5.146   1.747   4.695  0.0151 -0.0245  0.1344
17992TIP3    H175391   5.221   1.781   4.744  0.3631 -1.3815  0.5598
17992TIP3    H275392   5.181   1.721   4.610 -0.2130  0.4824 -0.1188
17993TIP3   OH275393   1.526   1.466   5.891 -0.7501  0.4821  0.0874
17993TIP3    H175394   1.609   1.419   5.888 -0.7546  0.3877  1.1282
17993TIP3    H275395   1.518   1.506   5.805  1.3253  2.0924  0.5948
17994TIP3   OH275396   6.564   1.379   2.412 -0.5817  0.1577 -0.2525
17994TIP3    H175397   6.616   1.458   2.430  0.3920 -0.9526  2.0098
17994TIP3    H275398   6.570   1.367   2.317  0.8932  1.6940 -0.3673
17995TIP3   OH275399   2.152   3.709  16.325 -0.1422 -0.1266 -0.4174
17995TIP3    H175400   2.213   3.646  16.287 -1.5140 -1.8271  0.1030
17995TIP3    H275401   2.092   3.731  16.254 -1.0016 -1.1454 -0.0311
17996TIP3   OH275402   5.313   2.722  15.679  0.2196  1.0564 -0.3310
17996TIP3    H175403   5.299   2.669  15.601  0.7224  1.1788 -0.5081
17996TIP3    H275404   5.327   2.659  15.750  0.4596  0.9457 -0.4742
17997TIP3   OH275405   0.934   3.726   2.315  0.5823 -0.4352  0.1497
17997TIP3    H175406   0.885   3.806   2.336 -1.4911 -1.9537  1.2533
17997TIP3    H275407   0.981   3.705   2.395  3.8380  1.4837 -1.1603
17998TIP3   OH275408   3.346   1.015  10.878 -0.3315  0.2827 -0.0341
17998TIP3    H175409   3.374   0.933  10.919 -0.8487 -0.0066 -0.2518
17998TIP3    H275410   3.415   1.035  10.815 -0.4851 -0.2922 -0.3910
17999TIP3   OH275411   2.702   4.017   4.226 -0.2625 -0.4132 -0.3959
17999TIP3    H175412   2.625   4.072   4.215  0.6851  0.7223 -1.4315
17999TIP3    H275413   2.770   4.060   4.175  0.7656 -2.0047 -0.4027
18000TIP3   OH275414   2.150   0.949  16.120  0.0991  0.0100 -0.0837
18000TIP3    H175415   2.065   0.993  16.117  0.2024  0.1487 -1.0899
18000TIP3    H275416   2.191   0.970  16.036  1.4490  0.5916  0.6985
18001TIP3   OH275417   6.312   6.060   1.594  0.2071 -0.0637 -0.5092
18001TIP3    H175418   6.406   6.072   1.598 -0.0880  2.2337  0.5781
18001TIP3    H275419   6.286   6.097   1.509  0.2852 -0.8142 -0.8654
18002TIP3   OH275420   5.172   0.016  11.942 -0.0909 -0.0146  0.4820
18002TIP3    H175421   5.112  -0.052  11.971 -0.3643 -0.2908 -0.7320
18002TIP3    H275422   5.253  -0.030  11.922 -0.6009 -0.1544 -1.3682
18003TIP3   OH275423   4.348   6.780  16.054 -0.4215 -0.4233 -0.5317
18003TIP3    H175424   4.425   6.827  16.021 -0.6390 -0.7660 -1.5560
18003TIP3    H275425   4.304   6.749  15.975 -2.2121  0.7085  0.0167
18004TIP3   OH275426   4.892   0.958   3.600  0.1852  0.1940 -0.2886
18004TIP3    H175427   4.957   0.918   3.658  1.8898  0.8264 -1.7112
18004TIP3    H275428   4.853   0.884   3.553 -0.1957 -0.1999  0.6557
18005TIP3   OH275429   5.046   3.295   6.042  0.1821 -0.0592 -0.3097
18005TIP3    H175430   5.066   3.274   5.951 -0.0181  0.6617 -0.5240
18005TIP3    H275431   5.109   3.244   6.093  1.5293  0.9417 -0.9262
18006TIP3   OH275432   0.100   1.352  17.021 -0.4912 -0.2269 -0.4787
18006TIP3    H175433   0.151   1.314  17.092 -1.2046 -0.1626  0.0657
18006TIP3    H275434   0.107   1.288  16.950 -0.0341 -0.4337 -0.2499
18007TIP3   OH275435   3.614   2.412  15.593  0.3136 -0.2638  0.1647
18007TIP3    H175436   3.539   2.357  15.614 -0.1089 -0.2488 -1.2761
18007TIP3    H275437   3.670   2.357  15.539  0.4372  0.3281 -0.3200
18008TIP3   OH275438   0.134   1.654  16.240  0.2522  0.3339  0.2588
18008TIP3    H175439   0.175   1.624  16.159  1.9548 -0.3957  1.3673
18008TIP3    H275440   0.097   1.574  16.278 -1.0933  0.7770 -0.0845
18009TIP3   OH275441   2.411   2.220  13.463  0.4814  0.1411  0.0283
18009TIP3    H175442   2.434   2.184  13.377 -1.2257 -0.7558 -0.0802
18009TIP3    H275443   2.344   2.286  13.444  0.2367  0.0752  0.6454
18010TIP3   OH275444   0.177   4.598  13.773  0.7068  0.3175  0.0185
18010TIP3    H175445   0.095   4.638  13.802 -0.9543 -1.2464 -2.3293
18010TIP3    H275446   0.241   4.669  13.778 -1.2906  2.2194 -0.4022
18011TIP3   OH275447   6.236   1.861  16.492  0.2362 -0.5119 -0.2497
18011TIP3    H175448   6.255   1.802  16.419  1.0704 -1.1400  0.4626
18011TIP3    H275449   6.319   1.871  16.537  0.1562  1.3983 -0.4723
18012TIP3   OH275450   0.226   6.335  15.964 -0.3367 -0.4698  0.5174
18012TIP3    H175451   0.132   6.326  15.981 -0.6172 -0.0071 -0.7597
18012TIP3    H275452   0.239   6.298  15.877  0.6093 -0.1993  0.5305
18013TIP3   OH275453   3.920   1.532   5.898 -0.0236  0.9257 -0.4510
18013TIP3    H175454   3.874   1.514   5.816 -0.3374  0.1747 -0.1112
18013TIP3    H275455   3.851   1.545   5.962  0.2297  0.1374 -0.0140
18014TIP3   OH275456   4.011   3.702  11.236  0.7382  0.6080 -0.1385
18014TIP3    H175457   3.980   3.709  11.146 -2.1881  1.5761  0.8728
18014TIP3    H275458   3.931   3.700  11.288  2.3614 -0.7123  2.4037
18015TIP3   OH275459   4.414   6.021   0.094 -0.0503  0.3072  0.2513
18015TIP3    H175460   4.355   6.038   0.021 -0.5141  1.6172  0.9171
18015TIP3    H275461   4.403   5.928   0.113 -2.0081  0.5614  0.4533
18016TIP3   OH275462   5.430   4.833   6.442 -0.1678  0.1113 -0.0654
18016TIP3    H175463   5.388   4.765   6.388  1.4159  0.3928 -1.7294
18016TIP3    H275464   5.521   4.835   6.410  0.8474  0.2753  2.6659
18017TIP3   OH275465   5.137   2.446   3.937  0.2842 -0.0695 -0.0656
18017TIP3    H175466   5.207   2.381   3.929  0.3415  0.1043 -1.1506
18017TIP3    H275467   5.090   2.439   3.854 -1.1986 -0.4249  0.7957
18018TIP3   OH275468   2.642   4.530  13.217  0.8271 -0.1491  0.6344
18018TIP3    H175469   2.708   4.570  13.160  0.2766  0.9186  0.7259
18018TIP3    H275470   2.605   4.604  13.266 -0.2816 -0.7558  0.7307
18019TIP3   OH275471   5.883   3.238  12.620  0.1095 -0.0883 -0.3372
18019TIP3    H175472   5.814   3.263  12.559  1.5020  0.0813 -1.8437
18019TIP3    H275473   5.926   3.320  12.643 -0.7160 -0.0760  1.3059
18020TIP3   OH275474   5.773   3.761   5.077  0.3807 -0.3209 -0.0630
18020TIP3    H175475   5.711   3.705   5.124 -0.6252  0.2429 -0.7087
18020TIP3    H275476   5.753   3.746   4.985  0.1389  1.0612 -0.2440
18021TIP3   OH275477   0.211   2.730   1.980  0.0284 -0.0118  0.3281
18021TIP3    H175478   0.122   2.696   1.989 -0.5308  1.5476  0.8357
18021TIP3    H275479   0.202   2.825   1.990  1.6945  0.2013 -0.0018
18022TIP3   OH275480   6.175   0.384  10.892 -0.1508  0.2871 -0.3548
18022TIP3    H175481   6.126   0.311  10.854 -0.9789 -0.3074  1.7769
18022TIP3    H275482   6.254   0.344  10.928 -0.9159  0.3236  1.3938
18023TIP3   OH275483   1.542   4.982   2.549  0.0763  0.1625  0.8161
18023TIP3    H175484   1.467   4.931   2.578 -0.6199  1.8179  2.0390
18023TIP3    H275485   1.533   5.066   2.594  2.0380  0.8059  0.0912
18024TIP3   OH275486   1.571   2.067  14.361 -0.4674 -0.1701 -0.8011
18024TIP3    H175487   1.634   2.023  14.418 -1.6744 -1.2633 -0.3026
18024TIP3    H275488   1.577   2.160  14.385  1.9285 -0.0378 -1.7011
18025TIP3   OH275489   2.365   4.863   4.530 -0.4351  0.1434 -0.0726
18025TIP3    H175490   2.377   4.791   4.593  2.4174  0.2040 -0.4924
18025TIP3    H275491   2.414   4.936   4.567 -0.1541  0.7093 -1.5343
18026TIP3   OH275492   0.818   0.694   3.353  0.2208 -0.2313 -0.3613
18026TIP3    H175493   0.789   0.780   3.384  0.1273 -0.8348  1.2765
18026TIP3    H275494   0.795   0.693   3.260 -0.9100  1.0389 -0.1077
18027TIP3   OH275495   0.747   2.814   0.780 -0.1670 -0.5192  0.3176
18027TIP3    H175496   0.674   2.849   0.832 -0.7577  0.2123 -0.9749
18027TIP3    H275497   0.781   2.890   0.733  0.2933 -1.1972 -0.4535
18028TIP3   OH275498   1.919   2.519  10.771 -0.2032 -0.9626  0.5237
18028TIP3    H175499   1.930   2.428  10.743  1.7514  0.9339 -5.7069
18028TIP3    H275500   1.852   2.554  10.714  1.9792  2.5338 -0.0194
18029TIP3   OH275501   0.902   6.751  12.655  0.4028  0.0922  0.3898
18029TIP3    H175502   0.843   6.688  12.697 -0.0219  1.1861  1.4746
18029TIP3    H275503   0.967   6.697  12.610 -3.0925 -1.2713 -3.4467
18030TIP3   OH275504   6.404   5.331   1.204 -0.0199 -0.0478 -0.6261
18030TIP3    H175505   6.418   5.353   1.296  0.9784  0.4067 -0.8846
18030TIP3    H275506   6.387   5.237   1.204  0.5331 -0.1460 -0.0467
18031TIP3   OH275507   3.674   0.325   2.571 -0.4557  0.4635  0.2496
18031TIP3    H175508   3.600   0.377   2.540 -0.8727 -1.8924 -2.9471
18031TIP3    H275509   3.751   0.379   2.551 -1.0840  1.4143  0.3767
18032TIP3   OH275510   3.500   0.489  11.392  0.1796  0.2266 -0.3362
18032TIP3    H175511   3.516   0.413  11.337 -0.9836  1.1696 -2.0246
18032TIP3    H275512   3.450   0.456  11.466  1.0180 -0.9004 -0.2609
18033TIP3   OH275513   3.242   6.273   1.599 -0.0821  0.3079 -0.1420
18033TIP3    H175514   3.264   6.202   1.659  1.5151  1.9595  1.3345
18033TIP3    H275515   3.171   6.239   1.545 -0.3078 -1.8864  1.4717
18034TIP3   OH275516   0.834   5.923   3.444 -0.2442 -0.3030 -0.3600
18034TIP3    H175517   0.858   6.010   3.412 -0.7856 -0.2628 -0.6634
18034TIP3    H275518   0.897   5.863   3.403  0.1142 -0.0610 -0.1686
18035TIP3   OH275519   4.556   5.097   3.847 -0.1757  0.3952 -0.9528
18035TIP3    H175520   4.622   5.126   3.784 -0.2331  0.8866 -0.7835
18035TIP3    H275521   4.563   5.159   3.920 -0.3904  0.0716 -0.6540
18036TIP3   OH275522   1.139   3.892   6.238  0.3855  0.1270 -0.1784
18036TIP3    H175523   1.083   3.851   6.303  0.3318  2.7225  1.4900
18036TIP3    H275524   1.203   3.824   6.216 -1.1444 -1.6366  0.6414
18037TIP3   OH275525   3.406   6.127   3.291  0.1536 -0.1454  0.1180
18037TIP3    H175526   3.349   6.104   3.218 -0.4416  0.2838  0.4530
18037TIP3    H275527   3.349   6.167   3.356  0.8788  0.5547  0.3309
18038TIP3   OH275528   5.788   3.477  12.939  0.3980  0.2475 -0.7963
18038TIP3    H175529   5.746   3.548  12.891  0.9408  0.2758 -1.2403
18038TIP3    H275530   5.716   3.429  12.981  0.1327  2.1676  1.0633
18039TIP3   OH275531   1.341   1.188  11.169 -0.2081 -0.1529 -0.5787
18039TIP3    H175532   1.436   1.195  11.166 -0.2342 -0.2148 -1.6479
18039TIP3    H275533   1.310   1.277  11.155 -0.3252 -0.2694 -1.0501
18040TIP3   OH275534   1.748   3.296   3.874  0.0119  0.6814  0.0951
18040TIP3    H175535   1.753   3.263   3.963 -0.5158  2.8944  0.9812
18040TIP3    H275536   1.785   3.384   3.878 -0.4800  1.0154 -1.7663
18041TIP3   OH275537   2.957   4.400  14.072  0.8021 -0.0285  0.0455
18041TIP3    H175538   3.008   4.393  13.991  1.0123 -3.6182  0.3856
18041TIP3    H275539   3.019   4.379  14.142 -0.3012 -1.0498  0.7470
18042TIP3   OH275540   0.457   2.951   1.574  0.1161  0.3777 -0.5349
18042TIP3    H175541   0.363   2.935   1.565  0.2482 -0.0798 -1.1327
18042TIP3    H275542   0.498   2.868   1.549  0.6642  0.4550  0.0943
18043TIP3   OH275543   3.987   1.636  16.031 -0.0486 -0.3313 -0.2710
18043TIP3    H175544   4.046   1.573  15.990  3.2280  2.6743 -0.4432
18043TIP3    H275545   4.039   1.677  16.099 -2.3126  1.6670  0.3185
18044TIP3   OH275546   5.747   6.673  10.719  0.6016  0.5019 -0.2033
18044TIP3    H175547   5.746   6.592  10.770  1.7267  0.3328 -0.4400
18044TIP3    H275548   5.662   6.713  10.737  0.3839 -0.2949  0.6084
18045TIP3   OH275549   4.146   0.544   0.594 -0.1247  0.2704  0.1148
18045TIP3    H175550   4.082   0.496   0.647 -0.9735 -1.1705 -2.1655
18045TIP3    H275551   4.093   0.608   0.545  0.3035 -0.2326 -1.0082
18046TIP3   OH275552   0.518   5.019  15.784 -0.0399 -0.1825  0.3150
18046TIP3    H175553   0.476   5.105  15.790 -1.5707 -0.7651 -1.3830
18046TIP3    H275554   0.607   5.033  15.816  0.5932  2.6560 -2.4327
18047TIP3   OH275555   3.436   4.740   3.251 -0.4819 -0.2063  0.1944
18047TIP3    H175556   3.464   4.830   3.267 -1.0221  0.3343 -1.8003
18047TIP3    H275557   3.343   4.747   3.233 -0.7436 -1.3150  1.0743
18048TIP3   OH275558   0.534   1.797  12.781  0.6196 -0.0790  0.0493
18048TIP3    H175559   0.627   1.773  12.782  0.3777 -1.0449 -0.5084
18048TIP3    H275560   0.526   1.861  12.851  2.0756  1.3823 -1.0702
18049TIP3   OH275561   6.210   6.476  13.625 -0.1024 -0.4024 -0.0714
18049TIP3    H175562   6.244   6.492  13.713 -1.4106  0.4134  0.3059
18049TIP3    H275563   6.121   6.443  13.640  0.2093 -1.7343 -1.0549
18050TIP3   OH275564   6.179   3.131  16.678  0.2361 -0.2645 -0.2078
18050TIP3    H175565   6.152   3.080  16.754  1.7054 -2.1351 -0.9168
18050TIP3    H275566   6.256   3.086  16.644  0.7146  1.6099 -1.7172
18051TIP3   OH275567   3.145   5.974  15.132 -0.3874  0.0349  0.1371
18051TIP3    H175568   3.170   5.882  15.126 -3.1599 -0.8733  1.5451
18051TIP3    H275569   3.181   6.003  15.216  0.3694  0.2342 -0.2455
18052TIP3   OH275570   3.751   6.108   0.773 -0.4397  0.1249 -0.4918
18052TIP3    H175571   3.673   6.094   0.826  0.1728 -0.2632  0.3099
18052TIP3    H275572   3.744   6.043   0.703 -0.4295 -0.4453  0.0355
18053TIP3   OH275573   2.473   2.440   4.850  0.3946 -0.3291 -0.1187
18053TIP3    H175574   2.471   2.349   4.819  0.8943 -0.2140 -0.5126
18053TIP3    H275575   2.539   2.482   4.794  0.5325  0.1508  0.4035
18054TIP3   OH275576   2.002   6.645   5.240 -0.1174  0.2408  0.3079
18054TIP3    H175577   1.966   6.565   5.278  3.0286 -1.9819 -1.2007
18054TIP3    H275578   2.047   6.688   5.313 -0.5662 -0.1337  0.8050
18055TIP3   OH275579   3.576   4.941   4.134 -0.4519 -0.3520  0.2254
18055TIP3    H175580   3.512   5.005   4.102 -0.3740 -1.0221 -1.3207
18055TIP3    H275581   3.593   4.968   4.224  2.1929  3.9565 -1.3715
18056TIP3   OH275582   0.548   0.500  13.765 -0.0141 -0.1063  0.0411
18056TIP3    H175583   0.495   0.456  13.699  0.7898  0.0810 -0.7374
18056TIP3    H275584   0.639   0.481  13.740  0.3044 -0.0728  1.1155
18057TIP3   OH275585   3.754   3.713  15.621 -0.2714 -0.4230  0.4112
18057TIP3    H175586   3.820   3.758  15.568  0.8366 -0.7369  1.5154
18057TIP3    H275587   3.805   3.660  15.683 -1.5596 -0.9970  0.9907
18058TIP3   OH275588   1.122   0.352  15.101 -0.6003 -0.7196 -0.1473
18058TIP3    H175589   1.028   0.346  15.084 -0.5024  0.3741 -1.1087
18058TIP3    H275590   1.129   0.405  15.180 -0.8282 -1.6723  0.5250
18059TIP3   OH275591   2.649   4.187  11.556  0.0383  0.1887  0.3596
18059TIP3    H175592   2.573   4.156  11.606  0.2895 -0.9224  0.0637
18059TIP3    H275593   2.723   4.176  11.615  0.1588  0.0606  0.1818
18060TIP3   OH275594   6.403   2.726  16.352 -0.3376 -0.0186  0.2085
18060TIP3    H175595   6.421   2.664  16.423  0.0060  2.0546  1.9920
18060TIP3    H275596   6.489   2.760  16.328 -0.6661  0.9544  0.3839
18061TIP3   OH275597   1.457   4.939  11.238  0.1068 -0.1416  0.3073
18061TIP3    H175598   1.454   4.927  11.143 -0.6003 -0.4994  0.3751
18061TIP3    H275599   1.374   4.905  11.269  0.2914  0.0810  1.0478
18062TIP3   OH275600   1.838   6.486   2.155  0.1791 -0.0509 -0.3522
18062TIP3    H175601   1.783   6.426   2.106  0.1812 -0.0713 -0.3299
18062TIP3    H275602   1.814   6.472   2.246  1.3032 -1.1551 -0.2054
18063TIP3   OH275603   2.267   3.069   2.822 -0.5035  0.1631  0.4982
18063TIP3    H175604   2.250   2.977   2.801  0.3993  0.5174 -1.9077
18063TIP3    H275605   2.220   3.118   2.754  1.1792  1.3997  0.1948
18064TIP3   OH275606   1.473   6.112   1.454  0.4482 -0.0583 -0.1052
18064TIP3    H175607   1.394   6.150   1.494 -0.2101 -0.0942 -1.3473
18064TIP3    H275608   1.500   6.176   1.389  1.1236 -0.3089 -0.0732
18065TIP3   OH275609   6.170   1.383  16.989  0.3787  0.0682  0.2217
18065TIP3    H175610   6.159   1.478  16.984 -1.9987 -0.0180  2.6413
18065TIP3    H275611   6.247   1.370  17.044  1.3264  0.5806 -0.9599
18066TIP3   OH275612   3.483   4.410   0.386  0.5263  0.3980 -0.0537
18066TIP3    H175613   3.514   4.321   0.368  0.8511  0.5858 -0.4326
18066TIP3    H275614   3.471   4.412   0.481  1.5494  0.2785  0.0891
18067TIP3   OH275615   0.959   2.575  16.020  0.0934  0.3496 -0.4654
18067TIP3    H175616   0.952   2.530  16.105  0.2644  1.3932  0.1125
18067TIP3    H275617   1.053   2.584  16.005  0.0659  0.0012 -0.8633
18068TIP3   OH275618   1.356   0.986  14.825 -0.0070  0.3211  0.2578
18068TIP3    H175619   1.285   1.013  14.883 -0.7627  1.7805 -1.3357
18068TIP3    H275620   1.348   0.890  14.821 -2.2561  0.5056 -0.3680
18069TIP3   OH275621   1.999   1.928   3.759 -0.1961  0.4067 -0.0178
18069TIP3    H175622   1.956   1.951   3.677  0.4253 -0.5423 -0.6177
18069TIP3    H275623   2.058   1.856   3.736 -0.3329 -0.1557  1.3447
18070TIP3   OH275624   3.122   4.118   4.835 -0.2003  0.1672 -0.6482
18070TIP3    H175625   3.076   4.034   4.839 -0.4322  0.3306  0.2417
18070TIP3    H275626   3.213   4.095   4.854 -0.2358  0.0923 -0.5632
18071TIP3   OH275627   0.651   5.922  11.504 -0.2079 -0.3812 -0.6180
18071TIP3    H175628   0.606   5.905  11.422  1.6255  0.6125 -1.8451
18071TIP3    H275629   0.715   5.990  11.483 -0.2282  0.4442  1.7924
18072TIP3   OH275630   5.341   2.197   2.022 -0.9332  0.1238 -0.2370
18072TIP3    H175631   5.333   2.129   2.089  0.7490  1.0924  0.9994
18072TIP3    H275632   5.260   2.247   2.028 -1.2419 -0.4315  0.3320
18073TIP3   OH275633   5.597   1.094   0.084  0.4279  0.4005  0.2605
18073TIP3    H175634   5.577   1.186   0.065 -1.1197  0.3591  1.5899
18073TIP3    H275635   5.511   1.053   0.094  1.1460 -0.7939  1.5289
18074TIP3   OH275636   2.621   1.052   5.534 -0.0625  0.6447 -0.3062
18074TIP3    H175637   2.679   1.120   5.499  0.3666 -0.3178 -1.5065
18074TIP3    H275638   2.681   0.984   5.565 -0.4704  1.0464  1.4100
18075TIP3   OH275639   4.337   2.019  12.242  0.2078 -0.2016 -1.0798
18075TIP3    H175640   4.260   2.051  12.288  0.0890 -0.6522 -0.9696
18075TIP3    H275641   4.355   1.933  12.281  1.8855  0.7002  0.2357
18076TIP3   OH275642   1.804   5.087   2.666 -0.1218 -0.2527 -0.3692
18076TIP3    H175643   1.815   5.084   2.571 -1.2753  1.3872 -0.5859
18076TIP3    H275644   1.751   5.010   2.686 -0.9387  0.0711 -1.2344
18077TIP3   OH275645   0.361   2.031  14.387  0.3744 -0.0540  0.4081
18077TIP3    H175646   0.382   2.098  14.322  0.9603  1.6557  2.3521
18077TIP3    H275647   0.437   1.973  14.386  1.3375  1.1791  1.0919
18078TIP3   OH275648   0.524   2.446  13.867  0.0002 -0.2385  0.0516
18078TIP3    H175649   0.471   2.514  13.907 -0.8376 -0.3171 -0.8949
18078TIP3    H275650   0.555   2.485  13.785  1.8980  0.0170  0.8604
18079TIP3   OH275651   6.231   4.790   3.093 -0.3622  0.4616  0.6861
18079TIP3    H175652   6.281   4.727   3.041  0.0846 -1.0389  2.8624
18079TIP3    H275653   6.258   4.875   3.060  1.5107 -0.4131 -0.1118
18080TIP3   OH275654   0.365   0.301  13.916  0.0046  0.2275 -0.6906
18080TIP3    H175655   0.432   0.368  13.901  0.8841 -0.4115  0.2829
18080TIP3    H275656   0.284   0.350  13.930  0.3502  1.0240 -1.4522
18081TIP3   OH275657   6.261   2.762   4.220  0.0856 -0.9279 -0.6296
18081TIP3    H175658   6.251   2.749   4.125  3.6001  2.6581 -1.6116
18081TIP3    H275659   6.175   2.790   4.250 -0.7872 -1.0226 -2.9394
18082TIP3   OH275660   6.390   5.229  14.627 -0.6155  0.3151 -0.5386
18082TIP3    H175661   6.339   5.179  14.691 -1.3952 -0.1184 -1.4871
18082TIP3    H275662   6.467   5.259  14.675 -0.0358 -1.9633  0.0055
18083TIP3   OH275663   4.139   4.238  14.465  0.2499 -0.5868 -0.1606
18083TIP3    H175664   4.172   4.292  14.393 -0.8236  0.4194  0.0758
18083TIP3    H275665   4.094   4.165  14.422 -0.9411  0.3484 -0.5377
18084TIP3   OH275666   6.410   1.881   3.354  0.3635 -0.0859  0.3001
18084TIP3    H175667   6.358   1.952   3.317  2.0005  0.2475 -1.4784
18084TIP3    H275668   6.397   1.807   3.295 -0.8723 -1.1216  1.8187
18085TIP3   OH275669   2.609   5.516   1.532 -0.6476 -0.4635  0.3442
18085TIP3    H175670   2.617   5.430   1.491 -0.5727 -1.5042  2.4599
18085TIP3    H275671   2.698   5.552   1.529 -0.8942  0.0432 -1.5420
18086TIP3   OH275672   4.174   5.864   3.419 -0.2169  0.3789  0.2285
18086TIP3    H175673   4.127   5.928   3.367 -0.4910  0.0638  0.0899
18086TIP3    H275674   4.225   5.814   3.356 -0.5509 -0.0047  0.2584
18087TIP3   OH275675   4.365   4.797  16.221  0.4973  0.0225 -0.1827
18087TIP3    H175676   4.361   4.807  16.316  0.6566  0.0146 -0.1756
18087TIP3    H275677   4.353   4.703  16.206 -0.2847  0.1193 -0.2161
18088TIP3   OH275678   2.865   4.973  17.038 -0.3454 -0.2453  1.1000
18088TIP3    H175679   2.854   4.935  16.951  0.2445  1.6700  0.1875
18088TIP3    H275680   2.951   4.943  17.067  0.1531  0.4846  0.3542
18089TIP3   OH275681   5.029   2.362   1.062  0.3424 -0.4973  0.3374
18089TIP3    H175682   5.080   2.384   0.985 -0.4551 -1.5338 -0.5068
18089TIP3    H275683   5.053   2.271   1.081  0.8400 -0.1194  1.5534
18090TIP3   OH275684   2.324   4.896   2.299  0.5602  0.3971  0.3577
18090TIP3    H175685   2.264   4.929   2.233  0.9116 -1.6915 -1.0306
18090TIP3    H275686   2.390   4.965   2.309  1.4203  0.0514 -2.6602
18091TIP3   OH275687   2.945   0.058   0.934  0.3226  0.3396 -0.0472
18091TIP3    H175688   3.001  -0.009   0.973  0.9176  1.3930  0.9191
18091TIP3    H275689   2.906   0.014   0.859 -0.0450 -1.4142  1.1112
18092TIP3   OH275690   4.768   4.769   1.040 -0.6194 -0.2874  0.4711
18092TIP3    H175691   4.845   4.763   0.982 -0.0350 -1.0762  1.3129
18092TIP3    H275692   4.779   4.696   1.101 -0.9857  0.8098  1.8666
18093TIP3   OH275693   2.739   3.321   6.733 -0.2304 -0.3524 -0.2151
18093TIP3    H175694   2.809   3.259   6.712  0.8881  0.3360  1.4418
18093TIP3    H275695   2.666   3.294   6.676  0.7833 -2.1503 -0.7071
18094TIP3   OH275696   6.271   5.313  12.098 -0.1496  0.0764 -0.7244
18094TIP3    H175697   6.305   5.266  12.174  0.1072 -1.0915 -1.5577
18094TIP3    H275698   6.344   5.368  12.069 -0.2767  0.5907 -0.0859
18095TIP3   OH275699   0.753   0.341  15.795 -0.2485  0.0574 -0.4907
18095TIP3    H175700   0.786   0.428  15.772  0.6372 -0.6505 -1.9917
18095TIP3    H275701   0.695   0.356  15.869 -1.0148  2.0805 -1.4654
18096TIP3   OH275702   5.519   5.617  13.820 -0.5567 -0.0566 -0.4928
18096TIP3    H175703   5.534   5.528  13.787  0.3483 -0.9752  2.2888
18096TIP3    H275704   5.594   5.667  13.787 -0.5297 -0.5632 -1.2109
18097TIP3   OH275705   6.009   6.492  15.210  0.6427 -0.1564  0.3523
18097TIP3    H175706   5.986   6.510  15.301 -1.8829 -0.4685 -0.1648
18097TIP3    H275707   6.075   6.423  15.215  0.5392 -0.1593  1.9515
18098TIP3   OH275708   5.198   0.363   5.532  0.1650  0.3250  0.4209
18098TIP3    H175709   5.285   0.403   5.533 -0.8076  2.4573  0.8710
18098TIP3    H275710   5.181   0.339   5.623  0.6939 -1.0749  0.1726
18099TIP3   OH275711   5.029   4.989   5.801  0.1703 -0.0158  0.3682
18099TIP3    H175712   5.067   4.912   5.760 -1.0941 -1.0994  1.2062
18099TIP3    H275713   4.937   4.967   5.814 -0.1871  1.5911  0.7187
18100TIP3   OH275714   4.175   0.431   5.970 -0.0961 -0.2856  0.4663
18100TIP3    H175715   4.171   0.519   6.009  1.0113 -0.1790  0.3788
18100TIP3    H275716   4.206   0.375   6.041  0.4765 -0.3610  0.1614
18101TIP3   OH275717   1.359   6.463   5.118  0.1988 -0.3367  0.3651
18101TIP3    H175718   1.423   6.400   5.152 -1.0501 -0.6570  2.1596
18101TIP3    H275719   1.409   6.515   5.055  2.4112 -0.1424  2.1992
18102TIP3   OH275720   5.672   2.811  12.960 -0.0050  0.0204  0.3145
18102TIP3    H175721   5.745   2.812  13.022  0.0068  0.5328  0.2968
18102TIP3    H275722   5.627   2.728  12.977  1.4838 -1.0352 -0.7423
18103TIP3   OH275723   2.661   5.881   5.145 -0.4986  0.0149 -0.3663
18103TIP3    H175724   2.696   5.970   5.152 -1.9259  0.5633 -0.0851
18103TIP3    H275725   2.738   5.826   5.132  0.4835  1.1850  0.3998
18104TIP3   OH275726   3.201   6.634   4.373 -0.6277  0.3295 -0.3070
18104TIP3    H175727   3.264   6.572   4.411 -0.0374  0.4593 -1.0559
18104TIP3    H275728   3.250   6.679   4.304 -0.9884  1.8086  0.3825
18105TIP3   OH275729   3.302   6.679  16.430 -0.2645 -0.1558  0.1232
18105TIP3    H175730   3.305   6.616  16.502 -0.8288 -0.4298 -0.0958
18105TIP3    H275731   3.213   6.674  16.396 -0.3272  0.7937  0.1283
18106TIP3   OH275732   6.723   5.068   4.911 -0.4019  0.7409 -0.5777
18106TIP3    H175733   6.721   5.152   4.865  0.3306  0.2899 -1.4558
18106TIP3    H275734   6.680   5.085   4.995 -0.9274  1.8049 -1.0529
18107TIP3   OH275735   5.523   4.742   4.816 -0.1883  0.0024  0.0712
18107TIP3    H175736   5.599   4.755   4.874 -0.8280  2.3654  0.4409
18107TIP3    H275737   5.545   4.791   4.737 -0.9827  0.0304 -0.1331
18108TIP3   OH275738   6.662   1.460   3.193  0.2570  0.3830 -0.8002
18108TIP3    H175739   6.737   1.403   3.211  0.2869  0.2075 -1.4680
18108TIP3    H275740   6.681   1.540   3.241  0.9918  0.4324 -1.1745
18109TIP3   OH275741   4.287   6.657   3.486 -0.5261 -0.0119 -0.5505
18109TIP3    H175742   4.303   6.637   3.578 -2.9766  2.4217  0.4686
18109TIP3    H275743   4.317   6.747   3.476  1.2576 -0.7846 -2.5965
18110TIP3   OH275744   2.529   3.236   6.566 -0.3103 -0.2242 -0.3558
18110TIP3    H175745   2.504   3.326   6.545  0.4911  0.2682  0.7886
18110TIP3    H275746   2.459   3.204   6.624  0.0805  0.1032  0.2999
18111TIP3   OH275747   0.874   3.859  12.276  0.1874 -0.2594 -0.2511
18111TIP3    H175748   0.960   3.816  12.280  0.8045  0.6521 -2.8044
18111TIP3    H275749   0.837   3.829  12.193 -1.3804  0.4812  0.1722
18112TIP3   OH275750   0.424   0.896  16.678  0.1253 -0.1813 -0.4661
18112TIP3    H175751   0.332   0.897  16.704 -0.3880  0.3100 -2.1949
18112TIP3    H275752   0.466   0.961  16.735 -0.5849 -0.4423  0.3656
18113TIP3   OH275753   6.015   4.210  11.733  0.7034  0.0807  0.0496
18113TIP3    H175754   5.943   4.163  11.776  1.9720 -1.3050  0.7099
18113TIP3    H275755   5.972   4.262  11.665 -1.0024 -0.1257  0.9232
18114TIP3   OH275756   5.109   2.568  14.213  0.4217 -0.0074 -0.6112
18114TIP3    H175757   5.121   2.474  14.201  1.2501 -0.0271  0.3034
18114TIP3    H275758   5.196   2.601  14.237 -0.0318  0.8527 -0.1021
18115TIP3   OH275759   1.838   1.358   5.642 -0.0818 -0.1338 -0.2517
18115TIP3    H175760   1.873   1.369   5.553 -0.0159 -0.7975 -0.3096
18115TIP3    H275761   1.812   1.446   5.668 -0.1058  0.0650 -0.9328
18116TIP3   OH275762   0.643   4.657  12.403 -0.1009  0.7682 -0.5867
18116TIP3    H175763   0.734   4.652  12.433 -0.1962  1.3749 -0.1938
18116TIP3    H275764   0.643   4.727  12.338 -0.0110 -0.1630 -1.6029
18117TIP3   OH275765   0.094   6.330  13.949 -0.3290 -0.2107  0.2802
18117TIP3    H175766   0.152   6.304  14.021  1.1544 -0.4424 -0.9801
18117TIP3    H275767   0.141   6.305  13.870 -1.6144  0.7424 -0.8057
18118TIP3   OH275768   4.720   6.764  15.279 -0.2172  0.4925 -0.1378
18118TIP3    H175769   4.774   6.687  15.297 -0.7262  0.0935 -0.3096
18118TIP3    H275770   4.778   6.822  15.230 -0.0299 -0.0658 -0.5936
18119TIP3   OH275771   0.024   5.927  12.227 -0.0839 -0.1654 -0.8868
18119TIP3    H175772  -0.026   5.889  12.299  0.4503 -0.6502 -0.7736
18119TIP3    H275773  -0.032   5.914  12.150  1.4051 -3.9809 -1.4204
18120TIP3   OH275774   6.581   4.436   0.324  0.0118 -0.5312  0.0352
18120TIP3    H175775   6.561   4.528   0.340 -0.6218 -0.9346  1.6117
18120TIP3    H275776   6.497   4.396   0.305  0.2017 -0.9049 -0.0166
18121TIP3   OH275777   1.350   6.465  13.105 -0.2446 -0.2915  0.9305
18121TIP3    H175778   1.274   6.519  13.126 -0.4832 -0.2014 -0.1316
18121TIP3    H275779   1.424   6.509  13.148 -0.3743  1.1097 -0.2293
18122TIP3   OH275780   0.990   5.719   3.980 -0.2605 -0.1456  0.1658
18122TIP3    H175781   1.040   5.666   3.917 -1.1037 -1.2946  0.4331
18122TIP3    H275782   1.049   5.790   4.005  1.8700 -2.3605  1.7012
18123TIP3   OH275783   5.863   6.367  15.898 -0.1278  0.1281  0.0721
18123TIP3    H175784   5.806   6.441  15.879 -1.0779 -0.8005 -0.7486
18123TIP3    H275785   5.933   6.372  15.833 -0.7119 -0.2291 -0.5945
18124TIP3   OH275786   2.256   0.488   0.352  0.2742  0.1327 -0.6431
18124TIP3    H175787   2.350   0.469   0.350  0.3216  0.1746  0.6770
18124TIP3    H275788   2.225   0.463   0.265  1.4466 -0.1972 -0.9816
18125TIP3   OH275789   6.497   4.980   3.169 -0.4781  1.1554  0.3200
18125TIP3    H175790   6.401   4.981   3.171 -0.6500 -2.9506 -1.9633
18125TIP3    H275791   6.520   5.037   3.095 -1.1334  2.1102  0.8414
18126TIP3   OH275792   2.225   0.636  12.095 -0.2443  0.1019 -0.5601
18126TIP3    H175793   2.189   0.652  12.182  1.1164 -0.4047  0.1210
18126TIP3    H275794   2.290   0.705  12.082 -0.3482  0.1022 -1.1205
18127TIP3   OH275795   6.165   4.826   4.801  0.2336  0.3007  0.3650
18127TIP3    H175796   6.173   4.816   4.706  1.2296 -2.5236  0.7010
18127TIP3    H275797   6.199   4.914   4.819  1.8381  0.1298 -1.6803
18128TIP3   OH275798   2.158   6.112  16.514 -0.2495 -0.2286  0.8739
18128TIP3    H175799   2.159   6.152  16.601  1.5105  1.0469  0.3024
18128TIP3    H275800   2.234   6.053  16.514  0.6775  0.9313 -0.2838
18129TIP3   OH275801   5.092   2.379  17.238  0.4747 -0.0015  0.6141
18129TIP3    H175802   5.015   2.421  17.276 -0.2121  0.0156 -0.7369
18129TIP3    H275803   5.115   2.310  17.300  0.7624  1.4686  2.1561
18130TIP3   OH275804   0.467   5.822   4.992 -0.5507  0.3433  0.5176
18130TIP3    H175805   0.496   5.797   5.080 -0.9544 -0.5342  0.4002
18130TIP3    H275806   0.495   5.913   4.983 -0.9875  0.6129  1.7644
18131TIP3   OH275807   3.136   6.767  17.090  0.4079 -0.3979  0.1292
18131TIP3    H175808   3.135   6.762  17.186 -0.3430  1.2956  0.2232
18131TIP3    H275809   3.085   6.845  17.069  0.2963 -0.9278 -1.6744
18132TIP3   OH275810   6.234   6.268  11.872  0.0189 -0.3350 -0.0659
18132TIP3    H175811   6.254   6.279  11.779  1.3587  1.9090  0.4275
18132TIP3    H275812   6.171   6.337  11.891 -0.7807 -1.2247  0.5450
18133TIP3   OH275813   2.250   0.144   5.690  0.0062  0.0486  0.1302
18133TIP3    H175814   2.343   0.130   5.672 -0.3309 -0.5367 -1.2717
18133TIP3    H275815   2.245   0.232   5.727  1.0478  0.3205 -0.3671
18134TIP3   OH275816   6.112   0.873   1.072  0.2363 -0.3896 -0.3355
18134TIP3    H175817   6.143   0.927   1.144 -0.9506  0.4728 -0.4736
18134TIP3    H275818   6.121   0.783   1.105  0.4282 -0.0385  0.5933
18135TIP3   OH275819   5.631   3.541  17.140  0.5156 -0.0360  0.5697
18135TIP3    H175820   5.639   3.582  17.054 -1.2743 -0.3066  0.2475
18135TIP3    H275821   5.560   3.478  17.129 -0.3963  0.6330  2.5275
18136TIP3   OH275822   6.224   1.595   6.680 -0.2873 -0.4469 -0.5188
18136TIP3    H175823   6.259   1.578   6.593 -2.8397  0.3880 -1.7653
18136TIP3    H275824   6.232   1.690   6.691  1.6509 -0.7486  0.9183
18137TIP3   OH275825   3.765   2.465  15.910  0.2785  0.4798 -0.3305
18137TIP3    H175826   3.831   2.489  15.846  1.5272 -1.9077 -0.0041
18137TIP3    H275827   3.715   2.394  15.868 -0.0622  0.1493  0.6153
18138TIP3   OH275828   2.178   4.932   4.137  0.6724 -0.2376  0.0429
18138TIP3    H175829   2.179   5.004   4.074  0.6938 -1.2977 -1.1878
18138TIP3    H275830   2.158   4.855   4.084 -0.1480 -1.0229  1.4661
18139TIP3   OH275831   1.149   5.748   1.246 -0.0423  0.2951 -0.0274
18139TIP3    H175832   1.232   5.707   1.269  0.9557  0.6276 -2.8626
18139TIP3    H275833   1.086   5.676   1.243  1.5376 -1.0497 -4.2516
18140TIP3   OH275834   3.809   3.221  11.825  0.0935 -0.0670 -0.2626
18140TIP3    H175835   3.850   3.134  11.824  0.8685  0.2867 -3.2986
18140TIP3    H275836   3.755   3.221  11.904  0.6524 -3.0553  0.1717
18141TIP3   OH275837   1.944   6.584   0.895 -0.1566 -0.2736 -0.2979
18141TIP3    H175838   2.008   6.605   0.963 -0.8824 -1.8503  0.8966
18141TIP3    H275839   1.940   6.664   0.842  1.7402  0.3479  0.4306
18142TIP3   OH275840   1.687   4.170  14.291  0.3159  0.1449 -0.0992
18142TIP3    H175841   1.761   4.161  14.352 -0.7490 -0.3093  1.1537
18142TIP3    H275842   1.640   4.247  14.322 -0.4732 -0.3379 -0.1053
18143TIP3   OH275843   2.518   5.691   6.010 -0.2609 -0.2413  0.2425
18143TIP3    H175844   2.574   5.755   5.966  0.1877  0.7574  2.2464
18143TIP3    H275845   2.459   5.660   5.941  0.3314  1.4032 -1.0283
18144TIP3   OH275846   5.818   2.357  15.134  0.6989 -0.4760 -0.5727
18144TIP3    H175847   5.749   2.417  15.104  2.1542  0.9971 -1.0040
18144TIP3    H275848   5.802   2.347  15.227  1.8214  2.4610 -0.0054
18145TIP3   OH275849   6.128   6.202   4.888  0.4867  0.0082  0.4401
18145TIP3    H175850   6.097   6.166   4.971  0.1003  1.3511  0.8909
18145TIP3    H275851   6.099   6.293   4.889 -2.7165 -0.8391 -2.7433
18146TIP3   OH275852   5.282   3.365   5.452  0.7398 -0.6594  0.4886
18146TIP3    H175853   5.312   3.346   5.363 -0.1878  0.1153  0.0042
18146TIP3    H275854   5.242   3.451   5.445  1.0749 -0.3990  1.7619
18147TIP3   OH275855   1.217   6.570  11.625  0.4093  0.1504 -0.3223
18147TIP3    H175856   1.224   6.512  11.549  0.7602  0.2370 -0.3597
18147TIP3    H275857   1.241   6.657  11.591  1.7867 -0.0346  0.1637
18148TIP3   OH275858   3.262   1.584  11.889  0.2653  0.0902 -0.2050
18148TIP3    H175859   3.345   1.548  11.857 -0.6155 -0.0711 -2.3847
18148TIP3    H275860   3.251   1.666  11.842 -0.3984  0.5458  0.7233
18149TIP3   OH275861   0.109   2.638   2.902 -0.5618  0.0906  0.3280
18149TIP3    H175862   0.157   2.574   2.954  0.5781  0.8431  0.2390
18149TIP3    H275863   0.126   2.722   2.946 -0.4646  0.5826 -0.6250
18150TIP3   OH275864   0.889   3.009   0.425  0.7118  0.4664 -0.4289
18150TIP3    H175865   0.973   2.980   0.460  0.3100  1.5385  1.5501
18150TIP3    H275866   0.838   3.033   0.503 -0.6139  1.9494 -1.7116
18151TIP3   OH275867   3.406   4.308  14.648 -0.0754  0.7861 -0.1252
18151TIP3    H175868   3.449   4.392  14.636  1.1856  0.5139  2.1865
18151TIP3    H275869   3.473   4.243  14.628 -0.2723  0.3535  0.5875
18152TIP3   OH275870   6.342   4.641   0.093  0.5688 -0.0153  0.2965
18152TIP3    H175871   6.388   4.714   0.134  0.1281 -0.9257  2.4399
18152TIP3    H275872   6.280   4.610   0.159  0.3878 -2.0035 -0.7504
18153TIP3   OH275873   2.183   5.171   5.664 -0.2005 -0.2417 -0.0580
18153TIP3    H175874   2.124   5.235   5.704  1.4642  0.5608  1.1850
18153TIP3    H275875   2.270   5.204   5.684  0.6734 -1.9270 -1.0330
18154TIP3   OH275876   6.259   3.089   3.996  0.7894  0.1407 -1.0296
18154TIP3    H175877   6.334   3.123   4.044  1.6117 -2.5481 -0.3544
18154TIP3    H275878   6.286   3.092   3.904  1.1167  0.6351 -0.9190
18155TIP3   OH275879   2.536   5.831  16.754  1.0651  0.3232  0.7404
18155TIP3    H175880   2.518   5.779  16.676  4.6486  0.6467 -0.4255
18155TIP3    H275881   2.458   5.821  16.809  0.8993 -4.8782 -0.1699
18156TIP3   OH275882   4.536   1.132   2.248  0.3721  0.6071  0.1255
18156TIP3    H175883   4.453   1.084   2.249  0.9461 -0.3950  0.0976
18156TIP3    H275884   4.536   1.179   2.165  0.6960 -0.9223 -0.7503
18157TIP3   OH275885   4.404   4.682  16.490  0.6037  0.2862 -0.5202
18157TIP3    H175886   4.477   4.621  16.494  0.9760  0.8511  1.8655
18157TIP3    H275887   4.431   4.757  16.543 -1.3007  0.9293 -0.3982
18158TIP3   OH275888   1.386   5.539   5.369 -0.4875 -0.5755 -0.1786
18158TIP3    H175889   1.400   5.553   5.275 -0.2781 -1.4374 -0.2786
18158TIP3    H275890   1.473   5.545   5.407 -0.5970 -0.0235 -0.0037
18159TIP3   OH275891   4.632   2.733  11.643  0.3835 -0.1878 -0.5654
18159TIP3    H175892   4.540   2.717  11.661  0.8969 -0.4434  2.0958
18159TIP3    H275893   4.641   2.722  11.549 -2.0991 -1.2003 -0.7119
18160TIP3   OH275894   3.005   2.319   0.485  0.7084 -0.7335  0.7974
18160TIP3    H175895   2.977   2.271   0.407 -2.3063  1.8094  0.2294
18160TIP3    H275896   3.075   2.377   0.455  0.3197 -0.5576  0.2431
18161TIP3   OH275897   4.596   4.106   6.473  0.0283  0.3456  0.5307
18161TIP3    H175898   4.547   4.187   6.485 -0.4388  0.2334 -0.5613
18161TIP3    H275899   4.615   4.103   6.379  1.1610 -0.1634  0.7767
18162TIP3   OH275900   1.404   2.545  15.084  0.0300  0.4419  0.3334
18162TIP3    H175901   1.439   2.634  15.084  0.8145  0.1735  2.4634
18162TIP3    H275902   1.335   2.546  15.150 -1.4861  0.0253 -1.2267
18163TIP3   OH275903   3.897   4.431   5.378 -0.1400  0.3378  0.0918
18163TIP3    H175904   3.884   4.508   5.322 -0.9136  1.0149  1.1795
18163TIP3    H275905   3.819   4.429   5.434 -1.1267 -2.4096 -1.2816
18164TIP3   OH275906   5.795   2.028  12.013 -0.7275 -0.4210  0.0904
18164TIP3    H175907   5.734   2.092  12.050 -1.2383 -0.1855 -1.1046
18164TIP3    H275908   5.847   1.997  12.087 -0.5722  1.2700  0.6961
18165TIP3   OH275909   0.845   2.004   6.029  0.2718  0.4182 -0.1139
18165TIP3    H175910   0.813   1.977   5.943  2.6355 -0.2431 -0.8197
18165TIP3    H275911   0.870   1.922   6.072  0.3606  0.8634  0.6917
18166TIP3   OH275912   5.581   0.874  16.505 -0.5482 -0.1113 -0.1894
18166TIP3    H175913   5.555   0.858  16.596  1.8649  1.4239  0.8201
18166TIP3    H275914   5.639   0.800  16.484 -1.9869 -1.0575 -0.8704
18167TIP3   OH275915   1.782   5.575  14.104  0.1396 -0.1931  0.1342
18167TIP3    H175916   1.721   5.538  14.040  2.4262 -1.0443 -1.6126
18167TIP3    H275917   1.745   5.552  14.189 -0.7540 -2.7211 -0.9095
18168TIP3   OH275918   2.906   2.605   3.001 -0.2249  0.3167  0.0288
18168TIP3    H175919   2.926   2.512   3.009 -1.2726  0.0416 -0.4295
18168TIP3    H275920   2.840   2.621   3.069 -1.0047  0.4238 -0.7383
18169TIP3   OH275921   6.587   5.984   2.277 -0.7585  0.1912  0.1851
18169TIP3    H175922   6.642   5.906   2.278 -0.0926  0.6456 -0.7101
18169TIP3    H275923   6.648   6.057   2.284 -1.2009  0.7132 -1.3047
18170TIP3   OH275924   1.204   2.392  14.080  0.3035 -0.4358  0.2109
18170TIP3    H175925   1.252   2.312  14.058 -0.6702 -0.7387 -0.8674
18170TIP3    H275926   1.270   2.461  14.079  1.2591 -1.3032  1.7078
18171TIP3   OH275927   0.339   5.306  13.445  0.1783 -0.1327  0.1946
18171TIP3    H175928   0.286   5.310  13.525 -1.0011 -0.9585 -0.5281
18171TIP3    H275929   0.276   5.321  13.374  0.7617 -2.0272 -0.7379
18172TIP3   OH275930   1.958   5.785  15.359  0.3138 -0.1170  0.0791
18172TIP3    H175931   1.985   5.730  15.286 -0.5498 -1.8978  1.0607
18172TIP3    H275932   1.966   5.728  15.436 -2.5166  0.4625  0.8710
18173TIP3   OH275933   5.463   3.613   0.192 -0.4545 -0.5153 -0.0357
18173TIP3    H175934   5.440   3.659   0.111 -0.1804  0.8288  0.6413
18173TIP3    H275935   5.555   3.590   0.181  0.1837  1.5929  0.7951
18174TIP3   OH275936   3.905   5.525   2.345  0.0540  0.2375 -0.2570
18174TIP3    H175937   3.828   5.561   2.302  0.3638 -0.4311 -1.4042
18174TIP3    H275938   3.881   5.519   2.438 -0.5257  1.9553 -0.2887
18175TIP3   OH275939   5.432   5.460   1.006  0.1707  0.0542 -0.0066
18175TIP3    H175940   5.509   5.510   0.978 -1.5749  0.9595 -3.3704
18175TIP3    H275941   5.444   5.374   0.966  0.1306 -0.2858  0.7026
18176TIP3   OH275942   4.417   5.992  15.635 -0.2571 -0.3101  0.4566
18176TIP3    H175943   4.450   5.947  15.557 -0.9570  0.2734 -0.1824
18176TIP3    H275944   4.384   5.922  15.692 -1.7570 -0.5807 -0.7264
18177TIP3   OH275945   3.124   5.814  10.597  0.2267  0.1792 -0.0452
18177TIP3    H175946   3.072   5.885  10.634 -0.2567  0.8280 -1.9566
18177TIP3    H275947   3.069   5.776  10.528  1.2860 -0.7388 -0.4068
18178TIP3   OH275948   2.530   5.392   7.234  0.6945  0.7040  0.4012
18178TIP3    H175949   2.606   5.352   7.193 -0.1318 -0.3819 -0.1076
18178TIP3    H275950   2.501   5.459   7.173  1.4139  1.3226  0.7334
18179TIP3   OH275951   4.717   0.434   0.043  0.0141  0.1264  0.2067
18179TIP3    H175952   4.679   0.354   0.006  0.7327  0.5220 -1.4487
18179TIP3    H275953   4.682   0.438   0.132 -2.6110 -0.3292 -0.7570
18180TIP3   OH275954   5.517   1.082   2.552 -0.1752  0.4991 -0.0219
18180TIP3    H175955   5.482   1.103   2.639  0.1117 -0.1169  0.2499
18180TIP3    H275956   5.612   1.081   2.565 -0.1767 -0.9224 -0.0246
18181TIP3   OH275957   5.015   6.471   3.717  0.3242 -0.3544  0.1435
18181TIP3    H175958   5.044   6.383   3.739  2.6540  0.7653  1.6798
18181TIP3    H275959   4.967   6.502   3.794  0.4483  0.1402  0.0281
18182TIP3   OH275960   4.389   6.588  11.644 -0.7147  0.0887 -0.2379
18182TIP3    H175961   4.308   6.537  11.651 -0.5534 -0.0521  0.6610
18182TIP3    H275962   4.388   6.646  11.720 -0.9856  1.5746 -1.3499
18183TIP3   OH275963   2.952   6.785  15.080 -0.3268  0.6722  0.3332
18183TIP3    H175964   2.981   6.769  15.170  0.1953  1.7039  0.3578
18183TIP3    H275965   2.920   6.875  15.082 -0.6297  0.5769 -0.4371
18184TIP3   OH275966   2.046   2.656   2.618  0.7001 -0.3333  0.4087
18184TIP3    H175967   1.970   2.605   2.644  0.8828  0.0005  1.6513
18184TIP3    H275968   2.072   2.702   2.698  1.4122  0.5659 -0.3284
18185TIP3   OH275969   3.646   1.375  14.690  0.6089  0.6002  0.3910
18185TIP3    H175970   3.731   1.415  14.674  0.6152  0.4265 -0.0178
18185TIP3    H275971   3.646   1.355  14.783  1.0030  0.6283  0.3987
18186TIP3   OH275972   4.777   5.767   0.100 -0.2343  0.4826  0.3981
18186TIP3    H175973   4.732   5.843   0.136  0.7512  0.3359  1.9816
18186TIP3    H275974   4.756   5.768   0.007 -0.8326  2.2644  0.5448
18187TIP3   OH275975   3.057   6.554   2.711 -0.3278  0.5330 -0.5123
18187TIP3    H175976   3.012   6.626   2.666 -0.9350 -0.5623 -1.6851
18187TIP3    H275977   3.002   6.478   2.694  0.3722 -0.2302  0.6298
18188TIP3   OH275978   6.210   3.905   4.220 -0.1328  0.2360 -0.5191
18188TIP3    H175979   6.219   3.993   4.183  1.3305  0.8058  1.1578
18188TIP3    H275980   6.238   3.913   4.311 -3.3432 -1.2177  0.7027
18189TIP3   OH275981   2.241   1.463   3.399 -0.0448  0.1040 -0.2150
18189TIP3    H175982   2.314   1.459   3.461 -0.4628  0.5837  0.3213
18189TIP3    H275983   2.229   1.373   3.369  0.7066  0.0080 -0.2384
18190TIP3   OH275984   3.351   2.957   5.596 -0.4867 -0.1646 -0.1153
18190TIP3    H175985   3.437   2.915   5.589 -0.5538 -0.2755 -0.2863
18190TIP3    H275986   3.333   2.960   5.690  0.1259  0.7338 -0.0228
18191TIP3   OH275987   1.807   3.990  13.126  0.0246 -0.5128 -0.4151
18191TIP3    H175988   1.720   3.951  13.117 -0.6284  1.0700 -1.1682
18191TIP3    H275989   1.864   3.917  13.149 -1.4897 -1.5856 -0.0019
18192TIP3   OH275990   3.976   3.955   5.531  0.1139 -0.3615 -0.5611
18192TIP3    H175991   4.064   3.990   5.543  0.9872 -2.2633 -1.3144
18192TIP3    H275992   3.918   4.021   5.570  1.8551  0.9187 -0.1133
18193TIP3   OH275993   5.138   2.660   1.976  0.3557 -0.4055 -0.0018
18193TIP3    H175994   5.053   2.649   1.933 -0.2381  0.0755  1.0196
18193TIP3    H275995   5.117   2.666   2.069  1.7304 -2.8260  0.5276
18194TIP3   OH275996   0.891   5.574   0.867  0.3464 -0.0531 -1.0362
18194TIP3    H175997   0.855   5.489   0.842 -0.2753  0.3872 -1.6589
18194TIP3    H275998   0.981   5.555   0.894  0.3681 -0.8379 -1.6490
18195TIP3   OH275999   0.246   6.430  13.519  0.6743 -0.1274 -0.3262
18195TIP3    H176000   0.216   6.423  13.428  3.7127 -0.1269 -1.3636
18195TIP3    H276001   0.214   6.515  13.548  1.0747  0.5770 -1.9220
18196TIP3   OH276002   3.975   0.180   0.351  0.4262  0.3387  0.3354
18196TIP3    H176003   3.934   0.125   0.417  2.0485  0.7964  1.7569
18196TIP3    H276004   4.040   0.124   0.308  2.3804  1.2166  2.0763
18197TIP3   OH276005   3.675   0.309  15.464 -0.4669  0.0026 -0.4780
18197TIP3    H176006   3.759   0.304  15.418  1.2807  1.5058  2.3691
18197TIP3    H276007   3.656   0.219  15.490  1.4948 -0.0782  0.8313
18198TIP3   OH276008   2.638   4.612  15.387  0.2695  0.2632  0.2214
18198TIP3    H176009   2.586   4.692  15.398  0.2903  0.3200 -0.0738
18198TIP3    H276010   2.635   4.569  15.472  2.1686  1.7297  1.0773
18199TIP3   OH276011   3.519   4.708  14.819  0.4690  0.2467 -0.3552
18199TIP3    H176012   3.437   4.708  14.771  0.8819  1.1191 -1.0826
18199TIP3    H276013   3.577   4.650  14.770  0.2584 -0.4624  0.2209
18200TIP3   OH276014   4.433   3.922   6.628 -0.1626 -0.1983  0.4743
18200TIP3    H176015   4.407   3.849   6.572 -0.2207  0.3733 -0.2532
18200TIP3    H276016   4.490   3.975   6.573 -0.4858  0.5482  0.8567
18201TIP3   OH276017   3.677   0.794  14.907  0.2201 -0.4672 -0.5222
18201TIP3    H176018   3.599   0.838  14.871  0.0554  0.4270  0.8823
18201TIP3    H276019   3.690   0.719  14.849 -0.9718  0.0424 -1.5023
18202TIP3   OH276020   2.662   5.816   5.800 -0.7123  0.1391 -0.2307
18202TIP3    H176021   2.742   5.866   5.820 -0.0600 -1.2429  0.7028
18202TIP3    H276022   2.623   5.862   5.727  0.5018  1.3452 -0.1425
18203TIP3   OH276023   4.526   4.932  13.592  0.1291 -0.3825  0.4898
18203TIP3    H176024   4.522   4.847  13.548  1.1910  1.2399 -2.8829
18203TIP3    H276025   4.446   4.977  13.563  0.7618  0.6413  0.3362
18204TIP3   OH276026   5.916   1.385   0.855  0.2181 -0.1782 -0.1562
18204TIP3    H176027   5.842   1.442   0.837  0.1957 -0.1100  0.1507
18204TIP3    H276028   5.916   1.322   0.782  0.1823  0.1461 -0.4395
18205TIP3   OH276029   2.716   0.025  14.679  0.0334  0.1501  0.5320
18205TIP3    H176030   2.758  -0.059  14.697 -1.0109  0.1531  3.2224
18205TIP3    H276031   2.624   0.002  14.664 -0.1838  0.7869  0.9069
18206TIP3   OH276032   2.609   0.350  14.837 -0.1354  0.2792  0.0428
18206TIP3    H176033   2.677   0.299  14.793 -0.7538 -0.8277  0.3657
18206TIP3    H276034   2.566   0.399  14.767 -0.4670 -0.7190 -0.4550
18207TIP3   OH276035   3.189   0.040  12.788  0.3952  0.2729 -0.0081
18207TIP3    H176036   3.103  -0.001  12.785  0.1753  0.7491 -0.3044
18207TIP3    H276037   3.247  -0.028  12.822 -0.0645 -0.1040  0.0272
18208TIP3   OH276038   2.891   5.623  16.005  0.0843 -0.2594  0.0545
18208TIP3    H176039   2.801   5.599  15.982 -0.0549 -1.4196  1.6869
18208TIP3    H276040   2.894   5.717  15.992 -0.5914 -0.5382 -2.5150
18209TIP3   OH276041   5.913   3.142   3.765 -0.4156 -0.2912  0.2632
18209TIP3    H176042   5.947   3.066   3.812  0.3888 -1.0298 -1.4614
18209TIP3    H276043   5.875   3.197   3.833 -1.0466 -2.2490  1.5531
18210TIP3   OH276044   1.970   2.327  12.152  0.4572  0.8811  0.1456
18210TIP3    H176045   1.894   2.351  12.205  0.6248  1.5317  0.0976
18210TIP3    H276046   2.035   2.395  12.171  1.0366  0.3115  0.2066
18211TIP3   OH276047   1.525   0.555   2.714 -0.1464  0.3123 -0.4033
18211TIP3    H176048   1.609   0.558   2.668 -1.5056  0.3885 -2.9742
18211TIP3    H276049   1.534   0.483   2.776  1.8976  0.4915 -0.4569
18212TIP3   OH276050   0.562   5.175   5.212 -0.1520 -0.1980 -0.7275
18212TIP3    H176051   0.519   5.166   5.127 -0.5076  0.5404 -0.6307
18212TIP3    H276052   0.582   5.268   5.219 -0.6524 -0.1623  0.2524
18213TIP3   OH276053   2.552   2.041   1.518 -0.1127 -0.1458  0.7605
18213TIP3    H176054   2.548   2.046   1.614 -0.6339 -2.2378  0.8723
18213TIP3    H276055   2.493   1.970   1.495  1.6223 -1.0812 -0.9661
18214TIP3   OH276056   4.374   6.126  16.465 -0.1942 -0.3384 -0.1214
18214TIP3    H176057   4.305   6.107  16.529  0.0715  0.6033  0.4562
18214TIP3    H276058   4.452   6.139  16.518  0.2107 -0.3840 -0.7035
18215TIP3   OH276059   0.869   1.749  12.287  0.2028 -0.4316 -0.5606
18215TIP3    H176060   0.835   1.813  12.349 -1.8122 -1.7294 -0.2977
18215TIP3    H276061   0.852   1.664  12.328 -0.7161 -1.2825 -2.6741
18216TIP3   OH276062   2.892   5.740   0.159  0.5178 -0.1000 -0.5798
18216TIP3    H176063   2.982   5.713   0.144  1.5094  2.4953  0.5482
18216TIP3    H276064   2.858   5.677   0.222  2.2309  0.1898  0.6543
18217TIP3   OH276065   3.636   4.026   1.085  0.0606 -0.1804  0.0358
18217TIP3    H176066   3.724   4.059   1.104  0.0146  1.8347 -2.8490
18217TIP3    H276067   3.584   4.105   1.067 -1.6274 -1.4825 -1.0132
18218TIP3   OH276068   2.268   2.602   5.520 -0.0494  0.3412 -0.3508
18218TIP3    H176069   2.182   2.623   5.484 -0.3708 -0.3228  0.0208
18218TIP3    H276070   2.326   2.601   5.444 -0.6528 -0.6900 -0.8115
18219TIP3   OH276071   4.805   0.833  11.902 -0.5087 -0.3414 -0.3287
18219TIP3    H176072   4.867   0.860  11.834  0.5379 -1.2732  0.2343
18219TIP3    H276073   4.836   0.747  11.929 -1.5305 -0.4249  0.6052
18220TIP3   OH276074   2.732   2.541  16.621 -0.3671 -0.4510 -0.1910
18220TIP3    H176075   2.736   2.459  16.671 -0.1529 -0.8461 -0.8352
18220TIP3    H276076   2.749   2.513  16.531  0.3543  0.3990 -0.3194
18221TIP3   OH276077   3.399   6.540   2.609 -0.2749  0.6107  0.5599
18221TIP3    H176078   3.489   6.573   2.609 -0.0921  0.1585  2.0718
18221TIP3    H276079   3.348   6.610   2.648 -0.5448  0.7647 -0.0646
18222TIP3   OH276080   4.804   3.744   0.291  0.3650  0.9342 -0.7271
18222TIP3    H176081   4.836   3.659   0.261 -0.0291  0.2480  0.7046
18222TIP3    H276082   4.709   3.739   0.280  0.3484  1.2213 -0.7166
18223TIP3   OH276083   0.309   5.746  10.651 -0.0320  0.0265  0.0815
18223TIP3    H176084   0.286   5.798  10.574  0.0476 -0.6107 -0.3852
18223TIP3    H276085   0.255   5.667  10.643  0.5621 -0.4042  0.2456
18224TIP3   OH276086   6.707   3.988   3.344 -0.0614 -0.0367  0.3206
18224TIP3    H176087   6.765   4.038   3.403 -1.2735  1.9529 -0.1316
18224TIP3    H276088   6.628   3.974   3.395 -0.7674  0.9008 -0.5044
18225TIP3   OH276089   3.532   0.478  12.282  0.2613 -0.4977  0.0077
18225TIP3    H176090   3.560   0.388  12.295 -1.6015 -1.3558 -1.6915
18225TIP3    H276091   3.557   0.498  12.192 -1.3260 -0.1006 -0.3653
18226TIP3   OH276092   3.557   6.092   3.921  0.0852 -0.5363  0.6435
18226TIP3    H176093   3.508   6.069   3.999 -2.2421 -2.1929 -1.2610
18226TIP3    H276094   3.549   6.016   3.863  1.3852  0.8215 -1.4113
18227TIP3   OH276095   6.399   3.055   0.357  0.4200 -0.2060  0.0905
18227TIP3    H176096   6.376   2.978   0.409 -2.5904 -0.3515 -1.3426
18227TIP3    H276097   6.374   3.129   0.413  0.6636 -0.3010  0.3285
18228TIP3   OH276098   1.701   5.225  13.755  0.2721  0.1839  0.5379
18228TIP3    H176099   1.753   5.150  13.784  0.0577 -0.0781  0.2520
18228TIP3    H276100   1.694   5.213  13.660 -0.6470 -0.0030  0.6246
18229TIP3   OH276101   0.982   4.265   6.305 -0.0602  0.6321 -0.7814
18229TIP3    H176102   1.060   4.211   6.288 -0.3789  0.0818 -0.5158
18229TIP3    H276103   0.937   4.269   6.221 -1.7035 -2.1889 -0.1073
18230TIP3   OH276104   4.310   0.534   1.071  1.0083 -0.2732  0.3434
18230TIP3    H176105   4.338   0.444   1.051  1.2025  0.1938 -1.5409
18230TIP3    H276106   4.373   0.590   1.025 -0.2458  0.8075 -0.0840
18231TIP3   OH276107   1.180   4.898  15.993 -0.1123 -0.5407 -0.3928
18231TIP3    H176108   1.163   4.954  15.917  0.1961 -0.2523 -0.2526
18231TIP3    H276109   1.275   4.881  15.990 -0.1428 -0.7458 -0.2235
18232TIP3   OH276110   6.584   3.431   5.765  0.1248  0.2776 -0.5297
18232TIP3    H176111   6.494   3.403   5.751  0.4548 -1.4189  0.6602
18232TIP3    H276112   6.591   3.513   5.715 -1.7135 -0.1811 -1.6049
18233TIP3   OH276113   2.244   2.539  14.837 -0.1586 -0.0170 -0.0064
18233TIP3    H176114   2.310   2.474  14.815  0.3746  0.2310  0.8262
18233TIP3    H276115   2.288   2.623  14.823 -0.3378  0.1489  0.4155
18234TIP3   OH276116   5.080   1.685   5.758  0.3456 -0.4318 -0.0926
18234TIP3    H176117   5.146   1.657   5.822 -0.7354  1.0076  1.6887
18234TIP3    H276118   4.997   1.658   5.797 -0.6284  3.7497  0.9631
18235TIP3   OH276119   2.184   2.974  16.473  0.7262  0.6762  0.3920
18235TIP3    H176120   2.089   2.968  16.472  0.8349 -2.2189 -2.6260
18235TIP3    H276121   2.205   3.037  16.403  1.0606  1.0817  0.8469
18236TIP3   OH276122   1.624   5.507   5.839  0.3550  0.2037 -0.2254
18236TIP3    H176123   1.540   5.553   5.831  0.8577  1.3715  0.8697
18236TIP3    H276124   1.688   5.577   5.854  1.8564 -0.4973 -3.1319
18237TIP3   OH276125   2.376   0.512   5.645  0.4631 -0.2263 -0.4532
18237TIP3    H176126   2.373   0.556   5.560  0.0349  0.5110 -0.0596
18237TIP3    H276127   2.457   0.543   5.685  1.2151 -1.4131 -1.0386
18238TIP3   OH276128   1.080   0.132  17.227 -0.0526  0.1137 -0.0474
18238TIP3    H176129   1.078   0.211  17.281  0.8977 -1.5932  2.5751
18238TIP3    H276130   0.996   0.090  17.243 -0.7598  0.7951 -1.8277
18239TIP3   OH276131   0.341   1.086   4.296  0.6585  0.4302  0.4437
18239TIP3    H176132   0.395   1.100   4.219  0.9763 -0.7904  0.4326
18239TIP3    H276133   0.251   1.094   4.264  0.8134  1.1116  0.1881
18240TIP3   OH276134   1.836   3.764  16.160 -0.0757 -0.0996 -0.5146
18240TIP3    H176135   1.914   3.742  16.108  1.0769 -1.0535  1.5789
18240TIP3    H276136   1.826   3.859  16.148  1.8328  0.1594 -0.2350
18241TIP3   OH276137   6.164   0.936   0.486 -0.3050 -0.2510  0.6095
18241TIP3    H176138   6.216   0.855   0.487  1.7745  1.0519  0.9674
18241TIP3    H276139   6.142   0.949   0.394 -0.5829 -1.1584  0.5362
18242TIP3   OH276140   1.384   1.303  14.849  0.6194  0.2700 -0.0473
18242TIP3    H176141   1.468   1.288  14.805 -0.0224 -1.3637 -0.7594
18242TIP3    H276142   1.319   1.269  14.787 -0.6231  2.1139  0.2213
18243TIP3   OH276143   1.638   5.488  13.003  0.2669  0.4976  0.1537
18243TIP3    H176144   1.549   5.491  12.967 -0.5775  0.3511  2.2065
18243TIP3    H276145   1.629   5.447  13.088  2.2669  0.8122  0.5497
18244TIP3   OH276146   3.944   5.193   0.220 -0.5778 -0.6807  0.0174
18244TIP3    H176147   3.889   5.195   0.141 -2.1985  0.2946  1.1329
18244TIP3    H276148   3.961   5.286   0.239  2.1041 -0.9697 -0.7173
18245TIP3   OH276149   2.449   0.883  13.607 -0.1091 -0.0393 -0.1581
18245TIP3    H176150   2.502   0.946  13.656  0.7532 -0.2766 -0.7696
18245TIP3    H276151   2.500   0.802  13.609  0.9307  0.4668 -3.1471
18246TIP3   OH276152   5.024   6.704   6.485  0.3973 -0.8291 -0.2540
18246TIP3    H176153   5.089   6.716   6.416 -0.0225 -0.4206 -0.5820
18246TIP3    H276154   4.940   6.713   6.441  0.1139 -1.2441  0.1884
18247TIP3   OH276155   4.061   1.173  10.744 -0.0627 -0.2302  0.1328
18247TIP3    H176156   4.040   1.118  10.820 -0.0681  2.4450  2.1145
18247TIP3    H276157   4.045   1.262  10.773  2.1017  1.0242 -2.2926
18248TIP3   OH276158   5.992   1.094   6.060 -0.0992  0.2167  0.0707
18248TIP3    H176159   6.064   1.045   6.020 -0.2659 -0.1087  0.1732
18248TIP3    H276160   5.914   1.067   6.012 -0.1807  0.4320  0.0821
18249TIP3   OH276161   4.321   2.512   3.829  0.5582 -0.7133 -0.2300
18249TIP3    H176162   4.334   2.602   3.861  1.7188 -0.8411 -0.3225
18249TIP3    H276163   4.251   2.520   3.764 -0.1943 -0.0733  0.6433
18250TIP3   OH276164   0.775   1.629  13.492 -0.4492 -0.0622  0.2221
18250TIP3    H176165   0.733   1.546  13.517  0.2590 -1.1652 -2.0730
18250TIP3    H276166   0.793   1.619  13.399  1.5583  1.8726  0.3703
18251TIP3   OH276167   4.373   2.954  17.107 -0.3829 -0.1903 -0.6086
18251TIP3    H176168   4.406   2.883  17.161  0.9063  1.4634  0.8212
18251TIP3    H276169   4.301   2.915  17.057  0.6340 -2.6008 -0.2251
18252TIP3   OH276170   4.209   4.801  13.543  0.1945 -0.5671 -0.4376
18252TIP3    H176171   4.300   4.794  13.516  0.4302 -3.1251  0.8850
18252TIP3    H276172   4.212   4.800  13.639 -1.1551  0.4185 -0.3690
18253TIP3   OH276173   0.188   5.805   3.274  0.1210  0.2081 -0.3765
18253TIP3    H176174   0.279   5.818   3.299  0.6076  0.3029 -2.1106
18253TIP3    H276175   0.187   5.820   3.179 -1.5429 -0.5488 -0.4973
18254TIP3   OH276176   6.735   1.207  11.397  0.3365 -0.0393  0.3447
18254TIP3    H176177   6.788   1.274  11.353  1.5412 -1.7106 -0.7991
18254TIP3    H276178   6.796   1.135  11.411 -0.9940 -0.9579  1.4519
18255TIP3   OH276179   0.842   0.513  11.783  0.1858 -0.6117 -0.1304
18255TIP3    H176180   0.935   0.523  11.805 -0.4369  1.3652  1.8075
18255TIP3    H276181   0.833   0.553  11.697  1.0209 -0.2278 -0.0462
18256TIP3   OH276182   1.394   1.955   1.797  0.1141  0.7584  0.6705
18256TIP3    H176183   1.436   2.019   1.740 -0.1806  1.2557  1.0129
18256TIP3    H276184   1.449   1.952   1.875  1.5103 -1.2104 -0.3381
18257TIP3   OH276185   1.917   1.024   2.418  0.4023  0.0114 -0.0539
18257TIP3    H176186   1.922   1.089   2.488  0.8736 -0.2213  0.1271
18257TIP3    H276187   1.834   1.044   2.373 -0.3178 -0.3864  1.0976
18258TIP3   OH276188   1.018   1.045  14.038 -0.4762  0.4458  0.1898
18258TIP3    H176189   1.087   1.046  13.972 -0.0606 -1.0695  0.5939
18258TIP3    H276190   1.054   1.093  14.112 -0.2626  0.5679  0.0064
18259TIP3   OH276191   2.324   0.523  17.122  0.1362 -0.3197  0.5279
18259TIP3    H176192   2.323   0.618  17.115  0.7050 -0.3699 -0.2815
18259TIP3    H276193   2.417   0.501  17.133  0.0893 -0.8362 -0.0777
18260TIP3   OH276194   4.829   6.141  11.558  0.0493 -0.0937 -0.0802
18260TIP3    H176195   4.856   6.224  11.597 -2.2569  0.7296 -0.1601
18260TIP3    H276196   4.803   6.164  11.469  2.0141 -1.3862 -1.0011
18261TIP3   OH276197   1.439   1.720  13.846  0.3136 -0.1403  0.0418
18261TIP3    H176198   1.415   1.727  13.753  0.1936 -0.8091  0.0217
18261TIP3    H276199   1.376   1.777  13.891  1.3866  1.4845 -0.4408
18262TIP3   OH276200   0.600   4.849   4.245  0.1399 -0.2068 -0.7024
18262TIP3    H176201   0.528   4.882   4.299 -1.3494 -2.1851 -1.4086
18262TIP3    H276202   0.605   4.910   4.171 -1.4332 -0.5991 -1.1328
18263TIP3   OH276203   2.720   0.943   5.030 -0.4897 -0.3074  0.8057
18263TIP3    H176204   2.747   0.861   5.072  0.9135 -0.2760 -0.0279
18263TIP3    H276205   2.625   0.944   5.040 -0.6020 -2.4073  0.1755
18264TIP3   OH276206   1.999   1.099   4.517  0.5134  0.0262 -0.7772
18264TIP3    H176207   2.021   1.023   4.463 -0.9046  0.7725 -2.4591
18264TIP3    H276208   1.978   1.168   4.454 -2.6692  0.5052  0.6817
18265TIP3   OH276209   1.143   0.899   0.394  0.6110  0.6827  0.8810
18265TIP3    H176210   1.087   0.881   0.470  0.3757  0.7157  0.7137
18265TIP3    H276211   1.114   0.984   0.362  0.1609  0.2971  0.2567
18266TIP3   OH276212   2.862   5.515  15.747 -0.0696 -0.4078  0.2024
18266TIP3    H176213   2.810   5.440  15.776 -0.6161 -0.1847 -0.1826
18266TIP3    H276214   2.893   5.556  15.827 -1.2054 -0.0487  0.4677
18267TIP3   OH276215   1.087   2.050  14.967 -0.1880 -0.2471 -0.4861
18267TIP3    H176216   1.068   1.971  14.915 -0.6212 -0.6320  0.2527
18267TIP3    H276217   1.181   2.043  14.986 -0.7327 -1.9863  1.8335
18268TIP3   OH276218   4.383   2.032   4.119 -0.1415  0.0011  0.0090
18268TIP3    H176219   4.291   2.008   4.130 -0.1323 -0.2700 -0.4567
18268TIP3    H276220   4.402   2.092   4.190 -0.8320  0.4917 -0.2173
18269TIP3   OH276221   4.612   2.328   2.731  0.1493  0.0955  0.1695
18269TIP3    H176222   4.625   2.423   2.731  1.0417 -0.0154 -0.0289
18269TIP3    H276223   4.668   2.297   2.659  1.5668 -0.7920  1.6198
18270TIP3   OH276224   3.233   5.733  12.731 -0.4235  0.0067 -0.2899
18270TIP3    H176225   3.289   5.807  12.709 -0.0850 -0.4774 -1.0735
18270TIP3    H276226   3.144   5.766  12.720 -0.2707  0.2182 -0.9184
18271TIP3   OH276227   5.254   6.574  17.233 -0.3801 -0.4557 -0.0272
18271TIP3    H176228   5.324   6.639  17.230 -0.0440 -0.8098  0.0068
18271TIP3    H276229   5.287   6.507  17.294 -1.5322  0.2843  1.4579
18272TIP3   OH276230   0.134   0.972  14.233  0.5220 -0.1521 -0.1090
18272TIP3    H176231   0.068   1.029  14.192 -0.1503 -0.5176  0.4452
18272TIP3    H276232   0.217   0.998  14.193  0.0235  0.2323 -0.9133
18273TIP3   OH276233   6.063   2.789  16.590 -0.4159 -0.3020 -0.4500
18273TIP3    H176234   6.127   2.857  16.566  0.2213 -0.2528  1.3565
18273TIP3    H276235   6.044   2.805  16.682 -1.4168 -1.6550 -0.4109
18274TIP3   OH276236   3.928   6.558   0.264  0.1412 -0.1212 -0.4882
18274TIP3    H176237   3.891   6.541   0.351  1.7007 -0.0454  0.1965
18274TIP3    H276238   4.014   6.518   0.267  1.3118  2.2686 -1.0546
18275TIP3   OH276239   1.376   4.518   1.542  0.3988  0.1836 -0.1574
18275TIP3    H176240   1.395   4.525   1.449 -1.3458  0.9149 -0.4888
18275TIP3    H276241   1.416   4.596   1.580 -3.3001  2.6743 -1.1150
18276TIP3   OH276242   3.908   3.335   4.662 -0.2651  0.3246 -0.3870
18276TIP3    H176243   3.842   3.366   4.600  1.1150 -1.0387 -2.5689
18276TIP3    H276244   3.894   3.240   4.667  1.0893  0.1213 -0.3528
18277TIP3   OH276245   1.290   0.424  13.211 -0.3219 -0.0688 -0.3758
18277TIP3    H176246   1.267   0.331  13.213  0.3392 -0.2314 -0.1963
18277TIP3    H276247   1.364   0.432  13.271 -1.7721  0.9818  1.2988
18278TIP3   OH276248   1.811   0.500  15.030  0.4065 -0.6255 -0.4748
18278TIP3    H176249   1.816   0.567  14.962  2.2193 -0.2309  0.0255
18278TIP3    H276250   1.806   0.549  15.112 -1.2891 -1.1062 -0.2663
18279TIP3   OH276251   0.910   3.684  12.013  0.4802  0.2711 -0.3145
18279TIP3    H176252   0.878   3.752  11.954 -0.4046  0.7482  0.6904
18279TIP3    H276253   0.972   3.634  11.961  0.3171  1.1770 -1.3999
18280TIP3   OH276254   1.876   4.559  11.456 -0.1437 -0.5461 -0.3415
18280TIP3    H176255   1.828   4.618  11.397  0.2510  1.6781  1.4789
18280TIP3    H276256   1.842   4.472  11.436 -1.9463  0.4969 -1.9650
18281TIP3   OH276257   4.258   4.223   1.022 -0.2975 -0.2701  0.3900
18281TIP3    H176258   4.243   4.241   1.115 -2.0282  0.2639  0.0195
18281TIP3    H276259   4.271   4.128   1.018  0.1287 -0.2445  1.2271
18282TIP3   OH276260   3.755   5.866  15.007  0.1153  0.7310 -0.3266
18282TIP3    H176261   3.723   5.953  14.984 -0.1679  0.7734  0.2097
18282TIP3    H276262   3.732   5.811  14.932 -1.0079  0.8122 -0.0611
18283TIP3   OH276263   1.804   5.102  16.683 -0.1991  0.4052 -0.0737
18283TIP3    H176264   1.891   5.064  16.677 -0.3921  0.2187 -1.8508
18283TIP3    H276265   1.795   5.127  16.775  1.8527  0.7440  0.0476
18284TIP3   OH276266   0.485   5.341  12.321  0.3473  0.4522  0.0173
18284TIP3    H176267   0.559   5.300  12.366 -0.6490 -0.2720  1.0515
18284TIP3    H276268   0.521   5.373  12.238  1.6020 -0.7306  0.0925
18285TIP3   OH276269   3.426   2.895   3.010  0.1742 -0.2154  0.1242
18285TIP3    H176270   3.387   2.863   2.929  1.7657 -0.3977 -0.5706
18285TIP3    H276271   3.465   2.818   3.050 -3.0887 -0.7457  2.5570
18286TIP3   OH276272   4.691   1.426  14.434 -0.1269 -0.5307 -0.4831
18286TIP3    H176273   4.638   1.408  14.356 -1.0990 -3.3527  0.7445
18286TIP3    H276274   4.774   1.382  14.418  0.0039 -0.3529 -0.2975
18287TIP3   OH276275   3.903   6.067  11.434  0.3745  0.1331  0.1544
18287TIP3    H176276   3.989   6.026  11.435  0.4504  0.3095  0.7957
18287TIP3    H276277   3.916   6.150  11.388  0.3442 -0.2722 -0.6059
18288TIP3   OH276278   5.887   5.724   0.881  0.1585 -0.0092 -0.8066
18288TIP3    H176279   5.895   5.673   0.961  1.5317  1.7386  0.2087
18288TIP3    H276280   5.820   5.678   0.830 -2.1868 -0.0622  2.1603
18289TIP3   OH276281   1.609   6.767   4.020 -0.0707 -0.0756  0.1264
18289TIP3    H176282   1.568   6.699   4.073  0.0656 -0.6974 -0.5501
18289TIP3    H276283   1.667   6.813   4.081  0.7160 -1.3089  0.3481
18290TIP3   OH276284   1.838   0.835   5.299 -0.6360 -0.0799 -0.1718
18290TIP3    H176285   1.865   0.765   5.239 -0.1795 -0.9647  1.0335
18290TIP3    H276286   1.757   0.869   5.262 -0.5034 -0.7937 -1.1432
18291TIP3   OH276287   4.391   1.963  12.534 -0.1649 -0.0795 -0.0333
18291TIP3    H176288   4.310   1.923  12.503  0.0249 -0.4502 -0.0519
18291TIP3    H276289   4.460   1.900  12.512  0.3295  0.9155 -1.4210
18292TIP3   OH276290   3.566   5.251   1.135  0.2047  0.4080  0.4934
18292TIP3    H176291   3.511   5.325   1.160 -0.9640 -0.4662  0.5709
18292TIP3    H276292   3.581   5.263   1.041 -2.6252 -0.8936 -0.2046
18293TIP3   OH276293   0.406   5.266   2.357 -0.2989  0.0053  0.4070
18293TIP3    H176294   0.412   5.243   2.264  3.0626 -1.3328  0.8756
18293TIP3    H276295   0.323   5.229   2.386  1.1690 -4.5768 -0.8084
18294TIP3   OH276296   0.090   0.937  13.611  0.1047  0.5477  0.0734
18294TIP3    H176297   0.179   0.951  13.578  0.1334 -1.7491 -0.9064
18294TIP3    H276298   0.034   0.974  13.543  0.2606  1.3033  0.3385
18295TIP3   OH276299   1.322   0.521  12.051  0.2049  0.2228 -0.3925
18295TIP3    H176300   1.348   0.473  11.973  0.2188 -0.5681  0.0951
18295TIP3    H276301   1.309   0.454  12.118 -1.6218  0.7099 -0.2141
18296TIP3   OH276302   6.300   0.631  13.778 -0.2124  0.3879 -0.4605
18296TIP3    H176303   6.226   0.691  13.785  0.2499  0.7490  1.7841
18296TIP3    H276304   6.285   0.567  13.847  1.8302  0.7621  0.3437
18297TIP3   OH276305   0.899   1.513   5.601 -1.0499  0.2564 -0.1087
18297TIP3    H176306   0.843   1.445   5.565 -1.8920 -0.0200  1.6412
18297TIP3    H276307   0.849   1.547   5.676  0.3315  1.2542  0.3775
18298TIP3   OH276308   5.596   4.105  16.834  0.3440  0.4044  0.6349
18298TIP3    H176309   5.588   4.146  16.748  0.4009 -0.1161  0.3798
18298TIP3    H276310   5.627   4.017  16.816 -1.5436 -0.3592  1.0439
18299TIP3   OH276311   2.178   1.144   5.991 -0.2218 -0.7145 -0.0983
18299TIP3    H176312   2.191   1.055   5.958  0.5238 -0.8164  0.4733
18299TIP3    H276313   2.127   1.132   6.071 -0.4290 -0.6002 -0.2133
18300TIP3   OH276314   3.423   0.229   5.286 -0.3685 -0.4801  0.1899
18300TIP3    H176315   3.368   0.171   5.339 -0.0779 -0.1376  0.8800
18300TIP3    H276316   3.374   0.311   5.281 -0.1947 -0.3665  0.3107
18301TIP3   OH276317   3.488   1.890   5.984 -0.0922 -0.3557 -0.6369
18301TIP3    H176318   3.554   1.898   6.053  1.2302  0.3080 -1.9585
18301TIP3    H276319   3.487   1.797   5.962  3.3333  0.1611 -3.3743
18302TIP3   OH276320   2.418   2.291  14.036  0.0866  0.0097 -0.2300
18302TIP3    H176321   2.458   2.209  14.063  0.4477  0.0343 -0.6865
18302TIP3    H276322   2.448   2.304  13.946 -1.1866 -0.1277 -0.6857
18303TIP3   OH276323   5.796   4.500  15.114 -0.1349  0.4057  0.0551
18303TIP3    H176324   5.777   4.546  15.196 -1.7688 -1.0730  0.5351
18303TIP3    H276325   5.763   4.558  15.045 -1.6132  0.2818  0.6293
18304TIP3   OH276326   3.434   3.594   4.423  0.1059  0.4776 -0.6273
18304TIP3    H176327   3.478   3.585   4.507 -0.4573  3.2411  0.0439
18304TIP3    H276328   3.370   3.524   4.421  1.1982 -0.5751  0.5502
18305TIP3   OH276329   1.303   3.869  14.501  0.2205 -0.5296 -0.3596
18305TIP3    H176330   1.218   3.905  14.475 -0.2230  0.2983  2.0531
18305TIP3    H276331   1.367   3.918  14.449 -0.5856  1.5165  0.5055
18306TIP3   OH276332   6.227   0.727   0.808 -0.6134 -0.0549 -0.8225
18306TIP3    H176333   6.251   0.712   0.900 -1.5425  2.5314 -0.1316
18306TIP3    H276334   6.283   0.799   0.780  0.8293 -1.8919 -2.8221
18307TIP3   OH276335   6.117   3.335  12.280 -0.0432  0.0511 -0.2808
18307TIP3    H176336   6.203   3.309  12.314 -0.4099  1.3815  1.7368
18307TIP3    H276337   6.063   3.257  12.292  0.7965 -0.7071 -1.3160
18308TIP3   OH276338   1.985   3.808  11.109  0.6243 -0.0917  0.6383
18308TIP3    H176339   2.003   3.715  11.096  0.7822  0.0781 -0.3159
18308TIP3    H276340   2.052   3.854  11.059  0.8303  0.5454  1.4814
18309TIP3   OH276341   3.289   4.077  11.363  0.5714 -0.3340 -0.0776
18309TIP3    H176342   3.301   3.983  11.363  1.7164 -0.1961 -0.9338
18309TIP3    H276343   3.366   4.112  11.318 -1.1458  0.8406 -2.2137
18310TIP3   OH276344   4.770   6.024  15.563  0.4347  0.5686 -0.2791
18310TIP3    H176345   4.859   6.057  15.552  0.4054  0.1367 -1.9175
18310TIP3    H276346   4.755   6.028  15.657  1.6561  2.0071 -0.1196
18311TIP3   OH276347   3.382   0.693  10.576 -1.0031 -0.2158 -0.0382
18311TIP3    H176348   3.451   0.741  10.530 -1.6271 -0.9206 -1.7952
18311TIP3    H276349   3.306   0.699  10.517 -0.7543 -4.3511 -0.9332
18312TIP3   OH276350   0.524   6.251   0.766 -0.2259  0.3330  0.2436
18312TIP3    H176351   0.565   6.330   0.731 -0.1250  0.1414 -0.0764
18312TIP3    H276352   0.593   6.185   0.761 -0.3038  0.2321  0.5285
18313TIP3   OH276353   0.839   2.560  16.504  0.5270 -0.0479 -0.0450
18313TIP3    H176354   0.794   2.632  16.459 -0.6183 -1.8812 -1.9551
18313TIP3    H276355   0.799   2.557  16.591  0.9016  1.8851  0.2226
18314TIP3   OH276356   4.676   0.936   5.376  0.8915 -0.1935  0.2908
18314TIP3    H176357   4.646   0.868   5.317  0.5217 -1.0885  1.4785
18314TIP3    H276358   4.662   1.018   5.328 -0.7409 -0.7963 -0.3015
18315TIP3   OH276359   5.297   6.625   1.311 -0.2314 -0.2586 -0.0335
18315TIP3    H176360   5.234   6.671   1.366 -0.6937 -0.7703 -0.1242
18315TIP3    H276361   5.377   6.619   1.364 -0.4377 -0.0872  0.2894
18316TIP3   OH276362   6.107   5.197   0.160  0.1832  0.2367 -0.2972
18316TIP3    H176363   6.129   5.120   0.213 -1.2580 -1.1748 -1.7276
18316TIP3    H276364   6.142   5.178   0.074  0.5094  1.5376 -0.4590
18317TIP3   OH276365   2.437   3.629   2.461  0.9441  0.2573  0.1303
18317TIP3    H176366   2.448   3.686   2.537  0.6213 -0.8591  1.0275
18317TIP3    H276367   2.482   3.548   2.484 -0.5889 -0.7072 -0.1712
18318TIP3   OH276368   6.178   4.407   4.240  0.4764  0.7798  0.2252
18318TIP3    H176369   6.265   4.411   4.278 -0.5403 -0.3056  2.7804
18318TIP3    H276370   6.126   4.467   4.293 -0.3386  1.4115 -1.2663
18319TIP3   OH276371   1.990   1.300   5.387  0.4875  0.3499 -0.3813
18319TIP3    H176372   2.047   1.351   5.329 -0.1034  0.2966 -1.0084
18319TIP3    H276373   2.040   1.293   5.469  1.2250  0.6182 -0.8024
18320TIP3   OH276374   6.735   1.257  12.432 -0.2225  0.9034 -0.1074
18320TIP3    H176375   6.644   1.273  12.459 -1.0220  0.0840 -2.1955
18320TIP3    H276376   6.782   1.336  12.458 -1.1393  0.5873  2.6462
18321TIP3   OH276377   1.688   0.692  10.424 -0.6783  0.1049  1.6347
18321TIP3    H176378   1.701   0.786  10.412 -3.8900  0.7213  2.3591
18321TIP3    H276379   1.720   0.674  10.512 -0.8609  0.7127  1.8255
18322TIP3   OH276380   1.453   2.369  12.096 -0.2522 -0.1531 -0.6055
18322TIP3    H176381   1.415   2.377  12.183 -0.9071  0.2646 -0.9239
18322TIP3    H276382   1.378   2.361  12.037  0.1984 -1.1272 -1.0693
18323TIP3   OH276383   4.617   1.485   4.223  0.4430  0.3133 -0.3304
18323TIP3    H176384   4.533   1.505   4.265  0.3966 -0.0658 -0.2441
18323TIP3    H276385   4.670   1.446   4.292  0.9290  1.1906 -0.2099
18324TIP3   OH276386   2.140   0.653  12.364 -0.2205  0.1015 -0.2941
18324TIP3    H176387   2.045   0.669  12.368 -0.2000  0.3992 -0.8662
18324TIP3    H276388   2.154   0.576  12.419 -0.7886  0.0975 -0.1538
18325TIP3   OH276389   6.272   3.783   2.541  0.1021  0.1793  0.1335
18325TIP3    H176390   6.270   3.716   2.609  0.1130 -0.1922 -0.2285
18325TIP3    H276391   6.364   3.792   2.518  0.1124  0.3996  0.2605
18326TIP3   OH276392   1.465   3.399  16.419  0.5532 -0.6538  0.3354
18326TIP3    H176393   1.447   3.306  16.427  0.6335 -0.7013 -0.0321
18326TIP3    H276394   1.424   3.438  16.496 -1.4628 -0.7201 -0.6846
18327TIP3   OH276395   2.888   0.632  12.297  0.1320  0.6558 -0.6641
18327TIP3    H176396   2.960   0.681  12.258  0.5560  0.8855  0.3926
18327TIP3    H276397   2.927   0.589  12.374 -1.0714  1.5391  0.4510
18328TIP3   OH276398   5.683   3.641  14.422 -0.5472 -0.1170 -0.1466
18328TIP3    H176399   5.757   3.588  14.392 -0.9147 -0.4100 -0.5386
18328TIP3    H276400   5.674   3.710  14.357 -2.1009 -1.4481 -1.3767
18329TIP3   OH276401   1.232   6.644   1.898 -0.3506 -0.2983  0.4124
18329TIP3    H176402   1.325   6.621   1.889  0.1035  1.4393  0.5821
18329TIP3    H276403   1.189   6.594   1.829  0.6896 -1.1889  0.3785
18330TIP3   OH276404   3.619   3.035   3.240 -0.3599 -0.2955 -0.0040
18330TIP3    H176405   3.533   3.032   3.199 -0.0036  0.8908 -0.8528
18330TIP3    H276406   3.617   2.965   3.305 -1.3061 -1.5158 -1.3227
18331TIP3   OH276407   4.913   5.431   3.856  0.1323  0.3987 -0.8732
18331TIP3    H176408   4.999   5.409   3.820  0.1415 -0.9756 -0.0286
18331TIP3    H276409   4.864   5.349   3.855 -0.7775  0.9257 -0.2571
18332TIP3   OH276410   1.321   6.060  14.247 -0.3234  1.4835  0.9998
18332TIP3    H176411   1.261   6.110  14.192  0.2941  0.9315 -0.1962
18332TIP3    H276412   1.267   6.030  14.321 -1.5157  1.0408 -0.0314
18333TIP3   OH276413   4.377   3.626  14.587 -0.2121 -0.4622  0.0179
18333TIP3    H176414   4.403   3.608  14.497 -0.4337  0.2838 -0.1979
18333TIP3    H276415   4.401   3.546  14.635  1.2377 -0.3068 -0.4264
18334TIP3   OH276416   3.155   0.940   4.874 -0.1471 -0.4464 -0.0371
18334TIP3    H176417   3.141   0.935   4.968  0.0752 -1.9733 -0.0712
18334TIP3    H276418   3.219   1.009   4.863 -0.5668  0.1010  0.8864
18335TIP3   OH276419   1.167   1.341   1.077  0.0355 -0.0602 -0.2294
18335TIP3    H176420   1.086   1.296   1.097  1.5940 -2.3056  1.3049
18335TIP3    H276421   1.158   1.427   1.119 -0.6802 -1.1056  1.7880
18336TIP3   OH276422   4.457   6.731  14.336 -0.3013  0.2193 -0.2944
18336TIP3    H176423   4.530   6.738  14.397 -0.1222  0.3247 -0.5213
18336TIP3    H276424   4.382   6.767  14.384  0.0905  1.4062 -0.5583
18337TIP3   OH276425   1.675   1.581   2.024  0.4029  0.4373 -0.1808
18337TIP3    H176426   1.733   1.507   2.041 -1.1233 -0.2172  2.2887
18337TIP3    H276427   1.594   1.542   1.992 -0.5947  0.9467  1.6279
18338TIP3   OH276428   4.262   0.207   4.488 -0.1084 -0.1779 -0.1836
18338TIP3    H176429   4.197   0.198   4.558 -2.3382 -0.1499 -2.2046
18338TIP3    H276430   4.247   0.295   4.452  1.6217  0.1591 -0.1325
18339TIP3   OH276431   6.255   0.253  13.699  0.0001 -0.4484  0.1367
18339TIP3    H176432   6.229   0.345  13.686 -0.4853 -0.5983  0.0468
18339TIP3    H276433   6.235   0.236  13.791  2.4117  0.2809  0.8246
18340TIP3   OH276434   5.550   5.030   2.805 -0.6683 -0.6078 -0.0750
18340TIP3    H176435   5.508   5.112   2.829 -0.7587 -1.0324  1.2791
18340TIP3    H276436   5.496   4.995   2.735 -1.9450 -0.5918  0.8795
18341TIP3   OH276437   2.748   0.774  15.523 -0.0959 -0.4930 -0.1863
18341TIP3    H176438   2.702   0.749  15.604 -1.3814  0.1211 -0.7219
18341TIP3    H276439   2.749   0.693  15.471 -2.0462 -0.1077 -0.8639
18342TIP3   OH276440   3.115   6.336  11.391  0.4104 -1.0366 -0.2792
18342TIP3    H176441   3.125   6.251  11.434  0.5889 -0.6437  0.4606
18342TIP3    H276442   3.023   6.340  11.366 -0.2114 -0.3395  2.0506
18343TIP3   OH276443   2.281   4.476  12.491  0.2261  0.8528 -0.5111
18343TIP3    H176444   2.231   4.406  12.448  0.4552 -0.8521  1.8929
18343TIP3    H276445   2.373   4.452  12.478  0.2918 -0.4632  2.0712
18344TIP3   OH276446   5.967   2.715   4.541  0.6312 -0.1488 -0.4810
18344TIP3    H176447   6.025   2.790   4.558  0.2156 -0.1389  0.9155
18344TIP3    H276448   5.970   2.704   4.446  1.4167  1.0697 -0.6075
18345TIP3   OH276449   4.909   2.545   4.749  0.2638 -0.0184 -0.2956
18345TIP3    H176450   4.895   2.492   4.671 -2.8605  0.2295  0.0641
18345TIP3    H276451   4.872   2.494   4.821  1.5380  0.5311  0.7856
18346TIP3   OH276452   5.504   4.413  14.368  0.2862  0.0638 -0.8838
18346TIP3    H176453   5.563   4.438  14.439 -0.4407 -0.2630 -0.1543
18346TIP3    H276454   5.526   4.472  14.296 -0.1863  1.6329  0.2227
18347TIP3   OH276455   5.564   6.569   3.087 -0.5115 -0.0991 -0.2430
18347TIP3    H176456   5.517   6.626   3.148  0.1071 -0.4560  0.5889
18347TIP3    H276457   5.532   6.481   3.108 -0.0696 -0.2544 -0.2152
18348TIP3   OH276458   6.525   4.055  11.046  0.0346  0.1319  0.5379
18348TIP3    H176459   6.465   4.115  11.091 -0.2579 -0.0355  0.3725
18348TIP3    H276460   6.551   3.992  11.113  0.0775  0.2408  0.6259
18349TIP3   OH276461   3.148   5.925  12.511 -0.5008 -0.1892  0.8663
18349TIP3    H176462   3.175   5.872  12.436 -2.2470  1.0837 -0.7103
18349TIP3    H276463   3.089   5.869  12.561 -0.9662 -0.3224  0.1608
18350TIP3   OH276464   6.747   4.408   0.117  0.7718 -0.2885  0.0895
18350TIP3    H176465   6.681   4.385   0.053  1.0764  1.6373 -0.9670
18350TIP3    H276466   6.701   4.406   0.201 -0.2631 -0.3497 -0.4734
18351TIP3   OH276467   5.496   0.644   4.814 -0.0016 -0.1841  0.1316
18351TIP3    H176468   5.421   0.587   4.795 -0.6069  0.3301  0.9469
18351TIP3    H276469   5.487   0.666   4.907  2.1345 -1.5043  0.6831
18352TIP3   OH276470   4.299   3.523  14.330 -0.1236 -0.7291  0.2946
18352TIP3    H176471   4.333   3.438  14.303  0.3924  0.0385 -1.5557
18352TIP3    H276472   4.213   3.529  14.288  0.0488 -0.1363  0.0193
18353TIP3   OH276473   6.196   1.687   3.451  0.2755  0.1041 -0.5090
18353TIP3    H176474   6.219   1.777   3.426 -0.7918  0.1877 -1.2340
18353TIP3    H276475   6.160   1.695   3.539 -0.5180  0.5069 -0.8617
18354TIP3   OH276476   0.153   1.272   3.924 -0.1000  0.5819  0.2509
18354TIP3    H176477   0.074   1.219   3.913 -1.2924  2.5658 -1.0333
18354TIP3    H276478   0.126   1.342   3.984  0.9958  0.6534  0.6689
18355TIP3   OH276479   3.325   1.460  14.668  0.5247 -0.5868 -0.1805
18355TIP3    H176480   3.353   1.413  14.590  0.6006  0.2154 -0.6418
18355TIP3    H276481   3.365   1.412  14.741 -0.7696 -2.2176 -0.5225
18356TIP3   OH276482   1.038   4.004  15.441  0.7474  0.2439 -0.1397
18356TIP3    H176483   1.126   3.980  15.410 -0.1666 -0.4351 -2.2817
18356TIP3    H276484   0.996   3.920  15.461  1.1252  0.6449  2.4897
18357TIP3   OH276485   1.174   0.669   1.444 -0.3517 -0.0350  0.2466
18357TIP3    H176486   1.218   0.666   1.359 -2.4925 -1.7376 -0.8480
18357TIP3    H276487   1.211   0.596   1.493  1.7731  1.6775  1.2843
18358TIP3   OH276488   4.442   3.926   4.586  0.2814  0.4889  0.6982
18358TIP3    H176489   4.350   3.930   4.610  0.0878  3.5308 -0.3828
18358TIP3    H276490   4.488   3.968   4.659  0.7761 -0.6493  1.0461
18359TIP3   OH276491   3.442   2.959  13.120 -0.1161 -0.6242  0.0557
18359TIP3    H176492   3.391   2.970  13.039  1.1472 -1.6122 -0.9044
18359TIP3    H276493   3.533   2.958  13.090  0.4366  0.4387  1.6716
18360TIP3   OH276494   4.004   0.407   4.093 -0.5302  0.0701  0.0661
18360TIP3    H176495   3.941   0.441   4.030 -0.9723  1.7493  1.3627
18360TIP3    H276496   3.956   0.339   4.140  0.4761 -2.6946 -2.8006
18361TIP3   OH276497   1.529   5.019  13.262  0.0603 -0.8491  0.7217
18361TIP3    H176498   1.562   5.027  13.351  0.4582 -1.2227  0.6129
18361TIP3    H276499   1.596   5.061  13.208 -0.7649  0.4633  0.7085
18362TIP3   OH276500   4.296   6.083  15.963  0.1044 -0.6346 -0.0956
18362TIP3    H176501   4.346   6.143  16.017  1.8385 -3.1418  1.1811
18362TIP3    H276502   4.325   6.101  15.873  0.7282  0.2831  0.2852
18363TIP3   OH276503   1.584   3.841   2.826 -0.4657 -0.6678 -0.5645
18363TIP3    H176504   1.595   3.748   2.805 -0.3673 -0.5749 -0.9281
18363TIP3    H276505   1.650   3.885   2.774 -0.2487 -0.4264 -0.0832
18364TIP3   OH276506   5.776   5.810  15.653  0.8836  0.0789  0.3056
18364TIP3    H176507   5.820   5.845  15.730 -0.5163 -1.6991  1.9843
18364TIP3    H276508   5.815   5.723  15.641 -0.8862 -0.8043  0.7648
18365TIP3   OH276509   0.373   6.462   6.158  0.0898  0.2801 -0.0901
18365TIP3    H176510   0.283   6.431   6.146  0.2061  0.5098 -1.7996
18365TIP3    H276511   0.370   6.553   6.129  1.3451 -0.3814 -2.4050
18366TIP3   OH276512   3.404   0.477  14.650  0.3962  0.3704  0.3234
18366TIP3    H176513   3.351   0.553  14.673  0.3935  0.3736  0.3063
18366TIP3    H276514   3.348   0.426  14.591  2.2038  2.8423 -3.7513
18367TIP3   OH276515   2.312   2.927  17.088  0.1200  0.0093 -0.0181
18367TIP3    H176516   2.270   3.010  17.064 -0.7461 -0.0364  1.2477
18367TIP3    H276517   2.329   2.936  17.182  3.0579  0.0618 -0.5103
18368TIP3   OH276518   6.204   6.385  14.537 -0.7280 -0.4362  0.1630
18368TIP3    H176519   6.159   6.382  14.621  0.4690 -1.6673  0.7867
18368TIP3    H276520   6.203   6.294  14.506 -0.5561 -0.1107 -0.8141
18369TIP3   OH276521   3.596   3.984  17.239 -0.3749  0.3208  0.2188
18369TIP3    H176522   3.634   3.962  17.324  0.4964 -1.0112 -0.5027
18369TIP3    H276523   3.551   3.904  17.211 -0.4330  0.6663 -0.6926
18370TIP3   OH276524   6.402   4.922  15.769 -0.1596  0.6569 -0.0146
18370TIP3    H176525   6.434   5.001  15.812  0.5581  0.7125 -0.6462
18370TIP3    H276526   6.451   4.851  15.810 -2.7563  0.2126  2.5397
18371TIP3   OH276527   2.398   6.048   6.020  0.2416 -0.0179  0.0044
18371TIP3    H176528   2.413   6.082   6.108 -0.8926 -0.0320  0.2150
18371TIP3    H276529   2.483   6.055   5.977  0.4115  1.5730  0.5553
18372TIP3   OH276530   0.109   3.661   3.088 -0.6972 -0.5557 -0.3421
18372TIP3    H176531   0.085   3.754   3.089 -0.9870 -0.6243 -0.9077
18372TIP3    H276532   0.124   3.639   3.180  1.2374  0.5536 -0.3631
18373TIP3   OH276533   5.914   6.710   1.453 -0.3246 -0.0808  0.4227
18373TIP3    H176534   5.895   6.634   1.398  1.6830 -0.9395  0.8440
18373TIP3    H276535   5.924   6.673   1.541 -2.9011  1.1917  1.3101
18374TIP3   OH276536   3.009   3.231   3.959 -0.5248 -0.4858 -0.4924
18374TIP3    H176537   3.025   3.225   3.864  1.2931  0.7599 -0.3026
18374TIP3    H276538   3.030   3.322   3.980 -1.3591 -0.6421  1.0472
18375TIP3   OH276539   2.828   3.987   0.524  0.0012 -0.2850  0.4923
18375TIP3    H176540   2.747   3.979   0.473 -0.4336 -2.0307  1.3898
18375TIP3    H276541   2.895   4.011   0.460 -0.4353 -2.9630 -1.0468
18376TIP3   OH276542   4.408   0.136  10.727  0.4392 -0.0727  0.2359
18376TIP3    H176543   4.389   0.206  10.789  1.5325  0.0711  0.4269
18376TIP3    H276544   4.329   0.127  10.675  0.3256  1.3901  0.1348
18377TIP3   OH276545   4.388   6.242  16.223  0.4545  0.1745 -0.3462
18377TIP3    H176546   4.372   6.184  16.297  0.2569  0.1351 -0.4196
18377TIP3    H276547   4.324   6.313  16.234 -0.8356 -0.7770 -1.4842
18378TIP3   OH276548   0.243   4.712   0.792 -0.0252  0.6056 -0.1751
18378TIP3    H176549   0.300   4.638   0.817  0.9761  0.8129 -1.8034
18378TIP3    H276550   0.199   4.683   0.712 -2.5820  0.2846  1.2861
18379TIP3   OH276551   2.076   3.212   1.048 -0.0065 -0.1902  0.2584
18379TIP3    H176552   2.005   3.270   1.021  0.8801  0.2213 -1.2618
18379TIP3    H276553   2.045   3.171   1.129 -1.5628  0.7068  0.1250
18380TIP3   OH276554   5.628   6.139  13.406  0.1168 -0.6832  0.6184
18380TIP3    H176555   5.628   6.101  13.493 -0.2023  0.0449  0.9435
18380TIP3    H276556   5.720   6.155  13.386  0.0186  1.8627  2.0416
18381TIP3   OH276557   2.418   0.454   4.357 -0.3019  0.4179  0.7043
18381TIP3    H176558   2.339   0.425   4.310 -0.6940  0.1504  1.5270
18381TIP3    H276559   2.488   0.400   4.321 -0.5551  0.4012  0.2277
18382TIP3   OH276560   3.771   1.384  12.890 -0.6687  0.2580 -0.1776
18382TIP3    H176561   3.692   1.401  12.839  0.2628 -1.1179 -2.1163
18382TIP3    H276562   3.841   1.426  12.840  0.4692 -2.3561 -0.8167
18383TIP3   OH276563   3.639   6.755   4.552 -0.3682 -0.4442  0.2311
18383TIP3    H176564   3.568   6.776   4.613 -0.2515  0.1041  0.1885
18383TIP3    H276565   3.674   6.841   4.527 -0.3465 -0.6706 -0.5223
18384TIP3   OH276566   4.208   6.187  16.695 -0.2005 -0.2261 -0.0086
18384TIP3    H176567   4.224   6.280  16.711  1.6889 -0.0932 -2.3185
18384TIP3    H276568   4.115   6.183  16.673  0.0120  1.3663 -1.3124
18385TIP3   OH276569   0.411   6.095   4.886  0.4098  0.2750  0.2382
18385TIP3    H176570   0.418   6.171   4.944  1.2243  0.3677  0.0272
18385TIP3    H276571   0.322   6.100   4.851  0.6733  1.5003 -0.2828
18386TIP3   OH276572   3.909   4.335  14.857  0.1454 -0.2644  0.6836
18386TIP3    H176573   3.956   4.411  14.822 -0.4567 -0.2141 -0.0419
18386TIP3    H276574   3.889   4.281  14.779 -0.9594 -0.3003  0.9799
18387TIP3   OH276575   0.349   4.848   2.415 -0.4789  0.0520  0.2920
18387TIP3    H176576   0.356   4.943   2.429 -0.1832  0.0814 -0.0653
18387TIP3    H276577   0.287   4.819   2.482 -0.8270  0.5505  0.1879
18388TIP3   OH276578   3.056   0.756   2.620 -0.1708 -0.5036  0.2019
18388TIP3    H176579   3.125   0.757   2.554 -0.3685  1.6869 -0.0216
18388TIP3    H276580   3.046   0.848   2.645 -3.3591 -0.7081 -0.1148
18389TIP3   OH276581   0.667   1.901   1.526 -0.0954 -0.1626 -0.7635
18389TIP3    H176582   0.688   1.882   1.618  0.3032  3.6828  0.0148
18389TIP3    H276583   0.576   1.873   1.516 -0.1631 -0.5531  0.8218
18390TIP3   OH276584   0.200   0.207  13.506 -0.0325 -0.0325  0.5539
18390TIP3    H176585   0.263   0.146  13.468  0.4204  1.5800 -1.3780
18390TIP3    H276586   0.124   0.201  13.448 -0.0972  1.0043  0.5294
18391TIP3   OH276587   2.126   6.577   0.637 -0.1535 -0.0738  0.3270
18391TIP3    H176588   2.188   6.584   0.709 -1.2530 -0.3118  1.3040
18391TIP3    H276589   2.112   6.483   0.626 -1.2901  0.0280  0.9237
18392TIP3   OH276590   5.954   1.070   0.228 -0.0237 -0.1324 -0.2428
18392TIP3    H176591   5.973   1.066   0.135 -0.4965  2.2371 -0.4695
18392TIP3    H276592   5.998   1.150   0.258 -0.3336 -0.5830  1.4517
18393TIP3   OH276593   2.492   4.116   1.174  0.4550  0.1250 -0.6818
18393TIP3    H176594   2.549   4.176   1.222  1.3276  0.2087 -1.7864
18393TIP3    H276595   2.403   4.145   1.195  0.7975 -0.2566  1.3859
18394TIP3   OH276596   4.302   2.037  12.787  0.4890  0.8267  0.1652
18394TIP3    H176597   4.277   1.945  12.788  2.5677  0.1996 -1.1462
18394TIP3    H276598   4.352   2.047  12.706  1.5311  2.7361  1.0095
18395TIP3   OH276599   1.580   0.499  15.572  0.1969  0.0096 -0.7204
18395TIP3    H176600   1.637   0.488  15.648 -0.6449  1.1216  0.0769
18395TIP3    H276601   1.564   0.410  15.542 -0.5563 -0.5346  1.2245
18396TIP3   OH276602   4.389   6.381  15.015 -0.4669  0.2451 -0.1249
18396TIP3    H176603   4.440   6.364  14.936 -0.6881  2.3292 -0.7526
18396TIP3    H276604   4.373   6.295  15.053  1.3709 -0.6207 -1.2651
18397TIP3   OH276605   0.544   2.762  12.143 -0.1342 -0.2586 -0.6227
18397TIP3    H176606   0.560   2.699  12.213 -2.7707  0.4218  0.6588
18397TIP3    H276607   0.496   2.712  12.076 -0.8867  0.0102 -0.2834
18398TIP3   OH276608   1.116   5.836  12.534  0.4214  0.2907  0.1699
18398TIP3    H176609   1.188   5.863  12.592  0.3509  0.2218  0.2908
18398TIP3    H276610   1.151   5.760  12.487 -0.3341 -1.1228  1.8329
18399TIP3   OH276611   4.492   5.301   0.882  0.3724  0.5122 -0.1595
18399TIP3    H176612   4.586   5.303   0.862  0.3033 -2.2413 -0.9231
18399TIP3    H276613   4.485   5.343   0.968  2.3415  0.3959  0.0876
18400TIP3   OH276614   4.974   6.165   2.020 -0.6034 -0.1026 -0.0729
18400TIP3    H176615   4.920   6.243   2.029 -0.2906  0.1947 -0.7977
18400TIP3    H276616   5.064   6.197   2.020 -0.5129  0.0836 -5.2144
18401TIP3   OH276617   6.785   4.153   0.625  0.2710 -0.2343  0.2053
18401TIP3    H176618   6.789   4.059   0.605  1.1428 -0.0865 -0.3870
18401TIP3    H276619   6.729   4.159   0.702 -2.1041 -0.9669 -1.4284
18402TIP3   OH276620   4.839   4.406   3.925 -0.4078  0.0722 -0.0991
18402TIP3    H176621   4.757   4.454   3.912 -0.2202  0.7771  1.2132
18402TIP3    H276622   4.834   4.333   3.864 -1.6388  0.5941 -0.6369
18403TIP3   OH276623   1.831   6.299  10.824 -0.1925 -0.0897  0.3686
18403TIP3    H176624   1.858   6.373  10.770  0.0959  0.5710  1.4092
18403TIP3    H276625   1.913   6.267  10.863 -0.3513 -0.7863  0.1395
18404TIP3   OH276626   3.120   5.445   2.525 -0.3643 -0.4474 -0.1006
18404TIP3    H176627   3.052   5.403   2.473 -2.5452  2.5162  0.1924
18404TIP3    H276628   3.113   5.406   2.612 -0.8380 -1.0361 -0.4028
18405TIP3   OH276629   2.848   5.306  14.759 -0.3082 -1.0557  0.3090
18405TIP3    H176630   2.830   5.383  14.705  0.7152  0.2667  1.8319
18405TIP3    H276631   2.781   5.310  14.828  0.2041 -1.1213  0.8091
18406TIP3   OH276632   3.348   6.607   3.993 -0.8052  0.1676 -0.1973
18406TIP3    H176633   3.350   6.511   3.991 -0.0510  0.1615  0.7970
18406TIP3    H276634   3.375   6.633   3.905  1.3498 -0.5048  0.2502
18407TIP3   OH276635   2.086   0.530  14.946 -0.0498 -0.0569  0.8386
18407TIP3    H176636   2.078   0.484  15.030 -0.8813 -0.5318  0.5122
18407TIP3    H276637   1.999   0.569  14.933  0.2097  0.3723  0.4032
18408TIP3   OH276638   4.394   0.064   5.840 -0.0739  0.0250  0.3128
18408TIP3    H176639   4.319   0.052   5.898  0.3058 -1.4585  0.5033
18408TIP3    H276640   4.456   0.115   5.892 -0.0039 -0.7344  0.9814
18409TIP3   OH276641   6.269   4.336  17.093  0.4837 -0.4058  0.3418
18409TIP3    H176642   6.225   4.320  17.010  0.7705  2.0821 -0.3550
18409TIP3    H276643   6.198   4.351  17.155  0.2901 -0.4910  0.1411
18410TIP3   OH276644   0.232   2.220   2.336 -0.8901 -0.0534 -0.4098
18410TIP3    H176645   0.268   2.178   2.414 -0.8487 -1.1767 -1.0156
18410TIP3    H276646   0.211   2.309   2.364  0.8074  0.1149  0.4091
18411TIP3   OH276647   4.785   3.579   4.133  0.2548  0.3107 -0.5334
18411TIP3    H176648   4.819   3.560   4.045  1.8386 -0.6416  0.2587
18411TIP3    H276649   4.861   3.613   4.181 -0.4319  0.1805  0.6624
18412TIP3   OH276650   0.229   0.977   3.723 -0.3796  0.6139 -0.7389
18412TIP3    H176651   0.230   0.933   3.808 -1.9603  1.5161 -0.2240
18412TIP3    H276652   0.222   0.906   3.659  3.1627 -0.2464 -0.3074
18413TIP3   OH276653   5.192   5.954  12.017 -0.6790 -0.2293  0.2520
18413TIP3    H176654   5.171   5.969  11.925 -0.3386  3.8625  0.7519
18413TIP3    H276655   5.107   5.942  12.059 -0.8235 -2.3596 -0.5992
18414TIP3   OH276656   0.988   6.242  12.392  0.5129 -0.1617 -0.3259
18414TIP3    H176657   1.056   6.201  12.338  0.3272 -0.8234 -0.0637
18414TIP3    H276658   0.906   6.203  12.360  0.2516  0.6778 -0.6783
18415TIP3   OH276659   0.103   1.718   3.790 -0.3635  0.5893  0.1898
18415TIP3    H176660   0.031   1.779   3.803  0.5205  1.9284 -1.0969
18415TIP3    H276661   0.180   1.773   3.781  0.6490 -0.7789  0.3091
18416TIP3   OH276662   2.654   3.441   4.560 -0.0325  0.2024  0.4216
18416TIP3    H176663   2.655   3.398   4.474 -0.3612  0.8440  0.0922
18416TIP3    H276664   2.739   3.419   4.598  0.8217  1.3146 -0.7757
18417TIP3   OH276665   5.139   3.873   2.787  0.3196  0.2374  0.2890
18417TIP3    H176666   5.183   3.947   2.746 -0.6368  0.1309 -0.9661
18417TIP3    H276667   5.202   3.840   2.851  0.6159  2.3348  1.1272
18418TIP3   OH276668   6.546   3.858  12.182 -0.0085  0.3601  0.3460
18418TIP3    H176669   6.580   3.948  12.182  3.1014 -0.7333 -0.7664
18418TIP3    H276670   6.520   3.842  12.272 -1.7857  2.7889  0.2989
18419TIP3   OH276671   0.622   4.449   0.053  0.5304 -0.0546  0.1467
18419TIP3    H176672   0.679   4.389   0.101  1.2141  0.3225 -0.1863
18419TIP3    H276673   0.537   4.442   0.097  1.0982  0.1583  1.2958
18420TIP3   OH276674   1.756   4.479   0.950 -0.5154 -0.1419  1.1645
18420TIP3    H176675   1.850   4.460   0.940 -0.0973  2.1813  0.3008
18420TIP3    H276676   1.748   4.518   1.037 -1.0449 -2.2481  2.0941
18421TIP3   OH276677   1.584   3.062  13.924  0.2462 -0.3038 -0.1884
18421TIP3    H176678   1.599   3.093  14.013  0.1021 -1.2534  0.1696
18421TIP3    H276679   1.601   2.968  13.927  1.7034 -0.1041 -1.5035
18422TIP3   OH276680   0.101   1.003   5.313 -0.3075  0.1006 -0.5566
18422TIP3    H176681   0.131   1.061   5.243 -1.7903 -0.8538 -2.0326
18422TIP3    H276682   0.087   1.060   5.388  1.1559  1.1747 -1.0713
18423TIP3   OH276683   0.043   4.475   0.760 -0.4201 -0.3113  0.1276
18423TIP3    H176684   0.004   4.404   0.810 -0.8878 -1.3680 -1.7086
18423TIP3    H276685   0.104   4.433   0.700  0.6420  0.9913  0.2598
18424TIP3   OH276686   3.349   1.208   1.646  0.4892  0.2531  0.0020
18424TIP3    H176687   3.328   1.162   1.565  0.5311  0.9163 -0.3810
18424TIP3    H276688   3.274   1.191   1.703  0.7226 -0.6998  0.0368
18425TIP3   OH276689   5.020   5.815  10.437  0.2309 -0.9668  0.4895
18425TIP3    H176690   5.084   5.814  10.366  1.6925  1.7643  1.6901
18425TIP3    H276691   4.946   5.864  10.402  1.2577  1.0357  1.0473
18426TIP3   OH276692   4.637   1.598  14.171  0.0782 -0.3974  0.1903
18426TIP3    H176693   4.707   1.646  14.216  0.5184  0.9916 -1.9238
18426TIP3    H276694   4.562   1.603  14.231  0.4179  2.1271  0.4683
18427TIP3   OH276695   0.557   5.677   3.680 -0.0257  0.2358  0.0100
18427TIP3    H176696   0.605   5.717   3.753 -0.4431  1.0472 -0.1452
18427TIP3    H276697   0.526   5.594   3.715  0.6959  0.1307  0.4111
18428TIP3   OH276698   1.719   5.594  13.510 -0.3010 -0.1010  0.6019
18428TIP3    H176699   1.637   5.632  13.542 -1.1612 -0.1554 -1.4595
18428TIP3    H276700   1.772   5.580  13.589 -2.7932 -1.3205  2.0869
18429TIP3   OH276701   3.435   1.016  13.604  0.0665 -0.3260 -0.0651
18429TIP3    H176702   3.383   1.014  13.523  2.6581 -0.7078 -1.7871
18429TIP3    H276703   3.405   0.940  13.654 -1.9903  0.2542 -0.3740
18430TIP3   OH276704   2.101   3.356   4.928 -0.3408  0.1772 -0.4113
18430TIP3    H176705   2.160   3.425   4.959 -1.5337  1.5958 -1.2504
18430TIP3    H276706   2.116   3.352   4.834 -3.0022  1.9712 -0.9626
18431TIP3   OH276707   6.292   5.322  15.123  0.4697  0.0848 -0.0308
18431TIP3    H176708   6.283   5.321  15.218  0.6756  0.2460 -0.0090
18431TIP3    H276709   6.321   5.234  15.100  1.1377  0.2642  0.1282
18432TIP3   OH276710   3.062   5.994   2.733 -0.6920 -0.1657  0.0154
18432TIP3    H176711   2.989   5.936   2.710 -0.2264 -0.7322 -0.0540
18432TIP3    H276712   3.133   5.934   2.758 -0.3194  0.3843  0.2841
18433TIP3   OH276713   2.591   5.124   3.970 -0.6509  0.1692 -0.0168
18433TIP3    H176714   2.674   5.092   4.005 -0.8686  0.2672  0.5938
18433TIP3    H276715   2.603   5.122   3.875  0.1452  0.4461  0.0716
18434TIP3   OH276716   3.586   3.641  12.273 -0.0461  0.4059  0.5226
18434TIP3    H176717   3.660   3.674  12.325 -1.8362  1.4261  2.4790
18434TIP3    H276718   3.627   3.606  12.194  2.4065  2.3077  0.8813
18435TIP3   OH276719   6.752   1.899   1.477 -0.4761  0.0019 -0.6933
18435TIP3    H176720   6.756   1.994   1.479  1.4447 -0.0442 -1.0959
18435TIP3    H276721   6.761   1.872   1.568  1.0807  0.1586 -0.7928
18436TIP3   OH276722   3.881   0.140  14.967 -0.2542 -0.3862 -0.2882
18436TIP3    H176723   3.848   0.074  15.028 -3.2141 -1.1944 -2.6793
18436TIP3    H276724   3.807   0.198  14.952  1.0017  0.8970 -1.6956
18437TIP3   OH276725   2.108   4.575  15.048 -0.0470  0.6281  0.0922
18437TIP3    H176726   2.086   4.531  15.130  0.5373 -0.4470 -0.3120
18437TIP3    H276727   2.027   4.619  15.021 -0.9829 -1.1952 -0.1101
18438TIP3   OH276728   5.851   2.627  10.806 -0.6633  0.6088 -0.2589
18438TIP3    H176729   5.820   2.565  10.872  1.4759 -1.3051 -1.0138
18438TIP3    H276730   5.874   2.705  10.856 -0.4184 -0.3126  1.0947
18439TIP3   OH276731   2.447   3.858  13.714  0.3673 -0.1931 -0.3787
18439TIP3    H176732   2.480   3.779  13.670  1.1784 -0.4188  0.5947
18439TIP3    H276733   2.352   3.850  13.710  0.4219 -0.3102 -1.8819
18440TIP3   OH276734   6.765   0.171   2.517 -0.6060  0.8187  0.4447
18440TIP3    H176735   6.683   0.192   2.560 -1.0681 -1.5548  0.7845
18440TIP3    H276736   6.760   0.216   2.432 -1.5274  2.0147  1.1188
18441TIP3   OH276737   3.370   4.873  10.808  0.9097 -0.1120 -0.5974
18441TIP3    H176738   3.298   4.812  10.790  0.5913  0.0180  0.1930
18441TIP3    H276739   3.330   4.940  10.864  1.7500 -0.2518  0.1654
18442TIP3   OH276740   4.843   0.981  16.485  0.2267  0.1308 -1.0301
18442TIP3    H176741   4.917   0.953  16.430  0.1277 -0.5977 -0.7869
18442TIP3    H276742   4.769   0.929  16.455  0.0888 -0.0161 -0.4480
18443TIP3   OH276743   3.697   4.586  16.992 -0.1136  0.4883  0.4671
18443TIP3    H176744   3.713   4.572  17.085 -0.9169  0.3360  0.5835
18443TIP3    H276745   3.738   4.670  16.973 -0.9109  1.0460  1.2045
18444TIP3   OH276746   2.248   0.282  15.290  0.1893  0.2181  0.4441
18444TIP3    H176747   2.343   0.279  15.272 -0.1268 -1.3959 -1.1372
18444TIP3    H276748   2.227   0.375  15.293  1.4535  0.5966 -1.4491
18445TIP3   OH276749   6.616   2.561   1.741 -0.1823  0.1592 -0.0902
18445TIP3    H176750   6.678   2.599   1.679 -0.4021  0.4971 -0.1045
18445TIP3    H276751   6.605   2.471   1.711  0.2993  0.0986 -0.0892
18446TIP3   OH276752   1.061   6.144  15.988 -0.3874  0.2366 -0.3651
18446TIP3    H176753   1.036   6.100  16.069 -0.0891 -1.8668 -1.3592
18446TIP3    H276754   0.981   6.143  15.935 -0.0355 -0.2959 -0.8922
18447TIP3   OH276755   0.012   5.619   2.787  0.0191  0.2892  0.2439
18447TIP3    H176756   0.064   5.693   2.818  1.1309 -0.1392 -0.5441
18447TIP3    H276757  -0.072   5.628   2.831  0.5375  1.3759  1.0306
18448TIP3   OH276758   0.879   4.853   0.609  0.0062 -0.1259  0.0309
18448TIP3    H176759   0.812   4.911   0.573  0.4828  0.5459  0.2301
18448TIP3    H276760   0.860   4.768   0.569 -0.3622  0.2804 -0.6755
18449TIP3   OH276761   4.455   4.544   0.630  0.3675  0.8627 -0.2065
18449TIP3    H176762   4.421   4.465   0.673  1.7705 -0.1468 -0.9074
18449TIP3    H276763   4.448   4.525   0.537  1.2122  1.3525 -0.3736
18450TIP3   OH276764   5.946   0.082  12.993  0.3677  0.5142 -0.5710
18450TIP3    H176765   5.898   0.075  12.910 -0.1128  0.4021 -0.2837
18450TIP3    H276766   6.037   0.061  12.969  0.7116  2.9199 -1.5367
18451TIP3   OH276767   1.251   1.426  17.128 -0.2592 -0.1841  0.1756
18451TIP3    H176768   1.203   1.485  17.186  1.1044  0.3565  0.7733
18451TIP3    H276769   1.307   1.375  17.187 -0.2646 -0.9660 -0.4848
18452TIP3   OH276770   5.068   4.114  10.929 -0.9291 -0.1586 -0.5067
18452TIP3    H176771   5.119   4.172  10.986 -1.0506 -0.9757  0.4536
18452TIP3    H276772   5.012   4.065  10.989  0.1947 -2.3010 -1.1583
18453TIP3   OH276773   4.639   1.593   1.508  0.3582  0.7366 -0.2994
18453TIP3    H176774   4.562   1.540   1.491  0.3461  0.4416  0.6565
18453TIP3    H276775   4.687   1.594   1.425 -0.4785  0.6164 -0.7866
18454TIP3   OH276776   5.424   5.396  14.704  0.3926  0.6493  0.5282
18454TIP3    H176777   5.359   5.347  14.654  0.4440  1.2390 -0.1284
18454TIP3    H276778   5.374   5.434  14.777  0.2198  0.2010  0.6472
18455TIP3   OH276779   0.246   4.163   5.518 -0.0264 -0.0614 -0.5605
18455TIP3    H176780   0.150   4.164   5.518 -0.0526 -1.4514 -1.5037
18455TIP3    H276781   0.270   4.256   5.522 -1.3880  0.2576  1.2265
18456TIP3   OH276782   1.552   3.868  13.072 -0.0723 -0.1146 -0.0671
18456TIP3    H176783   1.505   3.834  13.148  0.8176  0.7539  0.8927
18456TIP3    H276784   1.560   3.793  13.013  0.6009 -1.2056  1.3741
18457TIP3   OH276785   4.791   3.954   4.775  0.0218  0.5957 -0.7158
18457TIP3    H176786   4.848   3.878   4.779  0.0734  0.6325 -0.7619
18457TIP3    H276787   4.785   3.975   4.681 -0.9773 -0.1003 -0.8250
18458TIP3   OH276788   1.943   0.540   0.416  0.4910 -0.1493  0.0791
18458TIP3    H176789   2.027   0.509   0.383  0.5418  0.5799 -0.4880
18458TIP3    H276790   1.949   0.636   0.412 -0.8488 -0.0980 -1.2661
18459TIP3   OH276791   3.673   1.200   0.429 -0.5393  0.1969 -0.2742
18459TIP3    H176792   3.613   1.199   0.504 -1.3628 -1.2592 -0.9279
18459TIP3    H276793   3.618   1.227   0.355 -0.2299 -0.4802 -0.7526
18460TIP3   OH276794   0.735   3.392   6.164  0.4043 -0.6714  0.2441
18460TIP3    H176795   0.828   3.414   6.161  0.4685 -1.0760 -1.3211
18460TIP3    H276796   0.732   3.300   6.191  0.5060 -0.8902 -0.4773
18461TIP3   OH276797   2.614   2.869   3.233  0.4505 -0.2766 -0.7358
18461TIP3    H176798   2.538   2.811   3.235  0.5026 -0.3342 -0.4631
18461TIP3    H276799   2.689   2.811   3.239  0.5337 -0.2588 -1.5016
18462TIP3   OH276800   6.359   6.535   4.860  0.1777  0.5019 -0.2376
18462TIP3    H176801   6.282   6.545   4.806 -0.0839 -0.6758 -0.1011
18462TIP3    H276802   6.402   6.456   4.827  1.2553  1.0624 -0.2265
18463TIP3   OH276803   3.416   1.802  13.816  0.3256 -0.3580  0.0245
18463TIP3    H176804   3.345   1.832  13.874 -0.4286 -1.1200 -0.4912
18463TIP3    H276805   3.478   1.760  13.876 -0.1042 -0.5106  0.3696
18464TIP3   OH276806   3.750   3.508  15.856 -0.3407 -0.2954  0.1521
18464TIP3    H176807   3.729   3.591  15.899  3.2001  0.2342  1.0346
18464TIP3    H276808   3.676   3.493  15.796 -2.0099  2.4628  1.3947
18465TIP3   OH276809   0.205   5.489   3.766  0.5583  0.4442 -0.2340
18465TIP3    H176810   0.240   5.548   3.833  0.7350 -0.8966  0.8903
18465TIP3    H276811   0.282   5.450   3.726  0.4319  0.3172 -0.3535
18466TIP3   OH276812   2.073   0.638   1.769  0.0622  0.5981 -0.1828
18466TIP3    H176813   2.030   0.663   1.687  0.7100  0.3169 -0.6124
18466TIP3    H276814   2.074   0.718   1.821  1.3192  1.2723 -1.1928
18467TIP3   OH276815   3.591   1.179  14.909 -0.9987  0.4523 -0.5083
18467TIP3    H176816   3.573   1.169  15.002  0.5241 -0.4897 -0.3131
18467TIP3    H276817   3.528   1.246  14.880 -0.1981  2.1822  1.5885
18468TIP3   OH276818   0.439   4.738  15.775 -0.2879 -0.2096 -0.1818
18468TIP3    H176819   0.451   4.703  15.686 -0.4207 -0.6098 -0.0452
18468TIP3    H276820   0.457   4.832  15.766 -0.9023 -0.1402 -0.7555
18469TIP3   OH276821   5.792   6.013  15.867 -0.0834  0.6183  0.4353
18469TIP3    H176822   5.770   6.041  15.956 -0.6958 -1.5602  1.0150
18469TIP3    H276823   5.885   5.990  15.872  0.0922  1.2762  0.2859
18470TIP3   OH276824   3.253   0.865   6.327 -0.0357 -0.3082 -0.1516
18470TIP3    H176825   3.180   0.816   6.289  0.3305 -0.6832 -0.3768
18470TIP3    H276826   3.294   0.804   6.388 -0.5041  0.2322  0.7147
18471TIP3   OH276827   5.435   1.255  15.229 -0.2866  0.2726  0.3495
18471TIP3    H176828   5.394   1.272  15.144 -1.6194  1.9683  1.3214
18471TIP3    H276829   5.397   1.172  15.258  0.9560 -0.8681 -1.1472
18472TIP3   OH276830   2.695   6.380  12.431  0.1675 -0.4373  0.2911
18472TIP3    H176831   2.723   6.334  12.352 -1.7738  1.9888 -1.9171
18472TIP3    H276832   2.599   6.370  12.431  0.0907  0.2780  1.8645
18473TIP3   OH276833   3.237   4.210   1.739 -0.6426  0.3775 -0.1893
18473TIP3    H176834   3.260   4.119   1.719  0.1831  0.0171  2.2991
18473TIP3    H276835   3.303   4.262   1.694 -0.7541 -0.2554 -1.1105
18474TIP3   OH276836   3.618   5.556   5.717  0.3329  0.1004 -0.4698
18474TIP3    H176837   3.571   5.605   5.650 -3.6703 -1.0567  1.3732
18474TIP3    H276838   3.645   5.476   5.673 -2.2606 -0.6505 -0.7612
18475TIP3   OH276839   1.639   2.047   1.994  0.6597  0.1270  0.4089
18475TIP3    H176840   1.717   2.099   1.976 -0.4270  0.4171 -3.9420
18475TIP3    H276841   1.572   2.111   2.017  0.2699  0.3912 -1.3998
18476TIP3   OH276842   4.914   4.309   2.307 -0.3674  0.2958 -0.3611
18476TIP3    H176843   4.881   4.219   2.310  0.2020  0.0871 -0.3648
18476TIP3    H276844   4.835   4.363   2.312 -0.6139 -0.1806  1.3958
18477TIP3   OH276845   1.808   3.369   2.277 -0.1985 -0.3360 -0.0330
18477TIP3    H176846   1.879   3.319   2.237  0.7260 -0.4508  1.6705
18477TIP3    H276847   1.728   3.333   2.240  0.5789 -1.2358 -0.8436
18478TIP3   OH276848   0.052   5.986  10.519  0.0736 -0.4926 -0.3730
18478TIP3    H176849  -0.028   5.955  10.476 -0.8494 -2.9912  2.9812
18478TIP3    H276850   0.121   5.930  10.483 -0.0585  0.0007 -1.4165
18479TIP3   OH276851   5.266   4.415  16.287 -0.2136 -0.4881 -0.2187
18479TIP3    H176852   5.231   4.459  16.210 -0.7117 -0.3692  0.0750
18479TIP3    H276853   5.203   4.345  16.305 -0.1062 -0.5063  0.0896
18480TIP3   OH276854   3.994   3.043  15.089 -0.4242 -0.0983  0.4878
18480TIP3    H176855   3.991   3.125  15.040 -0.9303 -0.4562 -0.0741
18480TIP3    H276856   3.995   3.071  15.181  1.8322  0.6085  0.2723
18481TIP3   OH276857   0.440   1.122  11.417 -0.3628 -0.1192  0.4840
18481TIP3    H176858   0.353   1.089  11.394 -0.7292  0.9317  0.3127
18481TIP3    H276859   0.426   1.175  11.496  0.4367 -1.4473  1.5341
18482TIP3   OH276860   4.107   3.823  16.897  0.3184  0.1942 -0.0863
18482TIP3    H176861   4.031   3.784  16.939  0.6626 -0.4992 -0.0895
18482TIP3    H276862   4.103   3.916  16.920  1.0373 -0.3422  2.2859
18483TIP3   OH276863   6.722   3.978   4.903  0.2227  0.0989  0.3212
18483TIP3    H176864   6.714   4.026   4.985  1.6002  0.4854  0.2332
18483TIP3    H276865   6.789   3.913   4.920  1.0556  0.6749 -0.7377
18484TIP3   OH276866   3.312   0.971  13.362  0.7671  0.1699 -0.7100
18484TIP3    H176867   3.238   0.918  13.334  1.8672 -0.9547 -1.5922
18484TIP3    H276868   3.322   1.038  13.294  0.3394  0.5398 -0.4069
18485TIP3   OH276869   4.697   6.673   3.614  0.2362 -0.8303 -0.8725
18485TIP3    H176870   4.638   6.712   3.550  1.6452  0.8267 -1.1977
18485TIP3    H276871   4.722   6.589   3.575 -0.5480 -0.7787 -1.5092
18486TIP3   OH276872   5.063   0.046  14.218  0.4451  1.0088  0.1540
18486TIP3    H176873   5.020  -0.029  14.178  0.1409  1.3591 -0.1795
18486TIP3    H276874   5.021   0.122  14.178 -0.3950  1.3700  1.6639
18487TIP3   OH276875   4.232   4.207  14.041 -0.3892  0.2722  0.2973
18487TIP3    H176876   4.155   4.156  14.068 -0.3003  1.6718  3.4774
18487TIP3    H276877   4.305   4.163  14.085  0.2476  0.6294 -0.4103
18488TIP3   OH276878   1.934   4.749  11.648 -0.3432  0.8217 -0.4119
18488TIP3    H176879   1.902   4.686  11.584 -0.0885 -1.5065  1.6698
18488TIP3    H276880   2.020   4.715  11.675  0.1820  2.5158  0.1322
18489TIP3   OH276881   6.149   2.646  13.824 -0.4356  0.1081 -0.0828
18489TIP3    H176882   6.214   2.702  13.866 -0.2904  1.7490 -2.3867
18489TIP3    H276883   6.150   2.565  13.875 -0.4474  2.0766  3.1589
18490TIP3   OH276884   0.514   4.475   1.923  0.5663  0.0395 -0.3355
18490TIP3    H176885   0.609   4.468   1.925  0.7276  1.0816 -3.0419
18490TIP3    H276886   0.495   4.568   1.936 -0.1934 -0.4190  2.1121
18491TIP3   OH276887   6.523   2.980   4.475 -0.8538 -0.2112  0.5447
18491TIP3    H176888   6.449   3.039   4.493 -1.3795 -1.3738  2.3539
18491TIP3    H276889   6.581   3.031   4.419 -2.8981  0.8354 -0.7026
18492TIP3   OH276890   0.640   6.435   6.389 -0.4720 -0.2997 -0.0840
18492TIP3    H176891   0.587   6.504   6.427  1.1539  0.1131  1.4899
18492TIP3    H276892   0.726   6.475   6.375  1.1638 -2.5357  2.8806
18493TIP3   OH276893   5.187   5.535   0.157  0.4182  0.7181  0.0035
18493TIP3    H176894   5.230   5.507   0.076  0.7972 -1.0392  0.7938
18493TIP3    H276895   5.095   5.541   0.134  0.4981  0.0451 -0.5051
18494TIP3   OH276896   1.149   4.548   4.650  0.7871  0.0867 -0.5150
18494TIP3    H176897   1.159   4.642   4.661  0.6081  0.4494 -3.2073
18494TIP3    H276898   1.071   4.538   4.595  0.0674 -1.6960  0.7804
18495TIP3   OH276899   6.499   6.088   5.084 -0.5075 -0.3398 -0.4181
18495TIP3    H176900   6.579   6.137   5.068 -0.8455  0.6343  0.8312
18495TIP3    H276901   6.445   6.102   5.006 -0.9106  1.8873  0.2464
18496TIP3   OH276902   0.981   2.307  14.907 -0.1142 -0.4554  0.0150
18496TIP3    H176903   1.041   2.235  14.925  0.2077 -0.7246 -2.0141
18496TIP3    H276904   1.020   2.383  14.950 -0.4501 -1.4666  2.1523
18497TIP3   OH276905   0.108   1.545   6.520  0.0020  0.4896 -0.0989
18497TIP3    H176906   0.059   1.488   6.580 -0.1615 -0.7049 -1.3455
18497TIP3    H276907   0.078   1.633   6.540 -1.6522 -0.1031  0.0765
18498TIP3   OH276908   0.645   3.881  16.886 -0.2595  0.0155 -0.0157
18498TIP3    H176909   0.729   3.927  16.889 -0.0150 -0.4877  1.4189
18498TIP3    H276910   0.669   3.791  16.861 -0.6701  0.5055 -2.2372
18499TIP3   OH276911   2.710   1.774   4.217 -0.6358 -0.4332 -0.2966
18499TIP3    H176912   2.690   1.725   4.137  0.9282  1.2444 -1.7489
18499TIP3    H276913   2.782   1.832   4.193 -1.5823  1.6800  1.7291
18500TIP3   OH276914   4.500   0.842  15.018 -0.1458 -0.4368  0.4876
18500TIP3    H176915   4.482   0.893  15.097  0.7755 -0.1941  0.5421
18500TIP3    H276916   4.506   0.752  15.049  1.0870 -0.2415  0.8356
18501TIP3   OH276917   1.361   6.754   3.593  0.1446 -0.0639  0.1424
18501TIP3    H176918   1.448   6.745   3.632 -0.1088 -1.0423  0.5091
18501TIP3    H276919   1.336   6.664   3.570  0.2472  0.4926 -2.2116
18502TIP3   OH276920   2.253   2.746  15.665  0.5097  0.4032  0.2527
18502TIP3    H176921   2.160   2.751  15.688 -0.2149 -0.2880 -2.3317
18502TIP3    H276922   2.287   2.834  15.683 -1.0015  1.0897 -0.1621
18503TIP3   OH276923   4.915   5.219   5.280  0.7264 -0.3238 -0.6418
18503TIP3    H176924   4.909   5.286   5.349 -1.0459 -0.4074 -0.6906
18503TIP3    H276925   4.899   5.136   5.326  2.0094 -0.6271 -0.7360
18504TIP3   OH276926   0.592   5.209  13.479  0.2776 -0.1665  0.4103
18504TIP3    H176927   0.510   5.257  13.495  0.9912  2.0894 -2.3356
18504TIP3    H276928   0.573   5.155  13.402  1.0375 -0.5210  0.4739
18505TIP3   OH276929   3.047   5.491   1.712 -0.1361  0.2768  0.2985
18505TIP3    H176930   3.065   5.409   1.759  1.5660  1.0431  1.0366
18505TIP3    H276931   3.009   5.549   1.778  0.3442  0.6707  0.2339
18506TIP3   OH276932   1.413   1.930   6.154  0.0096  0.0208  0.7714
18506TIP3    H176933   1.428   1.927   6.248  1.7385 -2.2821  0.4459
18506TIP3    H276934   1.318   1.943   6.146  0.0685  1.9990  2.7961
18507TIP3   OH276935   0.316   5.290  14.514 -0.1272 -0.1636  0.4466
18507TIP3    H176936   0.365   5.226  14.462 -0.8650  0.9397 -1.6798
18507TIP3    H276937   0.249   5.238  14.559 -0.3310 -1.0045 -0.7841
18508TIP3   OH276938   0.006   2.438   0.661 -0.1756  0.0548  0.5654
18508TIP3    H176939  -0.061   2.503   0.683 -0.6907 -0.8559  1.7161
18508TIP3    H276940  -0.015   2.413   0.570 -0.7022  0.6239  0.5283
18509TIP3   OH276941   2.507   5.398  17.210 -0.9046  0.1512  0.0455
18509TIP3    H176942   2.560   5.477  17.203 -0.0231 -0.4868 -0.5052
18509TIP3    H276943   2.545   5.337  17.147 -0.2515 -1.4811  1.9610
18510TIP3   OH276944   4.277   0.402  10.559  0.1975 -0.5246  0.2512
18510TIP3    H176945   4.231   0.402  10.643 -1.0129  0.0844 -0.3886
18510TIP3    H276946   4.303   0.493  10.545  0.8303 -0.7098  0.1937
18511TIP3   OH276947   2.141   1.368  14.723  0.5894  0.2924 -0.0223
18511TIP3    H176948   2.080   1.421  14.774  0.6145 -0.6816  1.0473
18511TIP3    H276949   2.153   1.289  14.776  0.5459 -0.7808 -1.5901
18512TIP3   OH276950   3.211   5.140   3.365  0.0633  0.0248 -0.0416
18512TIP3    H176951   3.144   5.136   3.297 -1.8721  1.0830  1.7442
18512TIP3    H276952   3.167   5.106   3.443  1.7074  0.4572  1.0873
18513TIP3   OH276953   1.740   5.605  15.180 -0.5656 -0.6463 -0.0104
18513TIP3    H176954   1.751   5.537  15.247 -0.8740  1.1493  1.9348
18513TIP3    H276955   1.725   5.685  15.230  2.7221  1.4202 -2.1601
18514TIP3   OH276956   3.838   3.417  10.501 -0.3888 -0.2629  0.0757
18514TIP3    H176957   3.748   3.393  10.520  0.0348 -1.1503  1.0107
18514TIP3    H276958   3.840   3.513  10.510 -1.6016 -0.0586 -1.5807
18515TIP3   OH276959   2.505   0.672  13.317  0.2324  0.1459  0.0957
18515TIP3    H176960   2.456   0.755  13.319 -0.2696 -0.1429 -0.1030
18515TIP3    H276961   2.593   0.696  13.346 -0.5811  0.2815  2.5721
18516TIP3   OH276962   1.995   4.651   5.539 -0.6996  0.2181 -0.4424
18516TIP3    H176963   1.987   4.661   5.634  0.2387  0.0420 -0.3481
18516TIP3    H276964   1.928   4.586   5.516 -2.2531  1.6658 -0.1681
18517TIP3   OH276965   3.949   0.261  12.690  0.3194 -0.3427 -0.3541
18517TIP3    H176966   3.884   0.250  12.759 -1.1306 -2.0667 -1.9530
18517TIP3    H276967   4.033   0.262  12.736 -0.7073 -0.0948  1.5469
18518TIP3   OH276968   2.746   4.868   2.834 -0.4180  0.0801  0.0830
18518TIP3    H176969   2.757   4.776   2.809 -0.5325  0.5321 -1.7050
18518TIP3    H276970   2.654   4.886   2.818 -0.5189  0.3622  0.9665
18519TIP3   OH276971   6.727   2.623   4.420 -0.5658  0.0096 -0.1528
18519TIP3    H176972   6.737   2.672   4.502 -3.0829 -2.7928  1.9114
18519TIP3    H276973   6.638   2.643   4.391 -0.1768 -0.1425 -1.5034
18520TIP3   OH276974   0.318   6.520  15.543 -0.5385  0.1568  0.3180
18520TIP3    H176975   0.411   6.543  15.543 -0.8116  1.3392  0.6696
18520TIP3    H276976   0.299   6.493  15.453 -0.4075  2.3114 -0.3913
18521TIP3   OH276977   5.563   0.227   6.196  0.0726 -0.2854 -0.3398
18521TIP3    H176978   5.540   0.134   6.202 -1.2626  0.0481 -0.1747
18521TIP3    H276979   5.544   0.251   6.106  0.7797 -0.2670 -0.4847
18522TIP3   OH276980   6.641   2.024   6.456 -0.7603 -0.1645  0.6343
18522TIP3    H176981   6.595   1.949   6.493 -0.7750 -1.1499 -1.2981
18522TIP3    H276982   6.733   2.007   6.473 -0.8107 -0.2877  0.7817
18523TIP3   OH276983   4.512   1.555  15.537  0.1008  0.0839  0.7019
18523TIP3    H176984   4.440   1.539  15.476  1.6909  0.2178 -1.2974
18523TIP3    H276985   4.499   1.644  15.567 -0.4648  0.1770  0.1964
18524TIP3   OH276986   3.300   4.053  13.016  0.4963 -0.3724 -0.0371
18524TIP3    H176987   3.302   4.054  13.112 -0.6318 -0.5634 -0.0064
18524TIP3    H276988   3.210   4.030  12.994 -0.0963  2.7620 -1.1799
18525TIP3   OH276989   2.165   5.777   4.923 -0.4168 -0.5592  0.0398
18525TIP3    H176990   2.160   5.729   4.840  1.0759 -1.2058  0.3056
18525TIP3    H276991   2.075   5.804   4.941 -0.7760 -0.5279 -1.7272
18526TIP3   OH276992   5.637   5.203  11.481 -0.0408 -0.2900 -0.5177
18526TIP3    H176993   5.661   5.216  11.389  0.2513 -1.0224 -0.5506
18526TIP3    H276994   5.711   5.239  11.530  0.1350 -0.5596 -0.5822
18527TIP3   OH276995   2.440   1.631  12.403  0.0677 -0.0746  0.0312
18527TIP3    H176996   2.500   1.557  12.414  0.4825  0.2085 -0.3580
18527TIP3    H276997   2.428   1.638  12.308 -0.9877 -0.4591  0.1228
18528TIP3   OH276998   4.932   4.743  15.909 -0.1325 -0.0623 -0.2089
18528TIP3    H176999   5.025   4.721  15.918 -0.6527 -1.5884  1.6853
18528TIP3    H277000   4.886   4.660  15.921 -1.8313  0.9119  0.2514
18529TIP3   OH277001   2.748   0.234  16.307  0.3191 -0.7952 -0.0240
18529TIP3    H177002   2.795   0.270  16.231 -1.0790 -1.1237 -1.0813
18529TIP3    H277003   2.686   0.303  16.332  0.8294 -0.6589  0.8763
18530TIP3   OH277004   2.180   0.028  14.206  0.3713  0.2277 -0.7873
18530TIP3    H177005   2.253  -0.029  14.232  0.0765 -0.4421 -1.4295
18530TIP3    H277006   2.190   0.038  14.112  1.0947  2.1904 -0.5319
18531TIP3   OH277007   4.491   2.975  15.586 -0.1542  0.5098 -0.2821
18531TIP3    H177008   4.579   2.990  15.621 -0.8326  1.6158  0.9940
18531TIP3    H277009   4.452   3.062  15.579 -1.0214  0.0650 -1.2168
18532TIP3   OH277010   0.105   1.928  16.195  0.0958 -0.2661 -0.0679
18532TIP3    H177011   0.086   1.835  16.206  0.8617 -0.7670 -2.6085
18532TIP3    H277012   0.160   1.932  16.117 -0.1168  2.3513 -0.1283
18533TIP3   OH277013   5.203   4.530   2.423 -0.4887 -0.5916 -0.2862
18533TIP3    H177014   5.201   4.458   2.359 -0.7338 -0.8161 -0.0304
18533TIP3    H277015   5.111   4.548   2.441 -0.4236 -0.3291 -0.2199
18534TIP3   OH277016   5.063   6.427  12.452 -0.7376 -0.2659 -1.0181
18534TIP3    H177017   5.153   6.423  12.485 -0.7353  0.5204 -0.9194
18534TIP3    H277018   5.072   6.447  12.359 -0.8132 -0.1346 -0.9970
18535TIP3   OH277019   0.526   2.340  16.831  0.1489  0.0146 -0.3272
18535TIP3    H177020   0.549   2.291  16.752 -0.6894  0.3681 -0.7913
18535TIP3    H277021   0.502   2.273  16.895  1.7423 -0.3274 -0.0512
18536TIP3   OH277022   3.362   2.150  14.411  0.1413 -0.3063 -0.6459
18536TIP3    H177023   3.398   2.142  14.499 -0.9175  1.2785 -0.0530
18536TIP3    H277024   3.275   2.111  14.417 -0.1016  0.1950 -0.8901
18537TIP3   OH277025   5.883   0.941   1.513  0.1506 -0.4121 -1.0824
18537TIP3    H177026   5.798   0.969   1.547 -0.3859  0.4228 -3.0394
18537TIP3    H277027   5.935   0.923   1.591 -1.2263  0.8599  0.1607
18538TIP3   OH277028   4.956   2.509   5.711  0.2687 -0.2105 -0.3228
18538TIP3    H177029   4.961   2.551   5.625  0.8575 -1.7881 -1.0888
18538TIP3    H277030   4.864   2.516   5.735  0.7199  3.5618  0.6712
18539TIP3   OH277031   3.766   2.134   3.601  0.4257  0.0199 -0.4797
18539TIP3    H177032   3.711   2.075   3.550  1.8211  0.6637 -2.7919
18539TIP3    H277033   3.705   2.188   3.650 -0.9285 -1.0712 -0.9411
18540TIP3   OH277034   3.020   3.372   5.065 -0.4130  0.0062  0.2369
18540TIP3    H177035   3.089   3.369   5.131 -1.6859  1.0240  1.6516
18540TIP3    H277036   3.052   3.316   4.994  2.6068  1.7464  0.1230
18541TIP3   OH277037   0.720   4.254  13.776 -0.1404 -0.1813 -0.2342
18541TIP3    H177038   0.764   4.301  13.705 -2.8852  1.0320 -1.2090
18541TIP3    H277039   0.685   4.323  13.832 -2.0439 -1.0628 -0.2992
18542TIP3   OH277040   0.067   1.974   5.792  0.4653 -0.7255 -0.6207
18542TIP3    H177041   0.084   1.978   5.698  2.5151 -0.1200 -0.2613
18542TIP3    H277042   0.132   1.911   5.825 -0.0971 -0.7714  0.4078
18543TIP3   OH277043   1.874   6.388  12.546 -0.1985 -0.6771 -0.0988
18543TIP3    H177044   1.935   6.326  12.585 -0.2757 -0.2450  0.7129
18543TIP3    H277045   1.788   6.359  12.576 -0.4986 -1.8211 -1.9628
18544TIP3   OH277046   2.560   1.113   0.994 -0.2411 -0.2743  0.5040
18544TIP3    H177047   2.483   1.118   1.051 -0.2229  0.7054  0.4553
18544TIP3    H277048   2.618   1.183   1.025 -0.3178  0.4065 -0.8273
18545TIP3   OH277049   3.717   0.708   1.800 -0.2434  0.1169 -0.0880
18545TIP3    H177050   3.682   0.759   1.873  2.3297  2.6175 -0.4968
18545TIP3    H277051   3.706   0.617   1.826 -1.4652  0.9220  2.3746
18546TIP3   OH277052   3.404   5.888  16.328 -0.3196 -0.0275 -0.0766
18546TIP3    H177053   3.478   5.901  16.387 -0.3301  3.2527 -0.7129
18546TIP3    H277054   3.443   5.865  16.244  0.1225  3.0487 -0.7693
18547TIP3   OH277055   0.909   6.310   4.383  0.4048  0.0527  0.5774
18547TIP3    H177056   0.840   6.305   4.450  0.7450  1.3402  1.0199
18547TIP3    H277057   0.929   6.218   4.363 -1.5804 -0.3367  0.2943
18548TIP3   OH277058   5.084   3.885  16.795 -0.0648  0.2653 -0.3265
18548TIP3    H177059   5.171   3.919  16.817 -0.4752  2.0840 -1.3536
18548TIP3    H277060   5.030   3.905  16.872  0.0850  0.4580 -0.2715
18549TIP3   OH277061   0.306   2.947   5.111  0.2225  0.1297  0.1799
18549TIP3    H177062   0.313   2.875   5.048 -0.7104  1.1277 -1.0792
18549TIP3    H277063   0.309   2.904   5.197 -0.5557 -1.4381 -0.5579
18550TIP3   OH277064   1.050   5.497   4.899 -0.3566 -0.2859 -0.5967
18550TIP3    H177065   1.036   5.415   4.946  0.0089  0.2872  0.5394
18550TIP3    H277066   0.962   5.527   4.876 -0.5276 -0.7154 -0.5049
18551TIP3   OH277067   1.963   3.032   4.157 -0.4837 -1.0404  0.0034
18551TIP3    H177068   1.936   2.984   4.235 -1.5353  0.3761  0.5479
18551TIP3    H277069   2.001   2.966   4.100 -0.4151 -2.2302  1.3938
18552TIP3   OH277070   2.641   5.073   1.943  0.1812  0.4401  0.5342
18552TIP3    H177071   2.590   4.991   1.946 -1.5010  1.4492  0.2283
18552TIP3    H277072   2.730   5.045   1.924 -0.5626 -1.2576 -0.5543
18553TIP3   OH277073   5.547   5.840  14.406 -0.5445 -0.1704  0.7017
18553TIP3    H177074   5.515   5.903  14.471 -1.2526  0.5375 -0.3247
18553TIP3    H277075   5.469   5.792  14.378 -0.3591  0.0191 -0.1602
18554TIP3   OH277076   0.514   1.280  13.180 -0.4659 -0.2350  0.0348
18554TIP3    H177077   0.544   1.256  13.267 -0.2042  2.2625  0.6635
18554TIP3    H277078   0.438   1.336  13.195  1.0765  2.2990 -1.2290
18555TIP3   OH277079   4.430   0.919  13.608  0.0636 -0.8311  0.4730
18555TIP3    H177080   4.473   0.923  13.694  0.2120  1.1691  0.3342
18555TIP3    H277081   4.408   1.010  13.588 -1.9068 -1.5272 -0.6581
18556TIP3   OH277082   5.390   0.513   5.289  0.0451  0.1128  0.4030
18556TIP3    H177083   5.301   0.516   5.253  0.3116 -0.1713 -0.2917
18556TIP3    H277084   5.407   0.420   5.302  0.1893  0.1764  0.6677
18557TIP3   OH277085   0.339   5.570   2.962 -0.5305 -0.4767 -0.4754
18557TIP3    H177086   0.270   5.551   3.025  1.2360 -1.3202  1.2544
18557TIP3    H277087   0.355   5.664   2.971  0.1925 -0.7155  0.8610
18558TIP3   OH277088   0.621   6.354   6.044 -0.3377  0.2655  0.2159
18558TIP3    H177089   0.577   6.383   5.964 -0.1225 -0.9589 -0.3558
18558TIP3    H277090   0.555   6.366   6.113 -0.9703  0.0848 -0.3542
18559TIP3   OH277091   1.793   1.433  13.200  0.1710  0.0300 -0.2203
18559TIP3    H177092   1.724   1.462  13.141 -1.2961  0.0862  1.4636
18559TIP3    H277093   1.752   1.366  13.255  1.6092 -0.3406  0.4521
18560TIP3   OH277094   1.358   3.009   1.490 -0.4931 -0.2255 -0.2496
18560TIP3    H177095   1.422   2.938   1.492  0.6846  0.8456  0.5012
18560TIP3    H277096   1.380   3.064   1.565 -1.0129  1.2682 -1.1642
18561TIP3   OH277097   0.627   1.590   4.549  0.2110 -0.3010  0.2347
18561TIP3    H177098   0.561   1.522   4.536 -0.1197  0.4882 -2.3691
18561TIP3    H277099   0.710   1.544   4.544 -0.0481 -0.7179 -0.2742
18562TIP3   OH277100   2.281   2.136  16.465  0.0055 -0.1943  0.0724
18562TIP3    H177101   2.323   2.221  16.466 -3.4194  1.5749  0.8233
18562TIP3    H277102   2.253   2.123  16.374 -1.4413  0.5645  0.3852
18563TIP3   OH277103   4.381   3.485  15.030  0.2528 -0.1663  0.2072
18563TIP3    H177104   4.336   3.568  15.046 -0.2869 -0.3955 -0.0997
18563TIP3    H277105   4.337   3.423  15.088 -1.1868 -0.8280 -1.5621
18564TIP3   OH277106   1.922   6.616   1.835 -0.0283 -0.5390 -0.0552
18564TIP3    H177107   2.002   6.632   1.785  0.0574  0.6202  0.4214
18564TIP3    H277108   1.864   6.688   1.809 -0.9363 -1.3964 -0.4315
18565TIP3   OH277109   4.859   5.902  16.551 -0.0097  0.3823  0.4783
18565TIP3    H177110   4.770   5.879  16.580 -0.1104  0.7578  0.4734
18565TIP3    H277111   4.846   5.978  16.494  0.2640  0.0986  0.0357
18566TIP3   OH277112   5.076   3.976  13.719 -0.1138  0.0229 -0.6768
18566TIP3    H177113   5.014   4.048  13.731  0.1951  0.1857 -0.0112
18566TIP3    H277114   5.091   3.973  13.625 -0.8309  0.2347 -0.8015
18567TIP3   OH277115   1.733   1.183  13.644  0.1155 -0.3277  1.0573
18567TIP3    H177116   1.719   1.111  13.582  1.9305 -0.4031  0.7200
18567TIP3    H277117   1.813   1.160  13.691  0.2757  1.0739  1.5010
18568TIP3   OH277118   3.034   1.702  13.082 -0.6206  0.3766 -0.2565
18568TIP3    H177119   3.067   1.627  13.032 -2.5986 -0.2885 -0.5986
18568TIP3    H277120   3.095   1.711  13.155 -0.9909 -2.2941  0.4249
18569TIP3   OH277121   0.788   6.751   2.384  0.4939  0.2168  0.1579
18569TIP3    H177122   0.848   6.702   2.440  1.3856  0.2196 -0.7702
18569TIP3    H277123   0.786   6.702   2.302 -0.3531  0.5213 -0.0090
18570TIP3   OH277124   5.713   4.628   0.185 -0.0051 -0.3119  0.6196
18570TIP3    H177125   5.730   4.685   0.110  0.9034 -1.6616 -0.2250
18570TIP3    H277126   5.630   4.659   0.221 -1.2233 -0.5973 -1.8686
18571TIP3   OH277127   4.725   5.730  15.514  0.2474  0.7357 -0.3148
18571TIP3    H177128   4.803   5.716  15.461 -0.4779 -0.5447 -1.0565
18571TIP3    H277129   4.675   5.796  15.466 -1.4959 -2.0204 -2.5014
18572TIP3   OH277130   1.606   4.753   4.532 -0.1908 -0.1541  0.1006
18572TIP3    H177131   1.525   4.751   4.584 -0.4096 -2.8999 -0.2850
18572TIP3    H277132   1.576   4.754   4.441  0.2140  2.3712 -0.0395
18573TIP3   OH277133   3.184   6.354  15.641  0.1915 -0.1632  0.3720
18573TIP3    H177134   3.161   6.263  15.622 -0.3466  0.0438  0.0226
18573TIP3    H277135   3.157   6.366  15.732  0.1598 -0.3216  0.3844
18574TIP3   OH277136   2.569   3.031  16.325  0.0057  0.2237  0.4708
18574TIP3    H177137   2.579   3.117  16.367 -0.6169  0.3835  0.2835
18574TIP3    H277138   2.528   3.049  16.241  1.4356 -0.0808 -0.3194
18575TIP3   OH277139   4.791   2.306   2.041  0.3126 -0.2277  0.1920
18575TIP3    H177140   4.852   2.259   1.985  0.5222  0.7144 -0.3878
18575TIP3    H277141   4.704   2.278   2.011  0.4364 -3.4749  2.6607
18576TIP3   OH277142   1.263   4.792  10.802 -0.1929 -0.0296  0.7028
18576TIP3    H177143   1.200   4.736  10.757  0.3176 -0.2235  0.2249
18576TIP3    H277144   1.216   4.873  10.819 -0.6152 -0.2286  0.4762
18577TIP3   OH277145   4.140   4.584   1.519  0.4890  0.1878  0.3627
18577TIP3    H177146   4.096   4.499   1.521  1.4531 -0.4447 -2.4345
18577TIP3    H277147   4.108   4.625   1.439  3.3124  0.6036 -0.6146
18578TIP3   OH277148   2.511   2.375  13.775  0.2919 -0.0612 -0.1127
18578TIP3    H177149   2.575   2.309  13.747  0.4073 -0.0571  0.1400
18578TIP3    H277150   2.512   2.440  13.705  0.0067 -0.4456 -0.4780
18579TIP3   OH277151   5.545   1.382   3.573 -0.6391 -0.2011 -0.5520
18579TIP3    H177152   5.598   1.396   3.652 -0.9127 -0.1760 -0.3701
18579TIP3    H277153   5.460   1.354   3.607 -0.9419  0.3865 -0.8209
18580TIP3   OH277154   6.775   2.598  12.855 -0.2860  0.3607 -0.2325
18580TIP3    H177155   6.837   2.640  12.795 -0.3473  0.4353 -0.2457
18580TIP3    H277156   6.801   2.506  12.856  1.0110  0.7292  1.2522
18581TIP3   OH277157   3.281   3.130  14.524  0.5733 -0.2847  0.3595
18581TIP3    H177158   3.238   3.215  14.533 -0.2388 -0.9501  2.9534
18581TIP3    H277159   3.355   3.147  14.465 -0.1814  1.9756  0.0127
18582TIP3   OH277160   4.909   3.932   0.114  0.3653  0.1225 -0.0436
18582TIP3    H177161   4.867   3.915   0.198  0.5284  1.5902  0.3382
18582TIP3    H277162   4.882   3.858   0.059 -1.7701  0.4322  0.5493
18583TIP3   OH277163   0.139   4.230   1.906 -0.0945  0.1222 -0.2976
18583TIP3    H177164   0.082   4.301   1.935  0.5696  1.3104 -1.8200
18583TIP3    H277165   0.181   4.199   1.986 -1.0024  0.9019  0.4926
18584TIP3   OH277166   3.691   2.638   6.482 -0.3134 -0.1967  0.3623
18584TIP3    H177167   3.710   2.628   6.575 -0.0821 -1.3280  0.2012
18584TIP3    H277168   3.615   2.696   6.479 -0.1427  0.0768  1.2394
18585TIP3   OH277169   0.079   3.555   1.803  0.1690  0.7539  0.1074
18585TIP3    H177170   0.027   3.514   1.872 -0.9468 -0.1910 -1.2648
18585TIP3    H277171   0.130   3.484   1.766 -0.7490  0.8354 -1.3729
18586TIP3   OH277172   5.259   4.778  13.758  0.1334 -0.0300 -0.2117
18586TIP3    H177173   5.256   4.872  13.737  1.3921 -0.0474 -0.5084
18586TIP3    H277174   5.249   4.734  13.674  0.6636 -0.1504 -0.2119
18587TIP3   OH277175   5.759   4.924   1.688  0.3032 -0.5977 -0.2951
18587TIP3    H177176   5.808   4.967   1.759 -2.4495 -0.3654  1.5203
18587TIP3    H277177   5.748   4.993   1.622  0.1415  0.1072  0.4585
18588TIP3   OH277178   6.760   3.334  12.472 -0.0394  0.1851  0.9096
18588TIP3    H177179   6.811   3.401  12.427  2.1706 -0.2390  2.6831
18588TIP3    H277180   6.735   3.272  12.403 -2.3515  2.9199 -0.7908
18589TIP3   OH277181   2.294   1.919   4.661 -0.0214 -0.3568 -0.0656
18589TIP3    H177182   2.250   1.880   4.737 -1.3987  1.3594  0.0393
18589TIP3    H277183   2.304   2.011   4.683 -0.3786  0.1563 -1.9365
18590TIP3   OH277184   6.247   3.799   2.208 -0.3337  0.1710  0.9972
18590TIP3    H177185   6.342   3.793   2.206 -0.4152 -0.6527 -0.6360
18590TIP3    H277186   6.221   3.741   2.279  0.3484  0.0827  1.1812
18591TIP3   OH277187   6.075   5.513   1.330 -0.1722 -0.4299  0.3554
18591TIP3    H177188   6.166   5.534   1.352 -0.6664  0.2184  1.8294
18591TIP3    H277189   6.080   5.475   1.242  1.5276 -0.4629  0.4466
18592TIP3   OH277190   4.331   1.372  16.857  0.6097  0.7286 -0.2385
18592TIP3    H177191   4.301   1.360  16.767 -1.6625 -3.1579  0.9229
18592TIP3    H277192   4.424   1.348  16.855  0.2029 -0.8132 -1.3101
18593TIP3   OH277193   3.383   6.646  12.876  0.0446  0.2874  0.1613
18593TIP3    H177194   3.461   6.673  12.925  0.2697  0.3554 -0.2296
18593TIP3    H277195   3.404   6.667  12.785 -2.0454  4.1246  0.4977
18594TIP3   OH277196   4.019   5.742  15.855 -0.1042 -0.4659  0.3903
18594TIP3    H177197   4.056   5.693  15.782  0.4045 -1.6583  1.4282
18594TIP3    H277198   4.094   5.771  15.906 -0.3941  1.4895 -0.2293
18595TIP3   OH277199   5.738   0.467   5.320 -0.5799  0.0995  0.5539
18595TIP3    H177200   5.810   0.527   5.303  0.1904 -0.5308  1.5542
18595TIP3    H277201   5.726   0.470   5.415 -1.0424 -0.7385  0.5267
18596TIP3   OH277202   0.529   4.092  12.510 -0.4624  0.2676 -0.3340
18596TIP3    H177203   0.555   4.125  12.424  0.2874 -0.3686 -0.3567
18596TIP3    H277204   0.548   3.998  12.506 -1.1776  0.0931  0.2468
18597TIP3   OH277205   4.097   5.826   1.188  0.3992  0.0322 -0.2712
18597TIP3    H177206   4.017   5.774   1.183  0.8276 -0.6994  0.1992
18597TIP3    H277207   4.081   5.902   1.133 -1.2654  0.7589  1.1748
18598TIP3   OH277208   6.645   4.804  10.569  0.1740 -0.1597  0.2450
18598TIP3    H177209   6.589   4.754  10.628 -0.0524 -0.1771  0.0143
18598TIP3    H277210   6.691   4.738  10.517  0.3154 -0.1428  0.3482
18599TIP3   OH277211   6.601   1.633  16.224  0.0504 -0.9599 -0.1413
18599TIP3    H177212   6.667   1.611  16.290 -0.8533  1.4181  1.5937
18599TIP3    H277213   6.648   1.685  16.158  0.0912  0.0488  0.6801
18600TIP3   OH277214   0.906   5.642   1.464 -0.6323 -0.1347  0.0692
18600TIP3    H177215   0.873   5.562   1.507 -2.8870  0.4549 -0.4756
18600TIP3    H277216   0.933   5.613   1.377 -1.2456 -0.3689 -0.0505
18601TIP3   OH277217   0.767   4.905   0.880 -0.0495 -0.7512 -0.3995
18601TIP3    H177218   0.672   4.896   0.873 -0.0473 -1.3494  0.2821
18601TIP3    H277219   0.799   4.880   0.794 -0.4137 -2.0975 -0.1567
18602TIP3   OH277220   5.239   0.166   6.092 -0.1119  0.5826  0.5586
18602TIP3    H177221   5.175   0.235   6.108 -2.1498 -1.1970  0.3517
18602TIP3    H277222   5.242   0.116   6.174 -0.4608 -0.5062 -0.0794
18603TIP3   OH277223   0.061   1.036   4.198  0.4048 -0.0785 -0.4253
18603TIP3    H177224   0.002   1.098   4.154 -1.6170 -2.7644 -1.6572
18603TIP3    H277225   0.023   1.025   4.285  1.7032  1.6041  0.3859
18604TIP3   OH277226   2.920   6.410   4.863  0.2034  0.3174 -0.0941
18604TIP3    H177227   2.977   6.480   4.895 -0.6870  0.9633  0.1094
18604TIP3    H277228   2.835   6.452   4.851 -0.1495 -0.5516 -0.7322
18605TIP3   OH277229   1.198   1.745   1.166 -0.0430  0.2398  0.1375
18605TIP3    H177230   1.185   1.768   1.073  1.4461 -3.3863 -1.0488
18605TIP3    H277231   1.125   1.686   1.186 -0.0961  0.6458  1.1848
18606TIP3   OH277232   5.027   4.696  16.301  0.8313  0.0392  0.1235
18606TIP3    H177233   5.018   4.781  16.259 -1.6299 -0.8346 -1.2001
18606TIP3    H277234   5.050   4.636  16.230  0.7889 -0.7134  0.7360
18607TIP3   OH277235   6.249   2.931  16.448  0.5305  0.4308  0.1276
18607TIP3    H177236   6.297   2.856  16.412 -0.2987  0.1917 -0.5035
18607TIP3    H277237   6.214   2.976  16.371 -0.1201  0.6956  0.5733
18608TIP3   OH277238   6.518   0.443   6.553 -0.0713  0.3609  0.4351
18608TIP3    H177239   6.430   0.444   6.591  0.4292 -2.4552  1.7962
18608TIP3    H277240   6.559   0.523   6.586  0.4180 -2.0129  6.2433
18609TIP3   OH277241   3.063   3.335   2.781 -0.1066 -0.2439 -0.7576
18609TIP3    H177242   2.970   3.331   2.760 -0.5225  0.6997  0.8554
18609TIP3    H277243   3.078   3.426   2.808  0.5245 -1.1868  2.2886
18610TIP3   OH277244   4.640   6.014   5.565 -0.0648 -0.3761  0.0871
18610TIP3    H177245   4.551   6.047   5.557 -0.0915 -0.4426  0.1196
18610TIP3    H277246   4.648   5.988   5.657 -0.3168 -1.2574 -0.1412
18611TIP3   OH277247   3.298   2.358   3.120 -0.0307 -0.4852 -0.3717
18611TIP3    H177248   3.322   2.266   3.122 -1.1726 -0.7716  1.0921
18611TIP3    H277249   3.205   2.359   3.143  0.2772  1.1235  0.9166
18612TIP3   OH277250   6.061   0.320  13.086  0.1227  0.2765  0.3420
18612TIP3    H177251   5.997   0.390  13.096 -2.6076 -1.7247 -2.2126
18612TIP3    H277252   6.009   0.239  13.081  2.8262 -1.4786 -1.2986
18613TIP3   OH277253   2.587   4.420  12.776  0.4836  0.2355 -0.7485
18613TIP3    H177254   2.493   4.406  12.786  0.8840 -0.5448  2.4713
18613TIP3    H277255   2.618   4.343  12.729 -0.4485  0.4715 -1.7818
18614TIP3   OH277256   5.640   3.180   3.208  0.4441 -0.8909 -0.3314
18614TIP3    H177257   5.555   3.213   3.181  0.5575 -0.2696  0.0741
18614TIP3    H277258   5.657   3.223   3.292  0.7156 -1.7594  0.0643
18615TIP3   OH277259   1.279   2.498   3.128 -0.2014  0.5698 -0.1642
18615TIP3    H177260   1.255   2.406   3.117  0.5347  0.0610  2.1990
18615TIP3    H277261   1.303   2.527   3.040 -0.4171 -1.5103 -0.9341
18616TIP3   OH277262   1.778   1.127   4.036 -0.1269  0.2804 -0.0534
18616TIP3    H177263   1.751   1.120   4.128  1.5337  0.2764  0.4530
18616TIP3    H277264   1.725   1.061   3.991  1.3308 -2.0033  1.4539
18617TIP3   OH277265   2.767   6.367  13.121  0.0605 -0.0503 -0.6779
18617TIP3    H177266   2.749   6.402  13.034  1.0312  0.5463 -0.6519
18617TIP3    H277267   2.754   6.441  13.180  1.7533  0.1895 -0.5769
18618TIP3   OH277268   0.389   1.842   3.908 -0.0398 -0.4425 -0.8208
18618TIP3    H177269   0.347   1.817   3.991 -1.2355 -1.2463 -1.6461
18618TIP3    H277270   0.440   1.765   3.883 -0.4769 -0.5639 -1.3326
18619TIP3   OH277271   5.424   1.277   4.189  0.6730  0.0746  0.0428
18619TIP3    H177272   5.496   1.261   4.128  1.5281 -0.9880  1.3029
18619TIP3    H277273   5.449   1.356   4.236 -0.6860  1.7656 -1.9590
18620TIP3   OH277274   6.429   1.343   4.787 -0.1173  0.3255 -0.7245
18620TIP3    H177275   6.468   1.301   4.710  0.1865 -0.0201 -0.3870
18620TIP3    H277276   6.399   1.271   4.841 -0.2826  0.5658 -0.4939
18621TIP3   OH277277   2.826   5.559   0.373  0.1839  0.1311  0.7715
18621TIP3    H177278   2.896   5.502   0.341  0.2022  0.7390 -0.3027
18621TIP3    H277279   2.746   5.507   0.361  0.2813  0.0323  0.5445
18622TIP3   OH277280   3.014   5.393   4.804  0.3892 -0.2768 -0.1746
18622TIP3    H177281   2.925   5.428   4.801  1.3582  2.4275  0.8396
18622TIP3    H277282   3.067   5.466   4.835  2.9384 -1.9234 -0.5194
18623TIP3   OH277283   3.012   5.598   0.756 -0.1028  0.4109  0.2210
18623TIP3    H177284   2.921   5.618   0.777 -0.8711  0.5353 -2.9517
18623TIP3    H277285   3.007   5.521   0.699  1.6108  1.6983 -1.7179
18624TIP3   OH277286   4.947   5.553   1.484 -0.1720  0.2400  0.5177
18624TIP3    H177287   4.998   5.489   1.533  0.0834  1.4159  1.8161
18624TIP3    H277288   5.011   5.605   1.436 -0.4224 -0.9225 -1.1233
18625TIP3   OH277289   4.082   2.659  14.293 -0.4757 -0.8923 -0.4948
18625TIP3    H177290   4.111   2.717  14.363  0.7200 -1.5026 -0.4758
18625TIP3    H277291   4.002   2.700  14.260 -0.8108 -0.3534  0.9157
18626TIP3   OH277292   3.219   1.393   3.892  0.2539  1.1833  0.0518
18626TIP3    H177293   3.144   1.337   3.867  0.1541  1.2781  0.1403
18626TIP3    H277294   3.245   1.435   3.810 -0.5649  2.0883  0.2536
18627TIP3   OH277295   4.972   0.018  12.605  0.1614 -0.2811 -0.3466
18627TIP3    H177296   4.907   0.072  12.560  1.0875  0.5407 -0.7241
18627TIP3    H277297   4.970   0.049  12.695  2.1555  1.8880 -0.9760
18628TIP3   OH277298   1.373   1.823  13.598  0.7336 -0.5522  0.4923
18628TIP3    H177299   1.361   1.762  13.526  0.6265 -1.2231  1.0697
18628TIP3    H277300   1.286   1.834  13.635  0.7515 -0.0384  0.3850
18629TIP3   OH277301   0.303   1.901  10.717 -0.1328 -0.4116  0.3918
18629TIP3    H177302   0.377   1.960  10.730 -0.1611 -0.5543  1.2123
18629TIP3    H277303   0.230   1.958  10.692 -0.8625  0.2156  3.7745
18630TIP3   OH277304   6.566   3.489  11.189  0.4824  0.6076  0.2033
18630TIP3    H177305   6.629   3.561  11.190 -0.6701  1.6336  0.6024
18630TIP3    H277306   6.481   3.532  11.194 -0.3395 -0.6614 -2.0778
18631TIP3   OH277307   3.255   4.521   6.268  0.4526  0.1267  0.1025
18631TIP3    H177308   3.337   4.491   6.228 -1.1833  0.6015 -3.8285
18631TIP3    H277309   3.269   4.614   6.284  1.0222 -0.0037  0.3774
18632TIP3   OH277310   5.788   1.760   6.040  0.4636 -0.1361  0.2472
18632TIP3    H177311   5.749   1.696   5.982  0.9440  0.6556 -0.9697
18632TIP3    H277312   5.770   1.727   6.128 -0.5669 -1.1637 -0.3390
18633TIP3   OH277313   5.086   0.114  15.880  0.0528  0.0336 -0.0865
18633TIP3    H177314   5.173   0.096  15.916  0.2473 -0.2501 -0.7070
18633TIP3    H277315   5.093   0.092  15.787 -1.0281 -1.1832  0.1077
18634TIP3   OH277316   0.697   3.487  14.876  0.2484  0.1611 -0.2793
18634TIP3    H177317   0.745   3.568  14.891 -1.0640  0.9375 -0.2309
18634TIP3    H277318   0.723   3.431  14.950  0.9217  0.6343 -0.1455
18635TIP3   OH277319   4.393   2.997  12.157 -0.1745  0.3611 -0.3653
18635TIP3    H177320   4.361   2.976  12.245  0.4561  2.0203  0.2674
18635TIP3    H277321   4.478   2.953  12.152  0.2488  1.1131  0.2264
18636TIP3   OH277322   3.675   5.719  16.605  0.1013  0.4130 -0.0173
18636TIP3    H177323   3.696   5.812  16.595 -1.3367  0.6559 -0.9398
18636TIP3    H277324   3.739   5.674  16.551  2.2800  0.6932  2.2682
18637TIP3   OH277325   2.251   5.642  17.233  0.5718  0.0656 -0.0710
18637TIP3    H177326   2.252   5.570  17.296 -2.5304 -0.0978 -0.1284
18637TIP3    H277327   2.238   5.599  17.148 -2.5416  0.7468  0.0356
18638TIP3   OH277328   6.346   0.643   1.065 -0.0159  0.4187  0.4866
18638TIP3    H177329   6.309   0.627   1.152  0.5752 -1.3747  0.4207
18638TIP3    H277330   6.372   0.735   1.067 -0.6470  0.5784  1.9706
18639TIP3   OH277331   2.577   3.536  12.731  0.3767  0.1739  0.7813
18639TIP3    H177332   2.508   3.474  12.705  0.2509  0.5428  0.2024
18639TIP3    H277333   2.539   3.622  12.711  0.4875  0.4414  1.7262
18640TIP3   OH277334   2.934   1.387   5.103  0.5687  0.0724 -0.5623
18640TIP3    H177335   2.855   1.419   5.061  0.8493  0.7135 -0.6094
18640TIP3    H277336   2.919   1.293   5.115 -0.9484  0.5163  1.1173
18641TIP3   OH277337   3.260   1.119   5.542 -0.3807  0.5074  0.6722
18641TIP3    H177338   3.323   1.187   5.520 -0.3552  0.7417  1.4706
18641TIP3    H277339   3.176   1.153   5.511  0.0004 -0.2033 -1.2440
18642TIP3   OH277340   5.445   1.570  11.627  0.7934 -0.2284  0.5955
18642TIP3    H177341   5.361   1.531  11.653  0.8976 -0.8977 -0.0702
18642TIP3    H277342   5.441   1.574  11.532  1.6395 -0.5166  0.5536
18643TIP3   OH277343   5.823   5.435   6.646  0.0688  0.1834 -0.5059
18643TIP3    H177344   5.799   5.353   6.689 -0.0486 -0.3624 -1.6028
18643TIP3    H277345   5.832   5.412   6.553  0.8453  1.2345 -0.7012
18644TIP3   OH277346   6.371   0.160   3.441  0.1732 -0.5054  0.0518
18644TIP3    H177347   6.284   0.198   3.425  0.1388 -0.7162 -0.2855
18644TIP3    H277348   6.418   0.174   3.359 -0.3095 -2.4322 -0.5879
18645TIP3   OH277349   1.115   5.776  14.734 -0.6246  0.2815  0.1127
18645TIP3    H177350   1.043   5.799  14.676 -1.3260 -0.2759  0.7479
18645TIP3    H277351   1.076   5.774  14.821  0.1749  0.0576  0.4738
18646TIP3   OH277352   4.157   4.589   0.486  0.1550 -0.2695 -0.2629
18646TIP3    H177353   4.062   4.596   0.479  0.1251  0.0752  0.4204
18646TIP3    H277354   4.189   4.594   0.396 -0.2857  2.2205 -0.3165
18647TIP3   OH277355   2.458   0.423  15.585  0.2768  0.2255  0.3873
18647TIP3    H177356   2.533   0.421  15.644 -0.1755 -2.3557  0.9355
18647TIP3    H277357   2.492   0.395  15.501  0.0625 -0.4203  0.5091
18648TIP3   OH277358   4.547   2.635  14.428  0.3071 -0.1178 -0.0968
18648TIP3    H177359   4.624   2.619  14.483  1.0731  1.0529 -0.7946
18648TIP3    H277360   4.476   2.651  14.490  0.4938 -1.7768  0.5600
18649TIP3   OH277361   2.205   6.368   2.187 -0.5975 -0.9646  0.2619
18649TIP3    H177362   2.153   6.446   2.206 -1.4461 -1.0964 -1.4383
18649TIP3    H277363   2.143   6.307   2.147  0.0450 -2.5436  1.6074
18650TIP3   OH277364   3.620   2.714  15.863 -0.0380 -0.4194  0.4464
18650TIP3    H177365   3.624   2.624  15.897  2.2817 -0.2556  0.6604
18650TIP3    H277366   3.535   2.747  15.894 -0.7115 -2.3623  0.7635
18651TIP3   OH277367   1.455   1.782  13.230  0.0304  0.2138 -0.6628
18651TIP3    H177368   1.446   1.687  13.224  0.3055  0.1722 -0.4474
18651TIP3    H277369   1.493   1.797  13.317  1.3556  0.4219 -1.2534
18652TIP3   OH277370   0.499   5.508   2.329 -0.2032  0.2970 -0.6754
18652TIP3    H177371   0.518   5.558   2.408 -2.6747  0.7844 -0.3537
18652TIP3    H277372   0.475   5.421   2.361 -1.1376  0.4746 -0.8815
18653TIP3   OH277373   1.466   1.545   6.521  0.1292 -0.3689  0.0373
18653TIP3    H177374   1.547   1.525   6.475  0.0596  1.5371 -0.9460
18653TIP3    H277375   1.428   1.459   6.541  1.2443 -1.2374 -1.5179
18654TIP3   OH277376   0.309   5.069   3.272 -0.5325  0.2844 -0.5217
18654TIP3    H177377   0.381   5.037   3.218 -0.6651 -1.2827  0.1989
18654TIP3    H277378   0.267   5.137   3.219  1.5424  1.3041 -0.8937
18655TIP3   OH277379   6.749   5.242   1.415 -0.8449  0.3828 -0.0513
18655TIP3    H177380   6.733   5.321   1.363 -1.4001  0.8303  0.7861
18655TIP3    H277381   6.836   5.212   1.389 -0.6590  1.2396 -0.4064
18656TIP3   OH277382   4.357   4.058   6.002 -0.0842  0.2923 -0.0645
18656TIP3    H177383   4.373   4.151   6.022 -0.6760  0.3644  0.0703
18656TIP3    H277384   4.281   4.035   6.054 -0.3066 -0.1089 -0.5682
18657TIP3   OH277385   5.690   2.671   6.244  0.2538 -0.4572 -0.1091
18657TIP3    H177386   5.601   2.645   6.268  0.1189 -1.8604 -1.9833
18657TIP3    H277387   5.678   2.727   6.167  1.0939 -2.8026 -2.0164
18658TIP3   OH277388   5.628   4.162   3.057 -0.5162  0.4380 -0.4147
18658TIP3    H177389   5.686   4.088   3.041  0.6861  1.4901 -1.0661
18658TIP3    H277390   5.686   4.238   3.056 -1.6480  1.3357  0.7794
18659TIP3   OH277391   0.630   0.916   1.244 -0.0776 -0.3506 -0.0822
18659TIP3    H177392   0.617   0.982   1.312  1.4956 -0.1550  0.0440
18659TIP3    H277393   0.546   0.870   1.239 -0.6233  0.5008  1.0584
18660TIP3   OH277394   5.009   3.621  11.616  0.1364 -0.0006 -0.7608
18660TIP3    H177395   4.919   3.615  11.647 -0.7143 -2.5341 -3.4501
18660TIP3    H277396   5.063   3.603  11.693 -1.7104 -0.4438  0.4553
18661TIP3   OH277397   5.162   5.391   1.510  0.6311  0.0193  0.1751
18661TIP3    H177398   5.209   5.358   1.587  0.1532  2.4937  1.5908
18661TIP3    H277399   5.231   5.406   1.445  1.1066 -1.5783  0.2941
18662TIP3   OH277400   4.706   3.813   5.154 -0.1862  0.3211 -0.1959
18662TIP3    H177401   4.706   3.790   5.247 -2.3489 -2.3329 -0.7786
18662TIP3    H277402   4.790   3.780   5.121  1.2427  2.5863  1.0528
18663TIP3   OH277403   1.015   5.236   3.947 -0.4209 -0.8228  0.8458
18663TIP3    H177404   1.049   5.303   3.888 -2.4024 -1.2340 -0.8145
18663TIP3    H277405   1.042   5.265   4.034 -1.1368  2.0872  0.1491
18664TIP3   OH277406   5.666   4.366   1.692 -0.2160 -0.2154 -0.0008
18664TIP3    H177407   5.599   4.425   1.726  0.9213  1.3608 -0.4845
18664TIP3    H277408   5.681   4.304   1.764  1.0969  2.1842  1.8755
18665TIP3   OH277409   2.016   4.425   0.548  0.8072 -0.4336 -0.4726
18665TIP3    H177410   2.106   4.442   0.574  0.9624 -1.3777 -0.3799
18665TIP3    H277411   1.994   4.340   0.588  0.2037 -0.6765 -1.2835
18666TIP3   OH277412   3.570   3.287  11.992 -0.5461  0.0397  0.0395
18666TIP3    H177413   3.581   3.379  12.015  0.5194 -0.4934  1.7452
18666TIP3    H277414   3.500   3.286  11.927 -1.7712  1.8729  1.3126
18667TIP3   OH277415   0.096   2.189   1.796  0.3739  0.7224 -0.1564
18667TIP3    H177416   0.076   2.135   1.872 -1.1957  2.5170  0.7495
18667TIP3    H277417   0.183   2.161   1.768 -0.2459 -1.9776  0.5035
18668TIP3   OH277418   4.013   6.032  15.679 -0.2425  0.2056  0.1715
18668TIP3    H177419   3.931   5.981  15.679 -0.9959  1.3849  1.2547
18668TIP3    H277420   4.047   6.022  15.768 -0.7580  2.1560  0.6000
18669TIP3   OH277421   6.534   2.262   4.004 -0.1572 -0.2248  0.2597
18669TIP3    H177422   6.542   2.357   4.008 -0.0752 -0.2923  2.1961
18669TIP3    H277423   6.443   2.245   4.029  0.3563 -0.7447  1.8374
18670TIP3   OH277424   1.959   6.529   2.759  0.2120  0.2485 -0.0250
18670TIP3    H177425   1.872   6.567   2.744 -0.1871 -0.0879  1.3755
18670TIP3    H277426   1.949   6.477   2.838  1.6048 -0.1035 -0.0721
18671TIP3   OH277427   4.930   1.210  16.644 -0.0549 -0.2452 -0.2417
18671TIP3    H177428   4.843   1.246  16.626  0.0803 -0.7750 -2.0186
18671TIP3    H277429   4.942   1.142  16.578  0.9833 -1.4089  1.1031
18672TIP3   OH277430   1.723   6.551  11.940 -0.8954  0.0165 -0.5674
18672TIP3    H177431   1.806   6.533  11.983  0.1753  1.3358 -2.0121
18672TIP3    H277432   1.672   6.599  12.006  0.2159  0.8446 -0.2840
18673TIP3   OH277433   6.440   5.061  13.310 -0.2706  0.1380  0.0663
18673TIP3    H177434   6.424   5.014  13.393  0.4407  0.4593  0.3875
18673TIP3    H277435   6.508   5.124  13.332 -0.6163  0.7301 -0.5895
18674TIP3   OH277436   4.576   3.269  13.762  0.0929  0.1174 -0.1915
18674TIP3    H177437   4.583   3.288  13.669 -0.9409  0.2704 -0.2500
18674TIP3    H277438   4.536   3.347  13.800 -2.4915 -1.1746 -0.1368
18675TIP3   OH277439   3.676   0.052   2.472  0.1054  0.0597 -0.2439
18675TIP3    H177440   3.662   0.127   2.530 -1.0943  0.5002 -1.0795
18675TIP3    H277441   3.755   0.074   2.423  0.0649  0.5231 -0.1028
18676TIP3   OH277442   1.358   2.642   0.557 -0.1419  0.3660 -0.5851
18676TIP3    H177443   1.272   2.664   0.592 -0.1707 -1.0254  0.2930
18676TIP3    H277444   1.342   2.568   0.499  0.3794  0.5204 -0.9304
18677TIP3   OH277445   1.261   3.185   6.390 -0.2207 -0.3171 -0.2882
18677TIP3    H177446   1.217   3.269   6.379  0.6765  0.5355  2.2628
18677TIP3    H277447   1.194   3.119   6.371 -1.4087  0.9758 -0.5885
18678TIP3   OH277448   2.056   2.588  15.409 -0.5160 -0.1622  0.8103
18678TIP3    H177449   2.130   2.559  15.463 -0.5287 -0.4455  0.6732
18678TIP3    H277450   2.009   2.508  15.387 -1.1568  0.0623  1.3225
18679TIP3   OH277451   4.567   6.185  12.292  0.5077  0.2119 -0.3587
18679TIP3    H177452   4.535   6.193  12.382  0.1411  1.2647 -0.5794
18679TIP3    H277453   4.652   6.142  12.300  0.3049 -0.0329  0.4593
18680TIP3   OH277454   5.186   1.205   1.461  0.1171 -0.1483 -0.6379
18680TIP3    H177455   5.093   1.230   1.458 -0.0010 -0.5822 -0.6785
18680TIP3    H277456   5.186   1.121   1.507  0.3109 -0.9719 -2.1150
18681TIP3   OH277457   6.305   2.377   2.449 -0.0325 -0.5013  0.0920
18681TIP3    H177458   6.261   2.307   2.498 -0.9469  1.7671  2.5986
18681TIP3    H277459   6.395   2.377   2.483 -0.6211  0.9585  1.7058
18682TIP3   OH277460   6.503   1.813  13.080 -0.2764  0.0521  0.2801
18682TIP3    H177461   6.563   1.793  13.009 -1.2241  1.5563 -0.9712
18682TIP3    H277462   6.550   1.789  13.159  1.1275 -0.8130 -0.8106
18683TIP3   OH277463   0.542   2.926   4.883  0.3519 -0.5034 -0.3888
18683TIP3    H177464   0.583   2.866   4.945 -0.3520  0.0736  0.6348
18683TIP3    H277465   0.457   2.886   4.863 -0.3673  0.4389  0.7444
18684TIP3   OH277466   3.038   3.817   3.516 -0.5976 -0.9581  0.6175
18684TIP3    H177467   3.004   3.877   3.582  0.0727  1.9987 -1.6065
18684TIP3    H277468   2.971   3.815   3.448  0.3569 -1.0073 -0.3341
18685TIP3   OH277469   0.236   1.243  15.148  0.0341 -0.5034  0.4020
18685TIP3    H177470   0.293   1.201  15.083  1.3033  0.6010  0.7794
18685TIP3    H277471   0.221   1.331  15.113  0.3165 -0.0743  1.3537
18686TIP3   OH277472   4.043   4.609  14.476  0.4136  0.2590  0.0620
18686TIP3    H177473   4.087   4.681  14.431 -0.8651  1.1253  0.1444
18686TIP3    H277474   4.069   4.530  14.427  0.9949  0.9018 -0.6755
18687TIP3   OH277475   0.313   1.441  15.787 -0.1606 -0.5993  0.0927
18687TIP3    H177476   0.276   1.386  15.717  0.3384 -0.2549 -0.4495
18687TIP3    H277477   0.329   1.525  15.745  1.1227 -0.7030  0.3377
18688TIP3   OH277478   1.386   5.585   1.329 -0.5641 -0.5812  0.2231
18688TIP3    H177479   1.406   5.539   1.410 -1.9276  0.0793  0.9655
18688TIP3    H277480   1.393   5.519   1.261 -1.4997 -1.6527  1.1458
18689TIP3   OH277481   1.704   3.475  14.546 -0.2954  0.5983 -0.3450
18689TIP3    H177482   1.706   3.455  14.640  1.1446 -1.3205 -0.7516
18689TIP3    H277483   1.655   3.557  14.540 -1.9228 -0.1508  1.9179
18690TIP3   OH277484   5.180   4.612  15.332 -0.1970 -0.0046  0.5020
18690TIP3    H177485   5.111   4.621  15.266  0.9932  1.2479 -0.6029
18690TIP3    H277486   5.240   4.547  15.296 -0.4410 -0.5844  1.1422
18691TIP3   OH277487   5.301   1.103   5.152  0.5386  0.2266  0.7486
18691TIP3    H177488   5.396   1.108   5.165  0.5943 -0.6797  0.7206
18691TIP3    H277489   5.276   1.019   5.189 -0.4206  0.9250  1.7008
18692TIP3   OH277490   3.999   1.457  16.322 -0.6767 -0.5145 -0.0257
18692TIP3    H177491   4.077   1.511  16.337 -0.3055  0.0335 -3.4908
18692TIP3    H277492   3.927   1.520  16.316 -0.6747 -0.6182 -1.2717
18693TIP3   OH277493   4.745   2.911   0.472  0.1172  0.1311 -0.1508
18693TIP3    H177494   4.676   2.903   0.406  1.0700 -0.2463 -1.0976
18693TIP3    H277495   4.796   2.988   0.445  0.0911  0.4024  0.5428
18694TIP3   OH277496   3.675   6.656   1.493 -0.4029 -0.1950 -0.8896
18694TIP3    H177497   3.729   6.578   1.507 -0.1627  0.0924 -0.1739
18694TIP3    H277498   3.736   6.720   1.456  0.1988  0.6963  1.5217
18695TIP3   OH277499   5.220   6.439   0.777  0.1715 -0.3953  0.5344
18695TIP3    H177500   5.148   6.492   0.811 -0.0100  0.4613 -1.1172
18695TIP3    H277501   5.283   6.435   0.849 -1.2808 -0.7194  1.8153
18696TIP3   OH277502   2.487   1.122   0.195 -0.0576 -0.9424 -0.1054
18696TIP3    H177503   2.466   1.034   0.165 -1.6747 -0.1687 -1.2803
18696TIP3    H277504   2.406   1.156   0.232  0.7470 -0.2145  1.0471
18697TIP3   OH277505   4.335   4.855   1.230 -0.4253  0.1673  0.0328
18697TIP3    H177506   4.429   4.872   1.235 -0.5832  0.6034  2.0566
18697TIP3    H277507   4.301   4.927   1.176  0.1679  1.0560  0.8108
18698TIP3   OH277508   2.063   5.074   1.356  0.3933  0.0438  0.3400
18698TIP3    H177509   2.049   5.030   1.440 -1.4775 -0.0265 -0.0020
18698TIP3    H277510   2.012   5.155   1.363  1.3850  0.7269 -0.1954
18699TIP3   OH277511   3.453   0.116   5.031  0.0358 -0.4435 -0.2603
18699TIP3    H177512   3.507   0.037   5.034  0.3247 -0.2599 -0.5732
18699TIP3    H277513   3.443   0.142   5.123  0.4949 -0.4689 -0.2021
18700TIP3   OH277514   2.508   2.441  14.781  0.0260 -0.0963 -0.0753
18700TIP3    H177515   2.552   2.362  14.812  1.6612  0.6804 -0.3336
18700TIP3    H277516   2.453   2.412  14.709  0.0173 -1.1168  0.3387
18701TIP3   OH277517   4.073   5.960   3.671  0.5622 -0.0337 -0.2902
18701TIP3    H177518   3.991   5.943   3.718  1.6449  1.8058  2.4252
18701TIP3    H277519   4.059   5.922   3.584 -3.4997  1.0443 -0.2325
18702TIP3   OH277520   6.193   6.612   0.233 -1.0069  0.6911  0.0201
18702TIP3    H177521   6.207   6.535   0.289  1.9562  2.6333  2.1027
18702TIP3    H277522   6.179   6.684   0.295 -3.0145  1.9862 -1.8774
18703TIP3   OH277523   4.144   5.892  16.469  0.2111  0.4828  0.3440
18703TIP3    H177524   4.199   5.897  16.392  0.4530 -0.6331  0.4330
18703TIP3    H277525   4.172   5.812  16.514 -0.6135  0.5759  1.0494
18704TIP3   OH277526   4.970   2.696   0.469  0.6971  0.6212 -0.1707
18704TIP3    H177527   4.947   2.603   0.462  0.8711  0.3926  1.9119
18704TIP3    H277528   4.888   2.742   0.448  0.3564 -0.0310 -0.2991
18705TIP3   OH277529   6.261   4.030  15.914  0.2219 -0.1582  0.7637
18705TIP3    H177530   6.320   4.104  15.902  0.0253 -0.3063 -1.3138
18705TIP3    H277531   6.301   3.959  15.864 -0.9180 -0.6808  0.5705
18706TIP3   OH277532   5.764   4.256  14.656 -0.1120  0.0181  0.5807
18706TIP3    H177533   5.693   4.266  14.719  0.1543  1.1649  0.6995
18706TIP3    H277534   5.840   4.231  14.710  0.0762  0.8409  0.7077
18707TIP3   OH277535   1.347   4.530  16.780 -0.1435 -0.2336 -0.3286
18707TIP3    H177536   1.273   4.588  16.800 -1.5441 -1.5305 -1.5995
18707TIP3    H277537   1.385   4.567  16.700 -2.0696 -1.9319 -2.1113
18708TIP3   OH277538   3.622   3.132   0.046 -0.6326  0.3223  0.9433
18708TIP3    H177539   3.618   3.172   0.133  0.9003  1.1307  0.6631
18708TIP3    H277540   3.643   3.041   0.063  1.4143  0.8527  1.3633
18709TIP3   OH277541   6.075   3.117   2.453 -0.0170  1.0797 -0.0619
18709TIP3    H177542   5.983   3.093   2.440  0.3668 -1.0726  0.9804
18709TIP3    H277543   6.122   3.068   2.386  0.7263 -0.6922  1.7156
18710TIP3   OH277544   4.126   4.728  12.635  0.1014 -0.4157 -0.4170
18710TIP3    H177545   4.061   4.659  12.625  2.1226 -2.3408 -0.5919
18710TIP3    H277546   4.165   4.736  12.548  0.7213  0.1090 -0.0929
18711TIP3   OH277547   1.829   4.973  17.147  0.3491  0.0984  0.4875
18711TIP3    H177548   1.854   5.017  17.228 -1.3947  0.5544  0.8023
18711TIP3    H277549   1.799   4.886  17.175 -0.6521  0.4043  0.3927
18712TIP3   OH277550   5.583   3.110  14.608 -0.1050  0.3139  0.4482
18712TIP3    H177551   5.507   3.166  14.598  0.0520  0.6281  0.9799
18712TIP3    H277552   5.551   3.033  14.655 -0.4579 -0.3339 -0.8580
18713TIP3   OH277553   0.416   4.400   5.311  0.5094 -0.2842  0.2962
18713TIP3    H177554   0.441   4.346   5.386 -3.3658  0.4657  2.2906
18713TIP3    H277555   0.327   4.371   5.290  1.1171  0.3290 -3.3128
18714TIP3   OH277556   2.109   2.252   0.675 -0.2122 -0.2422 -0.3995
18714TIP3    H177557   2.184   2.296   0.635  0.1285 -1.0641 -0.6821
18714TIP3    H277558   2.048   2.322   0.696  0.6546  0.4389 -0.1397
18715TIP3   OH277559   5.598   0.455   5.073  0.4074  0.6023 -0.6068
18715TIP3    H177560   5.639   0.462   5.159  0.3619  0.1246 -0.5478
18715TIP3    H277561   5.538   0.381   5.081 -1.3403  2.0106 -0.3275
18716TIP3   OH277562   5.198   0.244   4.509  0.3043  0.4792 -0.0909
18716TIP3    H177563   5.241   0.227   4.593  0.5611 -1.0548 -0.5144
18716TIP3    H277564   5.171   0.158   4.478 -2.9966  1.3584  0.1132
18717TIP3   OH277565   0.481   3.652  16.793 -0.3377  0.4346  0.1095
18717TIP3    H177566   0.461   3.732  16.744  0.5502 -0.6117 -1.9906
18717TIP3    H277567   0.396   3.624  16.828 -0.8132  1.7603  0.0519
18718TIP3   OH277568   2.460   4.982  14.516 -0.9361 -0.1126 -0.1081
18718TIP3    H177569   2.529   4.948  14.459 -1.4347 -1.5970  0.1405
18718TIP3    H277570   2.507   5.022  14.589 -0.3105 -1.6549  0.3688
18719TIP3   OH277571   0.983   3.778   0.339 -0.2269  0.0504  0.1333
18719TIP3    H177572   0.935   3.698   0.317  2.5249 -1.1916 -1.6699
18719TIP3    H277573   0.977   3.831   0.259 -0.0584  0.6274  0.5038
18720TIP3   OH277574   4.413   0.077   0.462 -0.2699  0.1294 -0.2163
18720TIP3    H177575   4.470   0.071   0.385 -2.3589 -0.2718 -1.7805
18720TIP3    H277576   4.328   0.103   0.426 -1.3112 -0.1954  1.9577
18721TIP3   OH277577   2.595   2.531  15.457 -0.2144 -0.3666 -0.0744
18721TIP3    H177578   2.662   2.523  15.389 -0.6896 -0.2297 -0.5616
18721TIP3    H277579   2.642   2.516  15.539  0.4939  0.1612 -0.3804
18722TIP3   OH277580   5.743   6.469   0.628 -0.1363 -0.1157 -0.2779
18722TIP3    H177581   5.649   6.484   0.621 -0.5606 -1.1958  2.3620
18722TIP3    H277582   5.778   6.549   0.668 -0.1221 -0.1763 -0.1682
18723TIP3   OH277583   6.655   5.275   0.571 -0.3667 -0.1561 -0.3462
18723TIP3    H177584   6.614   5.315   0.647 -0.1670  1.1653 -0.9347
18723TIP3    H277585   6.599   5.199   0.552 -0.5274 -0.3744  0.9834
18724TIP3   OH277586   5.390   6.379   3.193  0.4307  0.6694  0.5682
18724TIP3    H177587   5.380   6.425   3.276  1.0113  1.5528  0.1672
18724TIP3    H277588   5.313   6.323   3.186 -0.0767  1.2679  1.2770
18725TIP3   OH277589   0.547   5.663  11.542  0.2011 -0.4915  0.0581
18725TIP3    H177590   0.598   5.743  11.547 -2.3501  1.1582  0.4846
18725TIP3    H277591   0.527   5.652  11.449 -1.4793  0.7272  0.2520
18726TIP3   OH277592   0.334   4.480   1.566  0.9202 -0.1812  0.0433
18726TIP3    H177593   0.324   4.575   1.579 -2.1613 -0.3151 -1.1353
18726TIP3    H277594   0.344   4.445   1.655  1.1310  1.1287  0.5490
18727TIP3   OH277595   3.133   1.436  13.695 -0.0163  0.5668  0.0024
18727TIP3    H177596   3.164   1.345  13.697  2.2207  1.2839 -0.3993
18727TIP3    H277597   3.213   1.488  13.683 -1.6031  2.4044 -3.2206
18728TIP3   OH277598   2.895   4.274  11.377 -0.1818 -0.2189  1.0164
18728TIP3    H177599   2.971   4.228  11.341 -1.0218 -1.3456  0.6690
18728TIP3    H277600   2.915   4.283  11.470  0.8486  0.4396  0.7501
18729TIP3   OH277601   6.462   1.043   4.110  0.1389  0.1481 -0.4580
18729TIP3    H177602   6.410   1.036   4.190 -0.3546  0.2944 -0.7633
18729TIP3    H277603   6.501   0.956   4.099  2.0522  0.7604  1.1814
18730TIP3   OH277604   1.670   3.151   5.571  0.1199 -0.1127  0.3500
18730TIP3    H177605   1.667   3.056   5.585  0.9030 -0.2715 -0.4835
18730TIP3    H277606   1.702   3.187   5.653  0.7197 -0.6528  0.3501
18731TIP3   OH277607   5.388   6.608   4.991  0.3571  0.0172  0.5860
18731TIP3    H177608   5.433   6.631   5.073  1.5542 -2.5625  0.7092
18731TIP3    H277609   5.458   6.605   4.926 -0.2604 -0.0951 -0.0672
18732TIP3   OH277610   6.577   6.279  11.886  0.1582 -0.1593  0.7023
18732TIP3    H177611   6.554   6.220  11.814  0.4523  0.9357 -0.3068
18732TIP3    H277612   6.673   6.275  11.891  0.2856  1.1726 -0.2165
18733TIP3   OH277613   5.766   6.602  17.077  0.6839 -0.1146 -0.1593
18733TIP3    H177614   5.691   6.657  17.097 -0.1611 -1.6415  0.9597
18733TIP3    H277615   5.829   6.621  17.147 -0.7370 -2.6239  1.8372
18734TIP3   OH277616   4.908   4.291   5.368  0.1547 -0.0809 -0.2268
18734TIP3    H177617   4.921   4.380   5.402 -1.2326 -0.0026  0.1328
18734TIP3    H277618   4.918   4.300   5.273  3.3739 -0.1773  0.0747
18735TIP3   OH277619   2.263   6.723   3.484 -0.2148  0.1677  0.4401
18735TIP3    H177620   2.260   6.743   3.391  1.4619 -0.0343  0.3392
18735TIP3    H277621   2.292   6.805   3.525 -3.0739  0.9439  1.0299
18736TIP3   OH277622   6.519   2.601  11.694  0.0483  0.1359 -0.6302
18736TIP3    H177623   6.520   2.516  11.739 -1.7029  0.3360 -0.2194
18736TIP3    H277624   6.456   2.654  11.742 -0.6590  0.8851 -2.3558
18737TIP3   OH277625   4.257   3.422  11.889  0.1891 -0.1461  0.0567
18737TIP3    H177626   4.298   3.346  11.928  0.3977  0.2437  0.6051
18737TIP3    H277627   4.287   3.422  11.798  0.3432 -0.6044  0.1108
18738TIP3   OH277628   6.472   0.301   2.884 -0.4555  0.1025 -0.2944
18738TIP3    H177629   6.384   0.265   2.880 -0.2143 -0.5465  0.1700
18738TIP3    H277630   6.465   0.375   2.945 -0.9934  0.9708 -1.3974
18739TIP3   OH277631   3.331   1.001  11.274 -0.0949  0.2183 -0.6850
18739TIP3    H177632   3.314   0.907  11.266 -0.5021 -0.0224  2.6207
18739TIP3    H277633   3.426   1.008  11.277 -0.0718 -0.0996 -0.6301
18740TIP3   OH277634   4.247   5.963   1.530  0.3090 -0.5281  0.0406
18740TIP3    H177635   4.295   5.925   1.603 -0.9894  0.2970  1.3526
18740TIP3    H277636   4.291   6.046   1.512 -0.5733  0.2221  1.2366
18741TIP3   OH277637   2.000   2.949   1.905  0.1488  0.2901 -0.0055
18741TIP3    H177638   1.923   2.959   1.961  0.6864 -2.8367  1.3680
18741TIP3    H277639   1.985   2.868   1.858  1.7083  0.6934 -1.2356
18742TIP3   OH277640   3.479   6.296   2.701  0.2828  0.3638  0.1561
18742TIP3    H177641   3.561   6.317   2.747  1.8137  0.5218 -2.5487
18742TIP3    H277642   3.443   6.381   2.677  1.5210  0.2460 -2.3069
18743TIP3   OH277643   4.292   4.808   3.521  0.0836 -0.2401 -0.0092
18743TIP3    H177644   4.200   4.829   3.538  0.3219  1.9212 -1.2305
18743TIP3    H277645   4.289   4.744   3.450 -0.4167  1.0359 -1.1359
18744TIP3   OH277646   2.817   6.133   1.561  0.0705  0.8658 -0.5451
18744TIP3    H177647   2.778   6.168   1.482 -0.7931  0.8050 -0.1521
18744TIP3    H277648   2.874   6.203   1.594  0.6199  0.7951 -1.3490
18745TIP3   OH277649   6.328   3.488  11.984 -0.1223 -0.2868  0.0051
18745TIP3    H177650   6.338   3.401  11.945 -0.1524  0.7281 -2.3280
18745TIP3    H277651   6.307   3.545  11.910 -1.2084  1.5144  1.6659
18746TIP3   OH277652   6.133   3.970  16.164  0.2547 -0.1674  0.2490
18746TIP3    H177653   6.041   3.987  16.146  0.1778 -2.7672 -2.1023
18746TIP3    H277654   6.180   4.010  16.091  0.7753 -1.3626 -0.0786
18747TIP3   OH277655   2.714   0.799  13.398  0.3025  0.2252 -0.2944
18747TIP3    H177656   2.757   0.867  13.347  1.9667  1.1329  2.2559
18747TIP3    H277657   2.758   0.800  13.483 -2.3103 -1.3212  1.1613
18748TIP3   OH277658   6.406   4.907  14.668 -0.0824 -0.3453 -0.4314
18748TIP3    H177659   6.406   4.811  14.669 -1.3653 -0.3379  0.5367
18748TIP3    H277660   6.477   4.930  14.608  0.5545 -1.8970 -0.2939
18749TIP3   OH277661   5.066   5.161  17.100  0.1577  0.0249 -0.4149
18749TIP3    H177662   4.993   5.103  17.081 -0.4557  1.3031 -2.1247
18749TIP3    H277663   5.088   5.200  17.015  3.4692 -1.0669 -0.1332
18750TIP3   OH277664   3.640   1.749   2.875  0.5055  0.5818  0.7707
18750TIP3    H177665   3.658   1.832   2.829  1.4792  0.0276  0.1300
18750TIP3    H277666   3.547   1.753   2.897  0.7412  2.2702  1.5776
18751TIP3   OH277667   6.742   0.436  16.663 -0.1279 -0.4034  0.1753
18751TIP3    H177668   6.764   0.517  16.617 -0.7137  0.0033  0.6158
18751TIP3    H277669   6.647   0.433  16.662 -0.1014 -1.5249 -0.5943
18752TIP3   OH277670   3.748   2.578   1.512 -0.3747  0.4039  0.8364
18752TIP3    H177671   3.769   2.490   1.480 -0.8996 -0.5800  3.0868
18752TIP3    H277672   3.665   2.600   1.469 -1.5833 -1.3076  2.2110
18753TIP3   OH277673   1.283   0.681  16.980 -0.3777  0.3253  0.3765
18753TIP3    H177674   1.190   0.664  16.990 -0.1491  0.1033  2.3278
18753TIP3    H277675   1.291   0.722  16.894 -2.1486 -0.4698 -0.1939
18754TIP3   OH277676   5.000   4.151   1.703 -0.3673 -0.2175  0.5952
18754TIP3    H177677   5.003   4.147   1.607 -1.1136 -1.8150  0.6362
18754TIP3    H277678   5.070   4.091   1.731  0.0539  0.4820  1.0565
18755TIP3   OH277679   2.646   3.868  11.902  0.2982  0.1805  0.7577
18755TIP3    H177680   2.706   3.814  11.954  0.1391 -0.2527  0.4980
18755TIP3    H277681   2.611   3.807  11.836 -0.6361  0.3673  1.0797
18756TIP3   OH277682   2.111   4.963  15.172  0.3836 -0.5405  0.0054
18756TIP3    H177683   2.015   4.964  15.170  0.3989  1.0124 -0.3671
18756TIP3    H277684   2.132   4.933  15.261 -0.4685  0.8939  0.7189
18757TIP3   OH277685   1.819   2.004  11.684 -0.3506 -0.2624 -0.4301
18757TIP3    H177686   1.907   1.971  11.663 -0.5632 -1.1782  0.1100
18757TIP3    H277687   1.833   2.060  11.760  0.1248  1.5370 -1.7976
18758TIP3   OH277688   6.202   2.164   2.565  0.1521 -0.7161 -0.4773
18758TIP3    H177689   6.217   2.070   2.575 -0.1263 -0.9271 -1.9285
18758TIP3    H277690   6.109   2.176   2.580  0.1549 -0.7022 -0.4715
18759TIP3   OH277691   4.891   4.172  13.722 -0.5846 -0.1885  0.4675
18759TIP3    H177692   4.883   4.152  13.628 -0.8284  0.4864  0.3422
18759TIP3    H277693   4.906   4.266  13.725  0.4498 -0.3697  1.0677
18760TIP3   OH277694   3.371   4.150   5.120 -0.1733  0.2612  0.3402
18760TIP3    H177695   3.315   4.117   5.190  1.6479  1.2972  2.3706
18760TIP3    H277696   3.455   4.167   5.164  0.8013  1.5786 -1.9785
18761TIP3   OH277697   1.677   4.501   0.662  0.6520  0.4146  0.5110
18761TIP3    H177698   1.592   4.527   0.697  0.7829  0.9046  0.4732
18761TIP3    H277699   1.720   4.455   0.735 -0.5141 -1.8310 -0.1578
18762TIP3   OH277700   6.473   0.844  15.899  0.4963  0.1250  0.3292
18762TIP3    H177701   6.477   0.914  15.835  0.7699  0.6455  0.9155
18762TIP3    H277702   6.385   0.806  15.888  0.6138  0.0757 -0.4829
18763TIP3   OH277703   3.554   2.236  15.964  0.3073  0.2393  0.0995
18763TIP3    H177704   3.612   2.173  15.921 -0.3659 -1.2783  1.3700
18763TIP3    H277705   3.499   2.270  15.893 -0.2833 -1.6637 -0.4130
18764TIP3   OH277706   5.211   4.684  11.749  0.4487 -0.0717 -0.5846
18764TIP3    H177707   5.305   4.678  11.734  0.2769 -0.7982 -1.3935
18764TIP3    H277708   5.195   4.776  11.768  1.4408 -0.0831  0.3463
18765TIP3   OH277709   4.665   5.744  17.111  0.2694  0.6783  0.1262
18765TIP3    H177710   4.688   5.792  17.031  1.5191 -0.2149 -0.0614
18765TIP3    H277711   4.574   5.768  17.127  0.0144  0.9176 -1.5419
18766TIP3   OH277712   6.655   0.275  12.016 -0.2219 -0.7138 -0.3673
18766TIP3    H177713   6.665   0.245  11.926 -0.2140  0.5564 -0.8008
18766TIP3    H277714   6.565   0.256  12.039 -0.4798 -0.2117 -0.9598
18767TIP3   OH277715   6.027   0.056  12.266 -0.3377 -0.1482  0.0999
18767TIP3    H177716   6.016  -0.033  12.301 -1.5005 -0.3269 -0.6774
18767TIP3    H277717   6.056   0.042  12.175 -2.7628  0.2099 -0.7611
18768TIP3   OH277718   6.359   5.831   1.939 -0.0052 -0.4069  0.0754
18768TIP3    H177719   6.453   5.828   1.959  0.4538 -2.0912 -2.1246
18768TIP3    H277720   6.316   5.806   2.021  1.5268 -1.0435  0.7128
18769TIP3   OH277721   4.176   2.176   3.106  0.0247  0.1769 -0.0474
18769TIP3    H177722   4.085   2.152   3.122  0.3368  0.2467  1.9788
18769TIP3    H277723   4.206   2.114   3.040 -1.0333 -0.9167  0.4742
18770TIP3   OH277724   5.459   3.312  13.554  0.2569 -0.1891  0.3711
18770TIP3    H177725   5.533   3.291  13.610 -1.2551  0.0486  2.5005
18770TIP3    H277726   5.475   3.403  13.526  1.0105 -0.3077  0.4240
18771TIP3   OH277727   4.433   3.680  12.961  0.0542  0.0808 -0.3573
18771TIP3    H177728   4.476   3.739  12.899  0.2303  0.7959  0.4259
18771TIP3    H277729   4.473   3.595  12.946  0.9868  0.5187 -0.3702
18772TIP3   OH277730   3.677   2.479   5.315  0.1775  0.1177  0.1440
18772TIP3    H177731   3.585   2.472   5.291  0.1728 -0.4264  0.3144
18772TIP3    H277732   3.681   2.447   5.406  0.5370  0.0989  0.1233
18773TIP3   OH277733   2.171   6.279  14.025 -0.1919 -0.0341 -0.4971
18773TIP3    H177734   2.085   6.295  13.986  0.0158 -0.2091 -1.0411
18773TIP3    H277735   2.182   6.184  14.020 -0.4160 -0.1207  0.5511
18774TIP3   OH277736   0.729   3.645   2.523 -0.3947 -0.0134 -0.2532
18774TIP3    H177737   0.713   3.715   2.586  2.2376  0.0133  0.4535
18774TIP3    H277738   0.748   3.691   2.441 -1.1179  0.0234 -0.4030
18775TIP3   OH277739   4.670   5.059  12.786 -0.1462 -0.0436  0.5510
18775TIP3    H177740   4.686   5.149  12.760 -0.8870  0.2861  1.2437
18775TIP3    H277741   4.598   5.030  12.731 -0.6441  0.1388  1.1101
18776TIP3   OH277742   5.514   4.720   3.767  0.0367  0.2210 -0.2404
18776TIP3    H177743   5.493   4.742   3.858  0.5581  1.5559 -0.4203
18776TIP3    H277744   5.489   4.799   3.718  1.2727  0.1206 -1.0345
18777TIP3   OH277745   2.113   5.531   1.689 -0.1096  0.4707  0.2313
18777TIP3    H177746   2.102   5.618   1.650 -1.0383 -0.2875 -1.2207
18777TIP3    H277747   2.195   5.498   1.651 -0.3942  0.2119 -0.1541
18778TIP3   OH277748   4.394   6.229   1.443 -0.0264  0.2838  0.4376
18778TIP3    H177749   4.461   6.182   1.393  0.6001  1.2642  0.3149
18778TIP3    H277750   4.348   6.282   1.378  0.7823  1.5544  0.8601
18779TIP3   OH277751   1.134   5.848   4.339  0.0588  0.2274  0.0281
18779TIP3    H177752   1.209   5.902   4.363 -0.0659  0.2813  0.2926
18779TIP3    H277753   1.062   5.910   4.330  0.2715  0.3103 -1.2265
18780TIP3   OH277754   1.973   1.895  16.296 -0.5313 -0.4441 -0.1500
18780TIP3    H177755   1.951   1.985  16.269  2.0041 -0.0973 -1.1003
18780TIP3    H277756   1.891   1.847  16.285 -1.1651  1.0854 -2.5178
18781TIP3   OH277757   3.885   4.696  11.083 -0.4816 -0.3744  0.4470
18781TIP3    H177758   3.896   4.749  11.004  1.1036  0.2135  1.0233
18781TIP3    H277759   3.822   4.745  11.137  0.6982  0.7907  0.8184
18782TIP3   OH277760   0.099   2.442   5.646  0.4524 -0.1146 -0.2947
18782TIP3    H177761   0.071   2.494   5.721 -0.2380  0.6070 -1.0394
18782TIP3    H277762   0.038   2.368   5.643  1.1791 -0.7510  0.5210
18783TIP3   OH277763   5.355   0.733   2.638  0.7303 -0.6134 -0.2699
18783TIP3    H177764   5.333   0.769   2.552 -0.5254 -1.5095 -0.3411
18783TIP3    H277765   5.270   0.725   2.683  1.3077 -0.7635  0.8158
18784TIP3   OH277766   1.490   6.770  12.713  0.2244 -0.0684 -0.3967
18784TIP3    H177767   1.573   6.772  12.667 -0.3803  1.4023 -1.4692
18784TIP3    H277768   1.502   6.705  12.782  1.9386 -0.5442 -1.1216
18785TIP3   OH277769   6.758   5.212  12.291 -0.7700  0.5932  0.6100
18785TIP3    H177770   6.771   5.145  12.358 -0.4409 -0.5983 -0.6200
18785TIP3    H277771   6.760   5.163  12.208  0.3519  2.2285 -0.3528
18786TIP3   OH277772   0.041   0.928  11.171  0.1718  0.1210  0.4757
18786TIP3    H177773   0.105   0.998  11.188 -0.7006  1.0000  0.1778
18786TIP3    H277774   0.004   0.909  11.257 -0.1194  0.5515  0.4496
18787TIP3   OH277775   1.032   4.702   3.749 -0.2660  0.2840  0.3138
18787TIP3    H177776   0.992   4.719   3.664  0.9486 -2.9579 -0.9769
18787TIP3    H277777   1.079   4.783   3.770  0.4162  0.7194 -2.6533
18788TIP3   OH277778   4.794   3.903   2.969 -0.3502 -0.3543 -0.1934
18788TIP3    H177779   4.841   3.987   2.969  1.0825 -1.1189  1.4250
18788TIP3    H277780   4.704   3.926   2.946 -0.0244  1.6584  0.3809
18789TIP3   OH277781   1.092   2.485  16.533 -0.4419  0.0298  0.5750
18789TIP3    H177782   1.110   2.442  16.616 -1.4460  0.7225  1.1750
18789TIP3    H277783   0.996   2.492  16.530 -0.3911  0.3641 -0.4448
18790TIP3   OH277784   0.515   6.181  14.985 -0.2716  0.6280 -0.1187
18790TIP3    H177785   0.431   6.177  15.032  0.4118 -0.7346  1.0277
18790TIP3    H277786   0.508   6.112  14.918  0.4905 -0.5021  0.9481
18791TIP3   OH277787   2.019   6.142  12.483  0.0807  0.6041  0.1898
18791TIP3    H177788   1.961   6.101  12.419  1.0618  1.4044 -1.2450
18791TIP3    H277789   2.051   6.070  12.537  1.3306 -0.4722 -1.9267
18792TIP3   OH277790   0.184   2.906  14.922  0.1394 -0.7684 -0.4965
18792TIP3    H177791   0.204   2.856  14.843 -0.3059 -2.2273  0.3007
18792TIP3    H277792   0.177   2.997  14.891  1.9695 -1.0303 -1.7864
18793TIP3   OH277793   3.002   4.381   6.291  0.1626  0.6116 -0.0855
18793TIP3    H177794   2.939   4.434   6.243  0.2955  1.2321  0.4160
18793TIP3    H277795   3.086   4.425   6.279  0.3284  0.3402  0.0638
18794TIP3   OH277796   5.205   3.582   5.015  0.1573  0.2192  0.8253
18794TIP3    H177797   5.283   3.633   4.992 -0.8378  1.7173  0.7152
18794TIP3    H277798   5.238   3.493   5.028  1.8854  0.8257  0.7604
18795TIP3   OH277799   2.948   1.653  16.953 -0.5799  0.3760 -0.1135
18795TIP3    H177800   2.913   1.610  17.031 -1.2362 -0.8783 -1.0721
18795TIP3    H277801   3.043   1.653  16.966 -0.7446  0.9580  1.0744
18796TIP3   OH277802   0.374   0.424  13.579  0.6160 -0.2079 -0.1958
18796TIP3    H177803   0.329   0.349  13.541  0.8077  0.0509 -0.9617
18796TIP3    H277804   0.331   0.500  13.539  0.2710  0.0971  0.7430
18797TIP3   OH277805   0.705   5.476  14.845  0.1558 -0.6957 -0.1615
18797TIP3    H177806   0.769   5.464  14.775 -0.0972  1.2325 -0.7650
18797TIP3    H277807   0.656   5.554  14.819 -0.1070 -0.0896  2.0499
18798TIP3   OH277808   5.601   4.383  11.951  0.1888  0.3830  0.2092
18798TIP3    H177809   5.519   4.351  11.915  0.4341  0.4137 -0.3964
18798TIP3    H277810   5.580   4.470  11.986 -0.0543  0.3577  0.1261
18799TIP3   OH277811   5.128   2.271  11.228  0.5201 -0.2312  0.2186
18799TIP3    H177812   5.055   2.252  11.170  0.4931  0.2088  0.1090
18799TIP3    H277813   5.103   2.351  11.274  1.3292  0.4456 -0.4953
18800TIP3   OH277814   6.009   0.596   2.085 -0.3225  0.2458 -0.0278
18800TIP3    H177815   5.956   0.550   2.150 -0.3287 -0.3081 -0.4220
18800TIP3    H277816   6.012   0.686   2.116  0.2801 -0.1544  1.1374
18801TIP3   OH277817   0.529   0.597  12.143 -0.0530 -0.6184  0.3449
18801TIP3    H177818   0.549   0.690  12.131 -0.6028 -0.3278  1.6077
18801TIP3    H277819   0.570   0.574  12.227 -2.1219 -0.8413  1.3192
18802TIP3   OH277820   0.606   1.506  10.389 -0.0673 -0.2044  0.9174
18802TIP3    H177821   0.671   1.566  10.427 -0.9695  0.3525  1.5877
18802TIP3    H277822   0.546   1.488  10.461 -2.2461  1.4767 -0.4459
18803TIP3   OH277823   3.073   4.450   0.817 -0.1260  0.0766  0.7686
18803TIP3    H177824   3.129   4.528   0.821 -0.1593  0.1962 -0.9353
18803TIP3    H277825   3.043   4.446   0.726 -3.4699  0.4107  1.7869
18804TIP3   OH277826   2.618   0.387  11.484  0.5892 -0.3393  0.7159
18804TIP3    H177827   2.602   0.449  11.555 -0.1492  1.7788 -1.2347
18804TIP3    H277828   2.713   0.379  11.481  0.7531  1.4203  0.4389
18805TIP3   OH277829   2.281   0.554  13.206 -0.3677  0.1209  0.2551
18805TIP3    H177830   2.356   0.591  13.252 -0.5878 -0.4875  1.1040
18805TIP3    H277831   2.313   0.537  13.117  0.8816 -1.3633  0.9713
18806TIP3   OH277832   4.611   3.243   5.071 -0.1421 -0.1098  0.1418
18806TIP3    H177833   4.657   3.309   5.018  0.5624 -1.1399 -0.5338
18806TIP3    H277834   4.622   3.161   5.022 -2.0504 -0.5068  0.3757
18807TIP3   OH277835   1.024   0.275  12.019  0.0903  0.1818 -0.9682
18807TIP3    H177836   0.993   0.247  11.933 -1.9335  0.5862 -0.3984
18807TIP3    H277837   0.998   0.366  12.026 -1.5307 -0.3803  0.8412
18808TIP3   OH277838   2.004   2.270   2.532  0.0665  0.3455  0.1775
18808TIP3    H177839   1.962   2.325   2.466  0.0615 -1.2001 -1.1644
18808TIP3    H277840   2.076   2.323   2.566  0.4711  0.9251 -1.5543
18809TIP3   OH277841   0.521   5.419   4.356  0.2753 -0.0955 -0.5826
18809TIP3    H177842   0.517   5.400   4.450 -2.4471  0.4537 -0.5650
18809TIP3    H277843   0.470   5.349   4.315  1.1211 -0.1084 -1.6474
18810TIP3   OH277844   3.043   0.751   3.871  0.2583  0.8004  0.5461
18810TIP3    H177845   3.122   0.806   3.866 -0.0462  1.1367 -0.6114
18810TIP3    H277846   2.972   0.813   3.886  0.2930  0.4249  2.4498
18811TIP3   OH277847   3.344   6.230  13.972 -0.2224  0.3756 -0.2232
18811TIP3    H177848   3.347   6.229  14.068  0.8807 -1.1853 -0.2596
18811TIP3    H277849   3.253   6.250  13.951 -0.0870  2.5815  1.1441
18812TIP3   OH277850   5.397   1.217  13.326  0.0590 -0.1472  0.3461
18812TIP3    H177851   5.363   1.304  13.346  1.1046  0.6335 -1.1731
18812TIP3    H277852   5.356   1.194  13.242  1.0468 -0.4013 -0.0732
18813TIP3   OH277853   0.176   3.095   2.528 -0.5617  0.1540 -0.0775
18813TIP3    H177854   0.266   3.066   2.516 -0.3956  0.0734  1.3156
18813TIP3    H277855   0.125   3.039   2.469  0.1929 -0.4783 -0.1387
18814TIP3   OH277856   2.716   3.738  16.837  0.1100  0.0559  0.7513
18814TIP3    H177857   2.807   3.761  16.821  1.0714 -2.4841  2.3413
18814TIP3    H277858   2.673   3.822  16.854  1.7033  1.4790 -1.8820
18815TIP3   OH277859   5.984   3.956  13.267 -0.8523  0.3255  0.5331
18815TIP3    H177860   5.994   4.045  13.234  3.3899 -1.1531 -2.5964
18815TIP3    H277861   5.915   3.918  13.213 -0.6143  0.8625 -0.1638
18816TIP3   OH277862   5.658   1.504   1.757 -0.4857  0.1579  0.5398
18816TIP3    H177863   5.676   1.421   1.801 -0.3453  0.6466  1.4185
18816TIP3    H277864   5.563   1.504   1.743 -0.0601 -1.8101 -2.8656
18817TIP3   OH277865   4.208   2.873   3.372  0.6518  0.2489  0.3425
18817TIP3    H177866   4.294   2.881   3.413  0.4181 -3.2141  1.6616
18817TIP3    H277867   4.177   2.963   3.365  3.1898  1.3626  2.4134
18818TIP3   OH277868   1.531   0.400   2.966  0.5683 -0.0872 -0.3126
18818TIP3    H177869   1.596   0.361   3.025  0.6942 -0.5162 -0.7309
18818TIP3    H277870   1.506   0.482   3.008  1.6955  0.2817 -0.3426
18819TIP3   OH277871   4.285   1.066   2.732  0.2859  0.5042 -0.3217
18819TIP3    H177872   4.285   1.075   2.636 -0.3058  3.3552 -0.1133
18819TIP3    H277873   4.207   1.114   2.760  0.8319  0.2792  1.6443
18820TIP3   OH277874   5.613   3.635  16.358 -0.0791 -0.0393  0.2615
18820TIP3    H177875   5.581   3.574  16.424 -0.1730 -0.6519 -0.3432
18820TIP3    H277876   5.678   3.585  16.308 -1.5238 -0.2499 -1.4394
18821TIP3   OH277877   2.254   0.387   5.857 -0.0092  0.4665  0.5191
18821TIP3    H177878   2.186   0.451   5.879 -2.0368 -0.9918 -1.3646
18821TIP3    H277879   2.300   0.425   5.783 -0.2961  0.3716  0.2934
18822TIP3   OH277880   3.762   1.986   0.856 -0.0752  0.5060 -0.4568
18822TIP3    H177881   3.751   1.899   0.894  0.4599  0.2312 -0.9324
18822TIP3    H277882   3.738   1.976   0.764  0.7841  0.6762 -0.7054
18823TIP3   OH277883   5.498   2.939  14.832 -0.0785 -0.6940 -0.0525
18823TIP3    H177884   5.426   2.886  14.799 -0.2339 -0.1762 -0.5436
18823TIP3    H277885   5.456   3.016  14.871  0.1593 -0.8038  0.4328
18824TIP3   OH277886   3.823   3.794  15.972 -0.7048 -0.0465  0.2601
18824TIP3    H177887   3.806   3.888  15.976  1.3926  0.3703  0.0776
18824TIP3    H277888   3.872   3.782  15.890 -1.3388 -1.3667  0.0533
18825TIP3   OH277889   6.364   2.612  12.218 -0.1671 -0.4076 -0.4592
18825TIP3    H177890   6.432   2.560  12.261  0.6377  0.4941 -0.6075
18825TIP3    H277891   6.383   2.702  12.245 -1.2045 -0.1253 -0.6463
18826TIP3   OH277892   1.485   1.190   5.201 -0.6039 -0.2735  0.1464
18826TIP3    H177893   1.530   1.175   5.284  0.7126  0.2533 -0.4512
18826TIP3    H277894   1.553   1.177   5.135 -1.3448  0.5140 -0.7721
18827TIP3   OH277895   1.759   6.557  13.835  0.7620  0.6454  0.3619
18827TIP3    H177896   1.699   6.489  13.866  0.5615  0.0598 -1.2811
18827TIP3    H277897   1.771   6.538  13.742  2.4137  1.5756  0.3684
18828TIP3   OH277898   6.303   1.684   3.186  0.6462 -0.2668  0.1632
18828TIP3    H177899   6.273   1.651   3.271 -0.1990  0.7217  0.2550
18828TIP3    H277900   6.229   1.672   3.127  0.4743  1.0842  0.1009
18829TIP3   OH277901   5.468   6.599   2.213  0.4439 -0.1777 -0.1671
18829TIP3    H177902   5.425   6.557   2.139  0.7935  0.0647 -0.5087
18829TIP3    H277903   5.509   6.527   2.261  3.4147  0.0276 -2.2850
18830TIP3   OH277904   5.430   4.709  16.112 -0.3793  0.1093 -0.3077
18830TIP3    H177905   5.481   4.778  16.068  1.4183 -2.0543 -1.6896
18830TIP3    H277906   5.494   4.665  16.169 -1.4969 -0.4731  0.4988
18831TIP3   OH277907   1.662   1.180   0.749 -0.3549 -0.3656 -0.5970
18831TIP3    H177908   1.683   1.270   0.727 -2.0439  0.6088  1.5947
18831TIP3    H277909   1.570   1.170   0.726 -0.4058 -1.2741 -0.0557
18832TIP3   OH277910   3.820   3.817   1.167  0.1294  0.1190 -0.1327
18832TIP3    H177911   3.750   3.875   1.138  0.8061  1.1667  0.3117
18832TIP3    H277912   3.776   3.737   1.193 -0.9027  0.7781  0.1447
18833TIP3   OH277913   4.321   1.161  10.942  0.3369  0.0791  0.2159
18833TIP3    H177914   4.251   1.098  10.928  0.2692 -0.0441  1.1068
18833TIP3    H277915   4.324   1.174  11.036  0.7202  0.9875  0.0860
18834TIP3   OH277916   4.711   3.927   1.085 -0.4611 -0.1762  0.8097
18834TIP3    H177917   4.675   4.009   1.119 -0.1964 -0.8056  2.6743
18834TIP3    H277918   4.781   3.905   1.146  0.7980 -0.7552 -0.8260
18835TIP3   OH277919   1.542   4.699  12.937  0.4726  0.0265 -0.3426
18835TIP3    H177920   1.475   4.640  12.902  0.0677  0.3578 -0.1318
18835TIP3    H277921   1.558   4.761  12.866  2.5404 -1.6829 -1.4007
18836TIP3   OH277922   1.835   6.533   4.078  0.0889 -0.2639 -0.2192
18836TIP3    H177923   1.760   6.592   4.090 -0.0113 -0.1362 -1.3899
18836TIP3    H277924   1.839   6.519   3.983  2.4322  0.9197 -0.3393
18837TIP3   OH277925   5.499   0.183  15.123 -0.6517  0.3535  0.2206
18837TIP3    H177926   5.407   0.165  15.143 -0.5321  0.7235  1.0882
18837TIP3    H277927   5.543   0.183  15.208  0.2039 -0.0878 -0.2135
18838TIP3   OH277928   2.970   3.973  17.067 -0.3517  0.0654  0.2344
18838TIP3    H177929   3.010   3.949  17.151  1.2743  1.8180 -0.0114
18838TIP3    H277930   2.935   4.061  17.080  2.5723  1.6165 -1.7454
18839TIP3   OH277931   0.735   3.309  15.093  0.2399  0.7132 -0.1150
18839TIP3    H177932   0.691   3.225  15.088  0.5801  0.5306 -0.0747
18839TIP3    H277933   0.725   3.337  15.184 -1.2481  1.4705 -0.4964
18840TIP3   OH277934   3.254   2.579  14.911  0.9579 -0.0882  0.1294
18840TIP3    H177935   3.194   2.546  14.978  1.2846 -1.8016 -0.3959
18840TIP3    H277936   3.332   2.525  14.920  1.3874  0.3350 -0.9727
18841TIP3   OH277937   2.998   6.735  15.799 -0.0476  0.1211  0.1945
18841TIP3    H177938   3.072   6.745  15.738  1.1260 -1.9391  1.2161
18841TIP3    H277939   2.970   6.825  15.818  0.8136  0.8565 -1.8641
18842TIP3   OH277940   5.238   6.256  16.255  0.3172 -0.0516 -0.5691
18842TIP3    H177941   5.208   6.238  16.344 -1.6580  3.7508 -0.3129
18842TIP3    H277942   5.329   6.284  16.265  0.3099 -0.2758  0.1644
18843TIP3   OH277943   1.886   4.629  16.113 -0.4421 -0.1355 -0.1683
18843TIP3    H177944   1.907   4.596  16.026  2.1005 -0.8754  0.6968
18843TIP3    H277945   1.958   4.689  16.134 -1.6152  0.9121  0.9800
18844TIP3   OH277946   6.564   0.599   6.103 -0.0318 -0.2684  0.4628
18844TIP3    H177947   6.474   0.606   6.134 -0.9501 -3.0244 -1.4053
18844TIP3    H277948   6.607   0.541   6.167 -0.2609 -0.9224  0.0322
18845TIP3   OH277949   1.775   5.335  12.269 -0.1953  0.3687 -0.0627
18845TIP3    H177950   1.867   5.340  12.297 -0.2275 -1.6826  0.5038
18845TIP3    H277951   1.771   5.256  12.215 -1.6636  0.3575  0.0422
18846TIP3   OH277952   5.099   3.174  16.504  0.4473 -0.1613  0.1203
18846TIP3    H177953   5.055   3.239  16.558 -1.2859 -0.9589 -0.3136
18846TIP3    H277954   5.142   3.115  16.567  0.3276  0.2190  0.5542
18847TIP3   OH277955   2.187   0.773  16.355 -0.1426 -0.1629 -0.0497
18847TIP3    H177956   2.156   0.809  16.272 -1.2135 -3.6516 -1.2509
18847TIP3    H277957   2.107   0.744  16.400  0.6291 -0.5723  1.0819
18848TIP3   OH277958   6.537   6.481  14.335  0.6248  0.6709 -0.0617
18848TIP3    H177959   6.566   6.393  14.313  2.8129  1.5724 -0.9282
18848TIP3    H277960   6.533   6.482  14.431 -0.6099 -0.7102 -0.0867
18849TIP3   OH277961   1.930   0.348  13.520  0.1191  0.0002 -0.1026
18849TIP3    H177962   2.010   0.386  13.556 -1.2932  0.1137  3.0963
18849TIP3    H277963   1.915   0.269  13.571 -1.3967 -0.4355 -1.1677
18850TIP3   OH277964   2.994   3.058  16.198 -0.2449 -0.6152 -0.0453
18850TIP3    H177965   2.945   3.009  16.264 -2.2840  0.2892 -0.8407
18850TIP3    H277966   2.993   3.148  16.229  3.6327 -1.0051  1.4936
18851TIP3   OH277967   3.172   4.633   3.901  0.3303  0.8499 -0.6827
18851TIP3    H177968   3.249   4.688   3.918  1.8468 -1.2746 -0.4611
18851TIP3    H277969   3.179   4.610   3.809  1.4017 -1.4386 -0.0638
18852TIP3   OH277970   0.696   0.983   2.449 -0.1717 -0.0013  0.3783
18852TIP3    H177971   0.672   0.904   2.400  0.6901  0.3699 -0.6326
18852TIP3    H277972   0.612   1.023   2.470 -0.5375  0.2935 -1.5429
18853TIP3   OH277973   6.399   0.239  15.334  0.1979  0.2218 -0.2033
18853TIP3    H177974   6.353   0.259  15.416  0.4191 -0.0855 -0.0005
18853TIP3    H277975   6.491   0.254  15.354  0.2548  0.1231 -0.3910
18854TIP3   OH277976   0.784   5.622  15.052  0.1854  0.3333 -0.2796
18854TIP3    H177977   0.876   5.625  15.026  0.9927  0.3048  2.3741
18854TIP3    H277978   0.741   5.569  14.985  2.3662 -0.7145 -0.8839
18855TIP3   OH277979   0.806   3.209  10.903 -0.1716  0.4531 -0.1646
18855TIP3    H177980   0.729   3.178  10.856  1.1297  0.2421 -2.2295
18855TIP3    H277981   0.858   3.254  10.837  0.5956  2.2637  1.6028
18856TIP3   OH277982   2.751   1.770  12.314  1.0772 -0.2173 -0.7213
18856TIP3    H177983   2.788   1.768  12.402  0.9656 -2.2789 -0.6979
18856TIP3    H277984   2.657   1.775  12.327  1.0312 -1.0612 -0.7125
18857TIP3   OH277985   3.323   3.253   1.730  0.2577 -0.1548  0.0613
18857TIP3    H177986   3.273   3.172   1.744  0.9240 -0.8253 -1.4499
18857TIP3    H277987   3.411   3.233   1.762 -0.0245  0.5530  1.3293
18858TIP3   OH277988   3.932   0.762   4.816 -0.7585  0.3024  0.6351
18858TIP3    H177989   3.941   0.749   4.910  2.9688  0.0603  0.2915
18858TIP3    H277990   3.930   0.857   4.804  3.5888  0.4528  0.6226
18859TIP3   OH277991   0.054   5.877  13.742 -0.0995 -0.5962  0.1007
18859TIP3    H177992  -0.019   5.883  13.803 -1.6319 -0.9828 -1.6692
18859TIP3    H277993   0.121   5.828  13.790 -1.7760 -2.0829  0.9889
18860TIP3   OH277994   3.903   3.863  13.910  0.5471 -0.3875 -0.7816
18860TIP3    H177995   3.942   3.803  13.973 -2.0816  1.0381  2.3849
18860TIP3    H277996   3.838   3.810  13.863 -0.2084 -0.5763  0.4509
18861TIP3   OH277997   4.532   3.466  16.136 -0.7354 -0.3556 -0.4475
18861TIP3    H177998   4.576   3.508  16.062  1.2846  0.3924  1.1294
18861TIP3    H277999   4.514   3.377  16.107 -2.4536  0.6816 -2.8002
18862TIP3   OH278000   2.486   4.447  11.615  0.0157 -0.5273  0.1377
18862TIP3    H178001   2.429   4.371  11.611 -1.1309  0.3952 -3.0580
18862TIP3    H278002   2.547   4.435  11.542  1.3760  0.4053  1.1160
18863TIP3   OH278003   3.004   6.569  14.011 -0.1256  0.0446 -0.2398
18863TIP3    H178004   3.056   6.598  14.086 -1.3117  0.7038  0.3419
18863TIP3    H278005   3.069   6.541  13.946  1.1387  4.3715 -1.0069
18864TIP3   OH278006   3.888   0.057   1.411  0.5339 -0.6216  0.1401
18864TIP3    H178007   3.902   0.072   1.317 -0.0961  0.4676  0.2110
18864TIP3    H278008   3.856   0.141   1.444  1.1833 -0.8664  1.4231
18865TIP3   OH278009   5.122   2.795   2.535  0.3470 -0.3791  0.4295
18865TIP3    H178010   5.194   2.793   2.472  1.0785 -0.4507  1.2546
18865TIP3    H278011   5.143   2.727   2.598 -0.5517 -0.5321  0.5722
18866TIP3   OH278012   4.170   0.478  13.503  0.4596 -0.1710 -0.1297
18866TIP3    H178013   4.234   0.413  13.530  1.8657  0.9852 -0.6013
18866TIP3    H278014   4.199   0.506  13.416 -1.2260 -0.3066 -0.7598
18867TIP3   OH278015   5.537   2.912   2.519  0.0017  0.1321  0.1505
18867TIP3    H178016   5.536   2.916   2.423  1.1795  0.0675  0.1302
18867TIP3    H278017   5.444   2.918   2.544 -0.4373 -1.3645 -1.0361
18868TIP3   OH278018   1.522   4.175  13.987 -0.5196  0.2542  0.1236
18868TIP3    H178019   1.487   4.143  13.904  0.7969 -0.1558 -0.2880
18868TIP3    H278020   1.570   4.254  13.964  1.9363 -1.1917  0.0836
18869TIP3   OH278021   1.534   4.340   3.574  0.3229 -0.0255  0.8385
18869TIP3    H178022   1.533   4.270   3.508  0.5205 -0.0464  0.8597
18869TIP3    H278023   1.583   4.304   3.647 -3.5561 -1.6667  2.8011
18870TIP3   OH278024   3.496   5.281  16.169  0.0203  0.2904  0.1131
18870TIP3    H178025   3.579   5.234  16.168 -1.0092 -1.5646  0.3863
18870TIP3    H278026   3.498   5.330  16.251  0.4873 -0.4115  0.5298
18871TIP3   OH278027   3.742   1.609   1.683  0.4612 -0.1764  0.1423
18871TIP3    H178028   3.805   1.539   1.666  0.4900  0.2801 -1.6499
18871TIP3    H278029   3.657   1.571   1.660  0.2350 -0.2837  1.1156
18872TIP3   OH278030   2.594   1.518  11.312  0.6319 -0.2650  0.1463
18872TIP3    H178031   2.656   1.480  11.250  1.8007 -0.2572  1.2681
18872TIP3    H278032   2.567   1.601  11.272 -0.7398 -1.5103 -1.5926
18873TIP3   OH278033   0.530   6.540  12.564 -0.7189 -0.6149  0.0745
18873TIP3    H178034   0.440   6.555  12.534 -0.7382  0.3736  0.6030
18873TIP3    H278035   0.578   6.517  12.484 -1.6931 -2.4096 -0.0213
18874TIP3   OH278036   4.443   2.253   0.400 -0.9281  0.0941 -0.8495
18874TIP3    H178037   4.471   2.168   0.366  0.7621  0.6952 -1.0412
18874TIP3    H278038   4.521   2.308   0.391 -1.4434  1.1608  0.9682
18875TIP3   OH278039   4.065   1.342   1.953 -0.6787  0.3841  0.0234
18875TIP3    H178040   4.124   1.267   1.951  0.4861  1.3068 -0.9106
18875TIP3    H278041   3.978   1.303   1.960 -0.1690 -1.1188 -1.4311
18876TIP3   OH278042   4.935   1.717   5.491 -0.1568 -0.4662 -0.0828
18876TIP3    H178043   4.992   1.754   5.424 -0.5554  0.8398  0.3026
18876TIP3    H278044   4.972   1.630   5.508  0.9850 -0.1064 -0.7075
18877TIP3   OH278045   4.264   4.968   4.137 -0.5884  0.1421  0.0348
18877TIP3    H178046   4.235   4.941   4.224 -1.7571  0.3956 -0.2643
18877TIP3    H278047   4.340   4.913   4.119 -1.7899 -1.6244  0.2194
18878TIP3   OH278048   4.847   3.212  15.828  0.3173 -0.1053  0.1125
18878TIP3    H178049   4.828   3.297  15.869  2.0223 -1.1733  3.3221
18878TIP3    H278050   4.932   3.224  15.786  0.3252 -0.0919  0.1317
18879TIP3   OH278051   3.482   2.644   5.107  0.2456 -0.0183  0.1146
18879TIP3    H178052   3.576   2.662   5.107  0.4526 -1.0743  0.5703
18879TIP3    H278053   3.444   2.719   5.153  1.0728 -0.6069  1.7840
18880TIP3   OH278054   2.941   2.054  13.477 -0.5282 -0.1940 -0.9718
18880TIP3    H178055   2.889   2.134  13.470  0.1101  0.2823 -0.3752
18880TIP3    H278056   2.946   2.037  13.571  1.4213  0.4612 -0.9430
18881TIP3   OH278057   4.639   6.744   2.277  0.6052 -0.0605 -0.5007
18881TIP3    H178058   4.672   6.702   2.356  1.1058  1.1046 -0.0830
18881TIP3    H278059   4.561   6.790   2.305  1.3363  1.1819 -0.4552
18882TIP3   OH278060   1.791   5.171  16.963 -0.1012  0.0234  0.0631
18882TIP3    H178061   1.781   5.093  17.017  1.9144 -0.3460 -0.0563
18882TIP3    H278062   1.786   5.244  17.025 -0.6362 -0.2709  0.3663
18883TIP3   OH278063   5.275   0.746  14.413  0.5173  0.6683 -0.2220
18883TIP3    H178064   5.367   0.770  14.404  0.0363  3.0764  0.7813
18883TIP3    H278065   5.243   0.801  14.485 -0.7730 -2.8962  2.0446
18884TIP3   OH278066   1.320   5.096  11.800  0.1707 -0.0463 -0.2010
18884TIP3    H178067   1.407   5.136  11.795  0.6040 -1.0737 -1.0145
18884TIP3    H278068   1.320   5.049  11.883 -0.2275  1.3806  0.6126
18885TIP3   OH278069   6.627   3.563   5.038  0.1659  0.2781 -0.6881
18885TIP3    H178070   6.585   3.648   5.022  0.1807  0.5817  0.8786
18885TIP3    H278071   6.557   3.508   5.075  0.2503 -0.3042 -1.3662
18886TIP3   OH278072   4.414   3.662   1.387 -0.1278 -0.1517  1.0610
18886TIP3    H178073   4.344   3.656   1.452 -1.7782 -1.0690 -0.7490
18886TIP3    H278074   4.407   3.751   1.353  0.1514  0.0325  1.4743
18887TIP3   OH278075   3.202   0.711   1.347  0.3424 -0.3275 -0.0936
18887TIP3    H178076   3.144   0.775   1.304 -0.9086 -2.8097 -2.2084
18887TIP3    H278077   3.223   0.751   1.431 -0.9496  2.5769 -1.0788
18888TIP3   OH278078   1.176   5.016  13.690  0.3465 -0.2077 -0.1384
18888TIP3    H178079   1.084   5.035  13.671  1.0392  2.2712 -1.1569
18888TIP3    H278080   1.216   4.999  13.605  0.5880 -2.6385  0.4147
18889TIP3   OH278081   0.892   1.338   0.151 -0.1054  0.5094  0.3847
18889TIP3    H178082   0.926   1.362   0.238 -0.3997  0.1627  0.5942
18889TIP3    H278083   0.797   1.350   0.158 -0.0137  1.6800 -0.2641
18890TIP3   OH278084   1.316   5.130   1.142  0.3349 -0.1432  0.5789
18890TIP3    H178085   1.225   5.157   1.132  0.2651  0.1032  1.7825
18890TIP3    H278086   1.367   5.207   1.117  0.2364 -0.5930 -1.0348
18891TIP3   OH278087   0.093   3.789  17.087  0.0549 -0.6816  0.4348
18891TIP3    H178088   0.119   3.703  17.055 -1.8581 -1.0560 -0.1566
18891TIP3    H278089   0.000   3.781  17.108 -0.0419  1.0979  0.8380
18892TIP3   OH278090   3.273   0.263  16.625  0.4180  0.0218  0.1232
18892TIP3    H178091   3.191   0.216  16.639 -1.6208  2.8529 -1.6564
18892TIP3    H278092   3.318   0.213  16.557 -0.6456 -0.6350 -0.1114
18893TIP3   OH278093   6.185   5.096   0.461 -0.0522  0.3098  0.6368
18893TIP3    H178094   6.186   5.174   0.516  0.5466  0.6737  0.1183
18893TIP3    H278095   6.267   5.051   0.480 -0.1033  0.1406  0.4666
18894TIP3   OH278096   0.285   4.050  13.120  0.4929 -0.0971  0.0544
18894TIP3    H178097   0.244   3.986  13.063  0.8134  0.8938 -1.3032
18894TIP3    H278098   0.303   4.125  13.064 -0.1587  1.3156  1.6788
18895TIP3   OH278099   2.493   0.906   4.209 -0.2128 -0.8675 -0.3179
18895TIP3    H178100   2.443   0.980   4.243  1.1248 -0.7576  1.4461
18895TIP3    H278101   2.481   0.837   4.275 -1.1364 -2.1307 -1.7574
18896TIP3   OH278102   4.531   3.217   3.008 -0.5288 -0.1841 -0.1030
18896TIP3    H178103   4.467   3.270   2.960 -0.3513  0.2713  0.1593
18896TIP3    H278104   4.559   3.273   3.080  0.0303 -0.4501 -0.1105
18897TIP3   OH278105   1.019   4.820   1.263  0.0162 -0.0191 -0.2384
18897TIP3    H178106   1.083   4.783   1.324 -0.8406 -0.0841  0.6340
18897TIP3    H278107   0.934   4.804   1.305 -0.4565  1.6783 -0.5318
18898TIP3   OH278108   1.469   3.477   3.941  0.3863  0.0966  0.7003
18898TIP3    H178109   1.466   3.439   4.029 -0.1001  1.3544  1.2364
18898TIP3    H278110   1.469   3.402   3.883 -0.7038 -0.7228  1.7411
18899TIP3   OH278111   5.005   2.150  10.831  0.3672 -0.0506 -0.2897
18899TIP3    H178112   4.970   2.064  10.807 -1.6579  0.4422  0.7441
18899TIP3    H278113   5.015   2.195  10.747  2.5518 -1.6616 -0.9396
18900TIP3   OH278114   1.922   2.329  15.779 -0.2944  0.4204 -0.2055
18900TIP3    H178115   1.892   2.376  15.857 -1.2604 -1.6665  0.7088
18900TIP3    H278116   1.843   2.314  15.728 -0.0945 -0.8250 -0.1517
18901TIP3   OH278117   5.867   1.062   4.610  0.5248 -0.2123  0.6987
18901TIP3    H178118   5.943   1.115   4.584 -1.2773  1.5656 -1.1278
18901TIP3    H278119   5.836   1.024   4.528 -0.3600 -1.1802  1.4816
18902TIP3   OH278120   2.742   5.651   3.895  0.0072  0.4309  0.2936
18902TIP3    H178121   2.799   5.725   3.874  1.1255 -0.5772 -0.2406
18902TIP3    H278122   2.662   5.692   3.928  0.8459  1.8644  0.5891
18903TIP3   OH278123   0.582   2.437   2.556 -0.2125  0.0594 -0.4268
18903TIP3    H178124   0.519   2.369   2.578  1.0997 -1.2920 -0.8020
18903TIP3    H278125   0.582   2.440   2.460 -1.7711  2.0382 -0.4130
18904TIP3   OH278126   6.354   6.419  11.587 -0.1644  0.2275 -0.0395
18904TIP3    H178127   6.440   6.392  11.556 -0.3927 -2.2701  1.3850
18904TIP3    H278128   6.296   6.403  11.513  0.4449  1.2006 -0.7436
18905TIP3   OH278129   3.320   6.128   5.087  0.3851 -0.4961  0.2760
18905TIP3    H178130   3.293   6.187   5.157  2.1796  1.0276 -0.2803
18905TIP3    H278131   3.239   6.106   5.042 -0.6005 -0.3294  1.9252
18906TIP3   OH278132   3.869   3.957   5.838  0.1983 -0.4762  0.2116
18906TIP3    H178133   3.817   4.035   5.859  0.8610  0.0799 -0.2055
18906TIP3    H278134   3.960   3.985   5.849  0.4304 -1.3407  0.5685
18907TIP3   OH278135   4.051   3.174   0.945 -0.3465  0.5114  0.0025
18907TIP3    H178136   3.977   3.234   0.954 -0.5253  0.2352  0.3984
18907TIP3    H278137   4.059   3.133   1.031 -0.9368 -0.8529 -0.5767
18908TIP3   OH278138   2.984   3.549   5.716  0.4776 -0.4965  0.1531
18908TIP3    H178139   3.073   3.577   5.693 -0.0229  0.3185 -0.8465
18908TIP3    H278140   2.928   3.623   5.690 -0.5719 -1.3146  0.0304
18909TIP3   OH278141   0.783   1.231  13.146  0.3036 -0.1339  0.2471
18909TIP3    H178142   0.694   1.256  13.173 -1.3754 -2.7037 -2.5125
18909TIP3    H278143   0.794   1.143  13.181  0.0350 -1.5030 -2.8843
18910TIP3   OH278144   4.525   1.630  11.768  0.1547 -0.2611  0.5703
18910TIP3    H178145   4.613   1.667  11.775  0.0501  0.4006 -1.3555
18910TIP3    H278146   4.511   1.618  11.674 -1.4808 -1.1884  0.9062
18911TIP3   OH278147   5.008   3.977  12.452 -0.8428  0.4322 -0.2905
18911TIP3    H178148   5.030   3.945  12.364 -0.5093 -3.3721  1.0584
18911TIP3    H278149   4.920   4.014  12.443 -1.6394 -1.7373 -1.8599
18912TIP3   OH278150   1.868   3.828   5.490 -0.1112 -0.2283  0.2991
18912TIP3    H178151   1.775   3.807   5.503  0.1134 -1.0060  0.6706
18912TIP3    H278152   1.875   3.921   5.510 -0.9422 -0.0018 -0.4179
18913TIP3   OH278153   5.042   4.651  12.036 -0.0004  0.0392  0.1660
18913TIP3    H178154   4.992   4.685  11.962 -2.0539 -0.8768  1.0862
18913TIP3    H278155   5.090   4.576  12.001 -1.2909 -0.6534 -0.1682
18914TIP3   OH278156   5.296   1.546   3.304 -0.2768 -0.1317  0.6429
18914TIP3    H178157   5.296   1.557   3.399 -0.2047 -1.1656  0.7660
18914TIP3    H278158   5.286   1.452   3.291  0.1636 -0.0413 -0.3669
18915TIP3   OH278159   1.240   1.859  13.975  0.2409 -0.5594  0.1137
18915TIP3    H178160   1.239   1.954  13.979  0.1871 -0.4984 -1.2613
18915TIP3    H278161   1.214   1.831  14.063  1.9778  0.6830  1.0336
18916TIP3   OH278162   3.903   1.882  12.083  0.1801  0.3328 -0.0993
18916TIP3    H178163   3.886   1.788  12.070  2.6041 -0.1573 -0.0020
18916TIP3    H278164   3.887   1.921  11.997 -0.6955 -0.1961 -0.1804
18917TIP3   OH278165   5.745   4.516   3.908 -0.0863  0.1161 -0.1064
18917TIP3    H178166   5.755   4.569   3.987 -0.0148 -0.6207  0.3904
18917TIP3    H278167   5.822   4.458   3.908 -0.5284 -0.4843 -0.2452
18918TIP3   OH278168   3.052   5.680  15.347  0.1378 -0.6771  0.3692
18918TIP3    H178169   2.992   5.628  15.401 -0.4323 -0.9466 -0.5015
18918TIP3    H278170   3.124   5.620  15.327  0.7202 -0.3423  1.4469
18919TIP3   OH278171   4.955   1.588   4.848 -0.9768 -0.6416  0.0180
18919TIP3    H178172   5.010   1.621   4.777 -0.1077 -1.4355  0.3174
18919TIP3    H278173   5.016   1.563   4.917 -1.7048 -1.4939  0.3665
18920TIP3   OH278174   0.501   5.872   1.034 -0.2454  0.1192  0.5435
18920TIP3    H178175   0.486   5.878   0.940  1.3058 -0.7031  0.2298
18920TIP3    H278176   0.440   5.936   1.072 -1.5503 -0.2257 -0.9317
18921TIP3   OH278177   1.090   0.956  13.274  0.1061 -0.1807  0.1928
18921TIP3    H178178   1.164   0.966  13.334  0.3115  1.6275 -0.3353
18921TIP3    H278179   1.128   0.918  13.195  0.4038  0.3817  0.0641
18922TIP3   OH278180   1.559   6.411  16.196 -0.5941 -0.1171  0.4170
18922TIP3    H178181   1.619   6.485  16.198  0.7955 -1.1590 -1.3090
18922TIP3    H278182   1.483   6.441  16.245 -0.0352  2.4463 -0.1936
18923TIP3   OH278183   6.389   3.219  14.733 -0.1526  0.0078  0.0072
18923TIP3    H178184   6.319   3.239  14.795  0.2208  0.8664  0.1636
18923TIP3    H278185   6.439   3.149  14.774 -1.4767 -1.2678 -0.5362
18924TIP3   OH278186   4.802   5.865   3.892 -0.3841  0.2534 -0.0007
18924TIP3    H178187   4.726   5.827   3.847  1.6487 -0.9744 -2.5732
18924TIP3    H278188   4.825   5.801   3.959 -0.7304 -0.0631 -0.1831
18925TIP3   OH278189   1.000   5.290  15.612 -0.3142 -0.1230 -0.2667
18925TIP3    H178190   1.083   5.244  15.618 -0.0562  0.5279  1.8937
18925TIP3    H278191   0.936   5.223  15.590  0.3635 -1.1579  0.8687
18926TIP3   OH278192   2.428   2.758   6.234  0.5568  0.7189 -0.3038
18926TIP3    H178193   2.419   2.798   6.321 -1.0063 -0.4397  0.0911
18926TIP3    H278194   2.522   2.762   6.216  1.0588 -0.0208  1.9420
18927TIP3   OH278195   2.753   1.465  16.299  0.4132 -0.7696 -0.1055
18927TIP3    H178196   2.733   1.487  16.207  0.0158 -2.5005 -0.4545
18927TIP3    H278197   2.837   1.507  16.316 -0.0762  0.5846 -0.8783
18928TIP3   OH278198   5.154   5.569  12.320  0.5383  0.0025 -0.0117
18928TIP3    H178199   5.165   5.506  12.248 -2.4929 -0.7802  0.1001
18928TIP3    H278200   5.242   5.593  12.346  1.7124 -1.0939 -2.8110
18929TIP3   OH278201   3.571   4.874  17.019 -0.3753  0.1640 -0.5198
18929TIP3    H178202   3.596   4.803  17.079  1.5356  0.2295 -1.1988
18929TIP3    H278203   3.595   4.841  16.932  1.0717  1.8417 -0.7913
18930TIP3   OH278204   5.922   2.287  12.769 -0.5061 -0.3406  0.4384
18930TIP3    H178205   5.859   2.327  12.829 -0.7207  1.5675 -0.9919
18930TIP3    H278206   5.871   2.222  12.721 -0.9828  0.0227  0.4464
18931TIP3   OH278207   3.036   0.912  15.992  0.4771  0.3726  0.3230
18931TIP3    H178208   3.112   0.926  15.935  0.9384  1.2998  1.1639
18931TIP3    H278209   3.043   0.820  16.018  1.6187  0.5901  0.8235
18932TIP3   OH278210   4.838   1.297   3.885  0.2176 -1.2025 -0.2517
18932TIP3    H178211   4.877   1.287   3.972 -1.2410  0.7429  0.6660
18932TIP3    H278212   4.876   1.379   3.851 -1.6480 -0.2335 -0.0758
18933TIP3   OH278213   2.970   2.857   0.167 -0.4996  0.3243  0.2523
18933TIP3    H178214   2.945   2.830   0.078  0.3103  1.5507 -0.3607
18933TIP3    H278215   2.968   2.776   0.218  0.4081 -0.6445 -1.2058
18934TIP3   OH278216   0.393   3.953  16.021 -0.4682 -0.8901  0.1971
18934TIP3    H178217   0.448   4.019  16.064 -0.5201 -0.5711 -0.2122
18934TIP3    H278218   0.303   3.983  16.037 -0.4881 -0.7803 -0.1128
18935TIP3   OH278219   0.394   5.059  10.436 -0.1179 -0.1873 -0.2399
18935TIP3    H178220   0.488   5.041  10.426 -0.3989 -0.9989 -1.5528
18935TIP3    H278221   0.390   5.129  10.500  1.2693 -1.5600  1.3915
18936TIP3   OH278222   0.074   1.393   1.789  0.9178  0.3232 -0.3549
18936TIP3    H178223   0.082   1.317   1.731  1.7617  1.6317 -1.9996
18936TIP3    H278224  -0.020   1.411   1.792  0.9759  1.0707 -2.4452
18937TIP3   OH278225   5.912   3.705  11.970 -0.3381 -0.0514 -0.3471
18937TIP3    H178226   5.982   3.664  12.020  2.3264  0.0493 -3.8294
18937TIP3    H278227   5.882   3.636  11.911 -0.6883  0.9820 -1.3729
18938TIP3   OH278228   1.072   6.145  12.646  0.0840  0.1520 -0.2279
18938TIP3    H178229   1.005   6.148  12.578 -1.8301  0.8267  1.6458
18938TIP3    H278230   1.129   6.220  12.625 -1.2689  1.1815 -0.3176
18939TIP3   OH278231   6.714   4.973   0.731 -0.6736 -0.3438  0.2843
18939TIP3    H178232   6.700   4.879   0.726  1.3015 -0.7174  1.6058
18939TIP3    H278233   6.665   5.008   0.656 -0.8440 -2.4570 -0.6197
18940TIP3   OH278234   0.013   3.968  13.988  0.2446 -0.0447 -0.0200
18940TIP3    H178235   0.072   3.990  14.060  0.6170 -1.4620  0.1197
18940TIP3    H278236  -0.069   3.943  14.032 -0.0381  0.6073 -0.1635
18941TIP3   OH278237   0.747   1.164   2.978 -0.0353 -0.6473 -0.7428
18941TIP3    H178238   0.682   1.176   2.909 -0.0607 -2.8346 -1.1229
18941TIP3    H278239   0.701   1.117   3.047  1.2346 -2.7147 -1.2438
18942TIP3   OH278240   0.785   5.420   2.541 -0.3943 -0.3641 -0.5905
18942TIP3    H178241   0.838   5.468   2.477 -0.2110  0.2553  0.0199
18942TIP3    H278242   0.749   5.488   2.597  1.4804 -1.0761  1.5228
18943TIP3   OH278243   0.435   0.699   0.063 -0.2948 -0.4151  0.3508
18943TIP3    H178244   0.528   0.720   0.064 -0.2667 -0.2943 -1.8704
18943TIP3    H278245   0.397   0.755   0.130  1.2066 -0.3695  1.1916
18944TIP3   OH278246   3.809   0.223  14.377 -0.5200 -0.1439 -0.3254
18944TIP3    H178247   3.852   0.138  14.370  2.3133  1.0662  1.7547
18944TIP3    H278248   3.847   0.275  14.306 -2.2715 -0.5522 -1.6137
18945TIP3   OH278249   5.775   5.308   0.705 -0.5226 -0.3638  0.2575
18945TIP3    H178250   5.724   5.388   0.696 -0.7455 -0.4675  0.5614
18945TIP3    H278251   5.821   5.318   0.788 -1.0553 -0.8248  0.6166
18946TIP3   OH278252   0.220   4.962   3.970  0.4946  0.7026 -0.1508
18946TIP3    H178253   0.177   4.986   4.052 -1.5816  1.0679 -1.2900
18946TIP3    H278254   0.218   5.041   3.917  1.0797  0.2561 -0.8533
18947TIP3   OH278255   6.187   3.086  16.199 -0.1576 -0.2748  0.3167
18947TIP3    H178256   6.097   3.083  16.165  0.1623 -0.6453 -0.5052
18947TIP3    H278257   6.186   3.158  16.262 -0.5720  0.9259 -1.0317
18948TIP3   OH278258   6.621   0.555  13.200  0.2704  0.8315 -0.5244
18948TIP3    H178259   6.601   0.559  13.106 -1.8244 -1.7683 -0.2561
18948TIP3    H278260   6.554   0.609  13.241 -0.0258  0.3783 -0.4010
18949TIP3   OH278261   6.184   0.889   3.641  0.2384 -0.2679  0.5884
18949TIP3    H178262   6.268   0.906   3.598  0.3343 -1.6368  0.2193
18949TIP3    H278263   6.133   0.841   3.575 -1.0027  0.9595  0.6438
18950TIP3   OH278264   6.544   0.574  14.601 -0.4223 -0.5872 -0.2913
18950TIP3    H178265   6.602   0.643  14.635 -1.4610  0.2041 -0.1050
18950TIP3    H278266   6.491   0.548  14.676 -0.6088 -1.0053 -0.5658
18951TIP3   OH278267   0.092   6.220   3.191  0.0387  0.7531 -0.5771
18951TIP3    H178268   0.130   6.304   3.218 -0.5479  0.6426  0.6354
18951TIP3    H278269   0.167   6.161   3.184  0.1462  0.5497  1.7718
18952TIP3   OH278270   6.362   0.213  12.136 -0.6661 -0.0944 -0.1931
18952TIP3    H178271   6.360   0.118  12.123 -2.3138  0.1299 -1.7037
18952TIP3    H278272   6.300   0.228  12.207  0.2578 -0.2143  0.6584
18953TIP3   OH278273   6.696   5.347   4.816 -0.5705 -0.0651  0.0816
18953TIP3    H178274   6.677   5.414   4.882  0.8795 -1.3953  1.9053
18953TIP3    H278275   6.763   5.387   4.760 -2.3204  1.3375 -1.0499
18954TIP3   OH278276   0.980   4.835  11.228 -0.1858 -0.0098  0.2196
18954TIP3    H178277   0.925   4.772  11.274  2.5196 -2.7799 -0.2367
18954TIP3    H278278   0.962   4.819  11.135  1.4381 -1.0488  0.0605
18955TIP3   OH278279   1.114   2.734   0.628 -0.1037 -0.3288 -0.1535
18955TIP3    H178280   1.152   2.801   0.571  1.6039 -1.0422  0.1137
18955TIP3    H278281   1.114   2.773   0.715 -1.1549  0.1265 -0.3424
18956TIP3   OH278282   5.304   2.502   1.060  0.0685 -0.2354 -0.1485
18956TIP3    H178283   5.255   2.491   0.979  1.1566  1.3618 -1.0589
18956TIP3    H278284   5.387   2.456   1.046 -0.0399 -0.5820  0.3327
18957TIP3   OH278285   3.353   2.790  15.886 -0.7018  0.1852  0.4835
18957TIP3    H178286   3.319   2.863  15.833 -1.4807 -0.7883 -0.3839
18957TIP3    H278287   3.341   2.818  15.976 -0.9736  1.1489  0.1529
18958TIP3   OH278288   6.416   0.160  16.332  0.2684 -0.4279  0.8089
18958TIP3    H178289   6.506   0.169  16.302  0.0743 -1.3092 -0.0529
18958TIP3    H278290   6.399   0.241  16.381  1.3006  0.0385  0.4181
18959TIP3   OH278291   6.406   0.926  12.888 -0.3684  0.5650 -0.7049
18959TIP3    H178292   6.374   0.982  12.958  0.0327  3.2094 -2.5779
18959TIP3    H278293   6.498   0.951  12.876 -0.0089 -0.9117 -1.1512
18960TIP3   OH278294   0.004   5.863   1.336 -0.5122 -0.2712 -0.0910
18960TIP3    H178295  -0.014   5.769   1.326  1.0706 -0.3748 -2.3528
18960TIP3    H278296  -0.009   5.880   1.429  0.5954 -3.0620  0.6298
18961TIP3   OH278297   3.614   3.954   4.649  0.1347 -0.0859 -0.1059
18961TIP3    H178298   3.619   4.030   4.592  0.4151 -0.5749 -0.7338
18961TIP3    H278299   3.632   3.879   4.592  0.0579 -0.6082  0.5444
18962TIP3   OH278300   1.072   3.308   0.213 -0.3423  0.1112 -0.5296
18962TIP3    H178301   1.135   3.347   0.152 -0.0281 -2.7955 -2.1261
18962TIP3    H278302   0.990   3.307   0.165 -0.7001  0.1931  0.0739
18963TIP3   OH278303   1.087   6.626   1.093 -0.7173  0.5643  0.5922
18963TIP3    H178304   1.182   6.628   1.104 -0.6013  0.0950 -0.2933
18963TIP3    H278305   1.053   6.646   1.180  0.1615 -2.0267  1.5762
18964TIP3   OH278306   6.174   2.177   4.359  0.4643 -0.2197 -0.1564
18964TIP3    H178307   6.215   2.107   4.309  2.1091  0.2125  0.5587
18964TIP3    H278308   6.168   2.143   4.448 -0.0742 -0.0001 -0.1049
18965TIP3   OH278309   6.477   0.009   3.915 -0.5824 -0.3443 -0.4882
18965TIP3    H178310   6.554   0.033   3.863 -0.7521 -0.2259 -0.6885
18965TIP3    H278311   6.415   0.081   3.901 -0.6256 -0.3068 -0.1113
18966TIP3   OH278312   0.497   6.637   3.610 -0.0864 -0.1946 -0.2534
18966TIP3    H178313   0.516   6.570   3.676  0.6801  1.4867  1.2520
18966TIP3    H278314   0.401   6.644   3.611 -0.0215  0.6638  1.5471
18967TIP3   OH278315   2.122   0.701  15.986  0.1577  0.1406  0.0025
18967TIP3    H178316   2.172   0.772  16.027  0.7598  0.1272 -0.7044
18967TIP3    H278317   2.185   0.657  15.929 -0.2261 -0.9185  0.3774
18968TIP3   OH278318   2.026   3.378   5.920  0.2234  0.1022  0.2574
18968TIP3    H178319   2.093   3.369   5.987 -0.0393 -3.9192  0.1166
18968TIP3    H278320   1.948   3.408   5.968  0.6056 -0.7479  1.4422
18969TIP3   OH278321   2.896   1.163   2.871 -0.4814 -0.2943  0.1748
18969TIP3    H178322   2.849   1.096   2.922 -1.0027  0.0084  0.0949
18969TIP3    H278323   2.843   1.173   2.792 -0.7938  0.7339  0.5093
18970TIP3   OH278324   1.408   2.060   3.372  0.5000 -0.2909  0.4513
18970TIP3    H178325   1.457   1.985   3.406  1.9514 -0.0646 -1.1291
18970TIP3    H278326   1.354   2.024   3.302  0.3068 -0.0747  0.4872
18971TIP3   OH278327   3.654   6.492   3.749  0.0965  0.8743  0.0166
18971TIP3    H178328   3.715   6.560   3.781 -0.1439  0.9447  0.3229
18971TIP3    H278329   3.692   6.410   3.779  0.0428  0.9181  0.2036
18972TIP3   OH278330   0.491   0.119  15.660 -0.5442 -0.1944  0.7074
18972TIP3    H178331   0.487   0.210  15.631 -0.8027 -1.0589 -2.1726
18972TIP3    H278332   0.404   0.102  15.696 -1.9548 -0.4244 -2.5730
18973TIP3   OH278333   4.185   5.768  11.482  0.2366  0.4746  0.2740
18973TIP3    H178334   4.231   5.713  11.546 -0.3360  0.6394  0.8311
18973TIP3    H278335   4.167   5.849  11.528 -0.9301  0.2825  0.1787
18974TIP3   OH278336   2.568   5.985  15.134  0.2356  0.2631  0.0274
18974TIP3    H178337   2.622   6.022  15.064 -0.2865  1.8217  0.4326
18974TIP3    H278338   2.630   5.937  15.189  0.7338 -0.4827 -1.1689
18975TIP3   OH278339   1.335   0.194  15.932  0.8144  0.1420  0.1427
18975TIP3    H178340   1.268   0.260  15.949 -0.2496 -1.3886  2.0931
18975TIP3    H278341   1.296   0.137  15.865  0.3046 -0.4863  0.9546
18976TIP3   OH278342   0.348   2.807   5.347  0.3552  0.2944 -0.1810
18976TIP3    H178343   0.423   2.751   5.366 -0.9298 -1.1847  0.7475
18976TIP3    H278344   0.272   2.750   5.362 -0.9162  1.1811 -2.9727
18977TIP3   OH278345   2.698   6.039   0.947 -0.2291 -0.0021  0.6673
18977TIP3    H178346   2.650   5.957   0.955 -0.3455  0.2700  3.0162
18977TIP3    H278347   2.641   6.105   0.987  0.0322  1.1740 -0.8293
18978TIP3   OH278348   5.556   3.430  14.086  0.0187 -0.1393  0.1791
18978TIP3    H178349   5.638   3.461  14.125  1.0101 -3.1101  0.6364
18978TIP3    H278350   5.553   3.471  14.000  1.0522  1.4609  0.8813
18979TIP3   OH278351   3.116   4.682   3.261 -0.1493  0.3843 -0.4486
18979TIP3    H178352   3.096   4.744   3.331 -1.6351  0.3563 -0.8253
18979TIP3    H278353   3.033   4.670   3.215  0.6971  0.0569 -1.9366
18980TIP3   OH278354   2.295   3.161  12.674  0.1391 -0.6695  0.4672
18980TIP3    H178355   2.212   3.135  12.713 -0.1417 -1.7124 -0.8112
18980TIP3    H278356   2.315   3.093  12.610  2.7696 -1.2904  1.8545
18981TIP3   OH278357   0.305   1.679   2.202  0.6565  0.8063 -0.5569
18981TIP3    H178358   0.344   1.636   2.126  1.6889 -0.6771  0.8013
18981TIP3    H278359   0.242   1.615   2.236 -1.1336  2.1753 -1.2102
18982TIP3   OH278360   4.708   2.172   2.511 -0.2253  0.0601 -0.2873
18982TIP3    H178361   4.775   2.111   2.478 -0.1088  1.4105 -2.6217
18982TIP3    H278362   4.637   2.115   2.539  0.1386 -1.2226 -1.8394
18983TIP3   OH278363   5.211   3.718   3.155 -0.3406  0.2124  0.0151
18983TIP3    H178364   5.290   3.693   3.106 -1.0613 -0.3519 -0.8641
18983TIP3    H278365   5.240   3.722   3.247  0.9633  1.0389 -0.4074
18984TIP3   OH278366   2.040   0.651  11.865 -0.0692  0.0576 -0.6125
18984TIP3    H178367   2.094   0.664  11.788 -1.3943 -2.1449 -1.9756
18984TIP3    H278368   2.093   0.597  11.923  0.3344  0.3928 -0.6752
18985TIP3   OH278369   2.731   6.522  13.374 -0.4957  0.8290  0.2267
18985TIP3    H178370   2.807   6.484  13.418 -2.2157 -0.2019  2.3852
18985TIP3    H278371   2.660   6.461  13.392 -1.5634  1.1005 -2.8707
18986TIP3   OH278372   6.688   3.432  16.866  0.0902  0.0553  0.1273
18986TIP3    H178373   6.607   3.483  16.859  0.6001  0.7903 -0.4245
18986TIP3    H278374   6.747   3.471  16.802  0.3167 -1.5783 -0.6881
18987TIP3   OH278375   0.394   6.098  14.039 -0.2923  0.4959 -0.3441
18987TIP3    H178376   0.432   6.023  14.085  2.2921  0.9276 -1.6601
18987TIP3    H278377   0.331   6.135  14.101  0.9554 -0.6770  1.6957
18988TIP3   OH278378   2.535   6.615   4.598 -0.0828  0.1322  0.2423
18988TIP3    H178379   2.458   6.671   4.592  1.0792  2.0468  2.5915
18988TIP3    H278380   2.605   6.664   4.555  1.0188  0.6999  2.5749
18989TIP3   OH278381   1.411   3.195   1.704 -0.1020 -0.4053  0.3528
18989TIP3    H178382   1.490   3.247   1.718  0.3814 -1.6236  2.3517
18989TIP3    H278383   1.354   3.252   1.652  1.9238  0.6332 -0.8117
18990TIP3   OH278384   0.556   4.809  12.984  0.2224 -0.0090  0.3228
18990TIP3    H178385   0.581   4.895  12.950 -2.5481  0.8679  0.3727
18990TIP3    H278386   0.478   4.825  13.036 -0.9789 -2.7197 -0.5288
18991TIP3   OH278387   6.736   3.770  15.679  0.0282  0.3825  0.3340
18991TIP3    H178388   6.784   3.797  15.601  0.2792  0.0122  0.3616
18991TIP3    H278389   6.657   3.825  15.678 -0.6334 -0.5516 -0.9006
18992TIP3   OH278390   0.989   1.833  17.022  0.3287  0.2695 -0.0576
18992TIP3    H178391   0.951   1.809  17.106  1.2383 -1.3345 -0.0842
18992TIP3    H278392   1.049   1.905  17.042 -0.2895  0.6514  0.4696
18993TIP3   OH278393   3.199   6.635  10.728  0.2755  0.5702 -0.2050
18993TIP3    H178394   3.184   6.594  10.642  1.4564 -0.6126  0.1253
18993TIP3    H278395   3.294   6.651  10.730 -0.0001  2.1449  0.2000
18994TIP3   OH278396   6.220   0.381   1.896 -0.7363  0.1402 -0.2217
18994TIP3    H178397   6.256   0.404   1.811  1.0250  0.4125  0.5641
18994TIP3    H278398   6.241   0.288   1.907 -2.3192 -0.2868 -0.7300
18995TIP3   OH278399   4.501   2.075   1.831  0.1662  0.6031  0.2290
18995TIP3    H178400   4.541   2.093   1.746  0.4249 -0.1507  0.1876
18995TIP3    H278401   4.441   2.148   1.845 -2.8183 -1.2321 -2.3740
18996TIP3   OH278402   5.855   5.352   2.351 -0.2165  0.0331 -0.1620
18996TIP3    H178403   5.765   5.321   2.363  0.0328 -0.3505  0.7499
18996TIP3    H278404   5.863   5.425   2.414 -0.3890  1.1090 -1.3627
18997TIP3   OH278405   1.111   1.652  14.470  0.0601  0.0524  0.2254
18997TIP3    H178406   1.120   1.745  14.487  0.1712  0.4712 -2.0151
18997TIP3    H278407   1.180   1.611  14.522  0.2128  1.2344  0.9677
18998TIP3   OH278408   0.695   3.680   4.860  0.7722 -0.8047  0.2891
18998TIP3    H178409   0.702   3.607   4.921  1.2635 -0.6236  0.4566
18998TIP3    H278410   0.666   3.753   4.914 -0.1781 -0.9892  0.0309
18999TIP3   OH278411   6.330   5.863  16.086  0.1419  0.1349 -0.5155
18999TIP3    H178412   6.309   5.833  15.997 -1.9330  0.8750 -0.3069
18999TIP3    H278413   6.257   5.920  16.109  0.8785  0.2744  1.5215
19000TIP3   OH278414   6.156   5.128  17.109 -0.1542 -0.0145 -0.0357
19000TIP3    H178415   6.083   5.097  17.056 -0.9038  2.3027 -0.4320
19000TIP3    H278416   6.173   5.216  17.076  2.5984 -0.3850  0.2951
19001TIP3   OH278417   1.563   5.516   2.558 -0.1895  0.0868  0.1091
19001TIP3    H178418   1.650   5.501   2.522 -1.0155  0.2982 -2.0125
19001TIP3    H278419   1.510   5.544   2.484 -2.4947 -1.7105  1.0123
19002TIP3   OH278420   2.741   0.208  15.555  0.0779 -0.0396 -0.9963
19002TIP3    H178421   2.725   0.241  15.643 -2.3050 -1.8510 -0.7039
19002TIP3    H278422   2.742   0.112  15.565  0.8923 -0.2370 -2.7557
19003TIP3   OH278423   6.736   0.993   3.765  0.3688 -0.3286 -0.0168
19003TIP3    H178424   6.715   0.912   3.718  1.3719 -0.4405 -0.2677
19003TIP3    H278425   6.831   1.000   3.760  0.5212 -0.5283  2.3186
19004TIP3   OH278426   6.340   1.594  11.696 -0.2106 -0.3207  0.3531
19004TIP3    H178427   6.414   1.535  11.712  2.3218  2.2830 -1.1149
19004TIP3    H278428   6.296   1.557  11.620  1.0669 -0.5735 -0.2763
19005TIP3   OH278429   4.980   2.485  12.443  0.4045  0.1797 -0.2138
19005TIP3    H178430   5.065   2.510  12.406  0.5851  0.5171  0.4400
19005TIP3    H278431   4.917   2.542  12.399  0.4938 -0.1473 -0.7835
19006TIP3   OH278432   3.820   3.000  13.864 -0.0284 -0.0513  0.0056
19006TIP3    H178433   3.881   2.926  13.866  1.6470  1.2967  1.8584
19006TIP3    H278434   3.869   3.070  13.821 -0.9428  0.5262 -0.1120
19007TIP3   OH278435   1.690   4.707  16.519 -0.3764 -0.4969  0.0977
19007TIP3    H178436   1.698   4.714  16.424 -0.4151  0.2461  0.1433
19007TIP3    H278437   1.691   4.613  16.537  1.7077 -0.6126 -0.4657
19008TIP3   OH278438   6.739   5.548  15.314 -0.1632 -0.3123 -0.4856
19008TIP3    H178439   6.764   5.638  15.295  1.2947 -0.3883  0.9359
19008TIP3    H278440   6.800   5.494  15.265 -0.8611 -0.5297 -1.1206
19009TIP3   OH278441   1.843   5.138   1.738 -0.2650 -0.1830  0.0776
19009TIP3    H178442   1.777   5.073   1.764  1.5652 -1.7403  0.9493
19009TIP3    H278443   1.855   5.193   1.815 -0.6357  0.1654 -0.1160
19010TIP3   OH278444   5.632   5.321  14.218  0.2986  0.0991 -0.0647
19010TIP3    H178445   5.608   5.410  14.245  1.3703  0.1659  0.6694
19010TIP3    H278446   5.559   5.267  14.248 -1.1147  0.9167 -1.8784
19011TIP3   OH278447   1.951   4.740   3.516  0.7717  0.5360  0.1732
19011TIP3    H178448   1.906   4.813   3.557 -0.2564  0.1595 -0.2489
19011TIP3    H278449   1.956   4.673   3.584 -1.1388 -0.1752 -0.3556
19012TIP3   OH278450   0.764   1.622  10.591  0.1082 -0.2205  0.1582
19012TIP3    H178451   0.840   1.661  10.634 -0.7703  3.0112 -1.0869
19012TIP3    H278452   0.689   1.652  10.643 -0.3862 -3.7858  1.6800
19013TIP3   OH278453   2.521   4.586  14.548  0.5017 -0.3195  0.1051
19013TIP3    H178454   2.472   4.552  14.473  0.4210  1.1393 -0.5176
19013TIP3    H278455   2.466   4.656  14.584  1.7924  0.8610 -0.1705
19014TIP3   OH278456   3.636   0.608  16.587  0.0813  0.2058 -0.1634
19014TIP3    H178457   3.632   0.701  16.611 -0.6994  0.3882 -0.9581
19014TIP3    H278458   3.566   0.597  16.523 -1.3588 -1.4393  1.6309
19015TIP3   OH278459   1.658   6.069  17.035 -0.7026  0.0286  0.3528
19015TIP3    H178460   1.657   6.054  17.130  0.9847 -2.8349 -0.0383
19015TIP3    H278461   1.628   5.987  16.997  1.7616  0.0037 -1.6871
19016TIP3   OH278462   4.117   0.893   2.962 -0.2098  0.1629 -0.8765
19016TIP3    H178463   4.086   0.955   2.897 -0.6606  0.0502 -0.7711
19016TIP3    H278464   4.199   0.930   2.994 -0.5312  0.7561 -0.7402
19017TIP3   OH278465   1.201   0.022  14.058  0.1267  0.1663  0.0290
19017TIP3    H178466   1.188   0.014  14.152  1.6452  1.5868  0.3622
19017TIP3    H278467   1.293   0.000  14.044 -0.4484 -1.5154 -1.3207
19018TIP3   OH278468   1.957   1.872  12.058  0.2408 -0.5514 -0.0055
19018TIP3    H178469   1.977   1.791  12.010 -1.1604 -0.5581 -0.5923
19018TIP3    H278470   1.864   1.886  12.043  0.2340  0.5566  1.0570
19019TIP3   OH278471   5.070   1.878  17.158  0.4570 -0.1649 -0.2632
19019TIP3    H178472   5.047   1.870  17.065 -0.8345 -0.5541  0.0787
19019TIP3    H278473   5.024   1.806  17.201  0.8458  0.1618  0.7217
19020TIP3   OH278474   2.859   2.135  12.612 -0.3267 -0.3473  0.1926
19020TIP3    H178475   2.920   2.195  12.655 -1.7746  2.2241 -1.2389
19020TIP3    H278476   2.915   2.079  12.558  0.8231  1.8844 -0.9993
19021TIP3   OH278477   5.819   3.574   4.605  0.4926 -0.0976  0.3275
19021TIP3    H178478   5.834   3.482   4.627  1.1442 -0.0545  0.0670
19021TIP3    H278479   5.786   3.612   4.686  0.8087 -0.4219  0.6127
19022TIP3   OH278480   0.942   4.445   2.501 -0.2928  0.3399 -0.2328
19022TIP3    H178481   0.950   4.509   2.431  2.2484  0.5105  0.1389
19022TIP3    H278482   0.983   4.488   2.577 -1.4480 -0.4995  0.8833
19023TIP3   OH278483   0.912   5.688  12.099 -0.0930 -0.4558 -0.6702
19023TIP3    H178484   0.997   5.654  12.072 -0.3199 -0.7414 -1.0316
19023TIP3    H278485   0.858   5.610  12.111  0.3516 -0.4217  1.8260
19024TIP3   OH278486   0.464   6.509  15.242  0.2990  0.0556 -0.0307
19024TIP3    H178487   0.442   6.600  15.261  0.8859  0.4510 -1.2420
19024TIP3    H278488   0.440   6.497  15.150 -1.1763 -1.4367  0.5105
19025TIP3   OH278489   1.649   4.061   4.609  0.0187 -0.5203 -0.6860
19025TIP3    H178490   1.691   3.998   4.550  0.3911 -1.8593  0.9938
19025TIP3    H278491   1.722   4.108   4.650 -0.2167 -0.3985 -0.4065
19026TIP3   OH278492   0.528   3.771  13.679 -0.3718 -0.1986 -0.3252
19026TIP3    H178493   0.535   3.866  13.690 -2.1866  0.2692 -2.6997
19026TIP3    H278494   0.442   3.749  13.715  0.3163 -1.0691  0.8199
19027TIP3   OH278495   2.967   1.795  16.712 -0.0915 -0.1723  0.6594
19027TIP3    H178496   3.059   1.781  16.689 -0.0708 -0.7836  1.1097
19027TIP3    H278497   2.957   1.754  16.798 -0.5080  0.9171  1.1348
19028TIP3   OH278498   0.224   0.760  11.578  0.4358  0.3374  0.0145
19028TIP3    H178499   0.233   0.691  11.644 -3.4859  0.5064  0.8168
19028TIP3    H278500   0.211   0.713  11.496  1.0387  0.1479  0.0205
19029TIP3   OH278501   4.012   2.784  13.858 -0.1305 -0.0517  0.8099
19029TIP3    H178502   4.030   2.696  13.890  0.4895  0.7519  2.7814
19029TIP3    H278503   4.093   2.812  13.816 -0.0102 -0.0660  1.0328
19030TIP3   OH278504   1.756   0.707   4.019  0.2205 -0.2219 -0.1309
19030TIP3    H178505   1.695   0.781   4.010  0.7352  0.0337 -1.6986
19030TIP3    H278506   1.745   0.657   3.938  1.1650 -0.8898  0.1473
19031TIP3   OH278507   1.302   2.079  12.821 -0.3042 -0.4995 -0.7397
19031TIP3    H178508   1.285   2.171  12.842 -0.8583 -0.5998 -0.7476
19031TIP3    H278509   1.280   2.032  12.901 -1.3822 -0.7720 -1.1857
19032TIP3   OH278510   6.733   4.683  12.303  0.0799 -0.6021  0.0101
19032TIP3    H178511   6.775   4.745  12.364 -1.7070  0.0358  0.6124
19032TIP3    H278512   6.779   4.601  12.318  0.2195 -0.2484  1.6584
19033TIP3   OH278513   5.764   0.468  16.558 -0.6284 -0.7907 -0.5185
19033TIP3    H178514   5.809   0.548  16.532  0.2639 -1.4300 -1.0076
19033TIP3    H278515   5.732   0.431  16.475 -1.3075 -0.7774 -0.2602
19034TIP3   OH278516   1.004   5.377  16.789  0.4752 -0.2931 -0.3204
19034TIP3    H178517   0.935   5.444  16.797  0.3469 -0.6400  1.8116
19034TIP3    H278518   0.961   5.303  16.746 -0.4999 -0.4880  0.9524
19035TIP3   OH278519   3.493   4.599  14.427  0.1416  0.0797 -0.8035
19035TIP3    H178520   3.565   4.662  14.431 -0.6465  1.0688 -1.9481
19035TIP3    H278521   3.438   4.621  14.503 -0.0695  0.6902 -1.1326
19036TIP3   OH278522   5.680   0.965  14.101 -0.2744 -0.2644  0.1207
19036TIP3    H178523   5.609   0.998  14.156 -1.7744  0.8909 -2.4322
19036TIP3    H278524   5.646   0.971  14.012  3.4408  1.3208 -1.2671
19037TIP3   OH278525   4.235   3.345   2.313  0.5091 -0.1866 -0.0975
19037TIP3    H178526   4.224   3.250   2.305  0.6721 -0.2084 -0.0604
19037TIP3    H278527   4.211   3.379   2.227 -0.3703 -0.1881  0.1386
19038TIP3   OH278528   0.991   6.724   0.351 -0.3487  0.1866 -0.0931
19038TIP3    H178529   0.979   6.630   0.359  2.6091 -0.4711 -2.3956
19038TIP3    H278530   0.911   6.756   0.309 -0.2399 -1.7355 -1.8103
19039TIP3   OH278531   6.046   3.853   5.105 -0.1495 -0.4286 -0.0824
19039TIP3    H178532   5.974   3.790   5.107 -1.9081  1.5322  0.7415
19039TIP3    H278533   6.065   3.871   5.197  2.8424 -2.4390 -0.2304
19040TIP3   OH278534   0.403   2.049  12.678 -0.3741 -0.2283  0.0599
19040TIP3    H178535   0.491   2.060  12.712  0.6480  0.2257 -2.5755
19040TIP3    H278536   0.390   1.954  12.675  0.7473 -0.3571 -1.2161
19041TIP3   OH278537   5.749   4.415   2.105 -0.1675  0.5417  0.3307
19041TIP3    H178538   5.835   4.374   2.095 -0.6448  0.0311 -1.8840
19041TIP3    H278539   5.696   4.350   2.152  0.4392  0.5980  1.1131
19042TIP3   OH278540   2.266   5.874  16.043  0.6378  0.7136 -0.3727
19042TIP3    H178541   2.246   5.789  16.003 -0.3648  0.1590  1.2743
19042TIP3    H278542   2.181   5.917  16.051  1.0397  1.5242 -0.3912
19043TIP3   OH278543   4.792   5.308   2.171  0.1110 -0.1074  0.4595
19043TIP3    H178544   4.851   5.373   2.132 -0.5920  0.8185  0.9131
19043TIP3    H278545   4.796   5.233   2.112  2.3086 -0.3462  0.8885
19044TIP3   OH278546   0.644   4.648  11.939  0.0580  0.6389 -0.0591
19044TIP3    H178547   0.663   4.597  12.018  0.0258  2.7363  1.3465
19044TIP3    H278548   0.695   4.728  11.950  1.0664  0.4273 -2.8192
19045TIP3   OH278549   0.309   2.751   4.909  0.2839 -0.2556  0.1523
19045TIP3    H178550   0.257   2.768   4.831  0.6477 -0.0145 -0.0420
19045TIP3    H278551   0.302   2.656   4.922  0.6194 -0.3722 -0.4643
19046TIP3   OH278552   3.847   2.205   3.956  0.7504  0.2213  0.4057
19046TIP3    H178553   3.892   2.242   4.032  1.4539  0.8865 -0.3368
19046TIP3    H278554   3.867   2.264   3.884 -2.7167  1.5268  0.3953
19047TIP3   OH278555   4.367   0.444   1.836  0.4901 -0.0642  0.1956
19047TIP3    H178556   4.402   0.413   1.753  2.8601 -0.0469  1.1257
19047TIP3    H278557   4.441   0.489   1.877 -0.1295 -1.4692  2.9864
19048TIP3   OH278558   4.381   1.458   3.227 -0.1219 -0.7709 -0.2679
19048TIP3    H178559   4.359   1.475   3.136  1.7412  1.1634 -0.3767
19048TIP3    H278560   4.434   1.533   3.254 -0.3502 -1.4844  2.3040
19049TIP3   OH278561   2.948   1.633   4.579 -0.3878  0.2102 -0.4701
19049TIP3    H178562   3.017   1.568   4.591  0.1712  0.7962 -0.4697
19049TIP3    H278563   2.924   1.660   4.668 -0.1494  0.4904 -0.4897
19050TIP3   OH278564   3.978   3.560   0.621 -0.1580 -0.2714 -0.5330
19050TIP3    H178565   4.047   3.511   0.575 -0.1031  0.3137 -1.0875
19050TIP3    H278566   3.910   3.495   0.638  0.8456 -1.0200  0.6805
19051TIP3   OH278567   3.398   0.280  13.976 -0.4026  0.1263 -0.0578
19051TIP3    H178568   3.364   0.272  14.065 -0.0849 -2.7071 -0.1675
19051TIP3    H278569   3.371   0.368  13.948  0.7238  1.6501  3.3369
19052TIP3   OH278570   3.255   6.754  16.027  0.0698 -0.4228  0.1504
19052TIP3    H178571   3.330   6.694  16.023  0.0106 -0.5834  1.1324
19052TIP3    H278572   3.198   6.716  16.094 -0.1117  0.5654  0.5655
19053TIP3   OH278573   0.049   2.321  13.784  0.1257 -0.1746  0.1545
19053TIP3    H178574  -0.022   2.381  13.761  0.5995  1.4800  2.8574
19053TIP3    H278575   0.119   2.344  13.723 -1.1356 -0.8441 -1.5824
19054TIP3   OH278576   2.310   3.585  15.939 -0.2911 -0.3082 -0.3317
19054TIP3    H178577   2.386   3.548  15.895 -0.9998 -1.6541 -0.4399
19054TIP3    H278578   2.244   3.594  15.870 -0.8548 -0.8935  0.1257
19055TIP3   OH278579   2.953   5.298   5.287 -0.4453 -0.5607 -0.6671
19055TIP3    H178580   3.006   5.218   5.282  0.5046  0.0608 -0.7501
19055TIP3    H278581   2.865   5.267   5.307 -0.1304 -1.6473 -0.9016
19056TIP3   OH278582   3.058   6.360   6.303 -0.0401 -0.3904  0.4441
19056TIP3    H178583   3.111   6.429   6.343  0.8003 -0.9552  0.3288
19056TIP3    H278584   2.968   6.380   6.330  0.3761 -0.1275  1.6953
19057TIP3   OH278585   5.070   1.075  10.823 -0.2611 -0.2036  0.6265
19057TIP3    H178586   5.134   1.065  10.753  0.6124  0.3031  1.3328
19057TIP3    H278587   5.123   1.098  10.900 -1.2475 -0.2903  1.3335
19058TIP3   OH278588   2.567   5.727  12.360  0.3399 -0.0519  0.1433
19058TIP3    H178589   2.650   5.708  12.405  0.6800  0.0930 -0.4081
19058TIP3    H278590   2.563   5.822  12.357  0.4490 -0.0582 -0.3539
19059TIP3   OH278591   6.534   0.209   6.152  0.4962  0.2283  0.9304
19059TIP3    H178592   6.450   0.166   6.139  1.4836 -1.1802 -1.2308
19059TIP3    H278593   6.592   0.140   6.183  1.6935  0.3297 -0.9761
19060TIP3   OH278594   0.630   2.212  15.950  0.1044 -0.7729  0.2978
19060TIP3    H178595   0.662   2.150  16.016  1.2746 -0.8746 -0.3537
19060TIP3    H278596   0.697   2.212  15.882 -0.5594  0.1686 -0.3766
19061TIP3   OH278597   1.450   4.957  15.950 -0.0738 -0.4859  0.0703
19061TIP3    H178598   1.497   5.014  15.889 -0.1364 -0.0075  0.4732
19061TIP3    H278599   1.463   4.997  16.036  1.1956 -1.9005  0.5772
19062TIP3   OH278600   6.073   1.967   3.131 -0.0086 -0.7690  0.5284
19062TIP3    H178601   6.030   1.939   3.212 -0.8687  0.0562  0.3705
19062TIP3    H278602   6.084   2.062   3.141  1.4507 -0.9231  0.4100
19063TIP3   OH278603   2.550   6.255  16.118 -0.1413 -0.0470  0.0958
19063TIP3    H178604   2.632   6.232  16.074 -0.0502  0.2167  0.1216
19063TIP3    H278605   2.578   6.293  16.201 -0.3229 -0.8359  0.5239
19064TIP3   OH278606   4.218   6.282  11.478 -0.0498 -0.0127  0.3608
19064TIP3    H178607   4.126   6.263  11.460 -0.5017  0.6658  1.8248
19064TIP3    H278608   4.216   6.332  11.560  1.6164  0.0743  0.3623
19065TIP3   OH278609   3.297   5.583   6.338 -0.1797 -0.6381 -0.3581
19065TIP3    H178610   3.255   5.663   6.369  0.8394  0.4434 -1.7241
19065TIP3    H278611   3.373   5.572   6.395  0.5194  0.1982 -1.1186
19066TIP3   OH278612   1.272   4.183   4.480  0.0073 -0.7190 -0.5710
19066TIP3    H178613   1.194   4.177   4.425 -1.1576 -0.6581  1.0283
19066TIP3    H278614   1.327   4.248   4.436 -0.7997 -0.8260 -1.7658
19067TIP3   OH278615   6.130   3.616   0.336  0.0425  0.3613 -0.2273
19067TIP3    H178616   6.217   3.618   0.376 -0.8113  1.4605  1.6753
19067TIP3    H278617   6.142   3.571   0.253  2.1291 -0.9877  0.7599
19068TIP3   OH278618   4.259   6.736  15.173 -0.1410  0.1261 -0.3424
19068TIP3    H178619   4.195   6.665  15.164 -1.0384  1.1150 -2.2118
19068TIP3    H278620   4.344   6.691  15.174 -0.7239 -1.0256 -0.7564
19069TIP3   OH278621   5.327   5.290   5.492  1.1773  0.3560  0.4103
19069TIP3    H178622   5.368   5.292   5.405  0.8427 -0.0777  0.2435
19069TIP3    H278623   5.256   5.353   5.486 -0.0171 -1.0313 -0.2159
19070TIP3   OH278624   3.028   6.146   2.467 -0.2063 -0.0867 -0.3815
19070TIP3    H178625   2.957   6.181   2.521  0.2083 -0.4869  0.4393
19070TIP3    H278626   3.068   6.078   2.522  0.9666  0.3073 -0.7430
19071TIP3   OH278627   5.354   3.285  16.819 -0.6287 -0.0653  0.1076
19071TIP3    H178628   5.391   3.197  16.830 -0.7160  0.1829  2.6203
19071TIP3    H278629   5.399   3.338  16.885 -2.3911  1.1900  0.3184
19072TIP3   OH278630   1.494   3.083  15.272 -0.0642  0.1649  0.3497
19072TIP3    H178631   1.468   3.090  15.364 -2.8439  1.0593 -0.4711
19072TIP3    H278632   1.504   2.989  15.256  1.8579  0.0682  1.9040
19073TIP3   OH278633   3.430   5.483  12.388 -0.3906  0.0473 -0.1384
19073TIP3    H178634   3.398   5.530  12.311 -0.9681 -1.2726 -0.7180
19073TIP3    H278635   3.356   5.428  12.415  0.3365 -0.6637  0.4219
19074TIP3   OH278636   0.884   1.720  13.723  0.1778  0.0645 -0.0007
19074TIP3    H178637   0.861   1.689  13.636  0.9946 -0.7838  0.0792
19074TIP3    H278638   0.932   1.648  13.763  2.0371  1.3977  0.2230
19075TIP3   OH278639   6.166   4.679  14.399 -0.0973  0.3159 -0.0157
19075TIP3    H178640   6.210   4.702  14.317 -0.6164  1.1589 -0.0644
19075TIP3    H278641   6.218   4.723  14.467  0.8871 -1.1588  0.1975
19076TIP3   OH278642   3.205   0.383   3.908 -0.1832  0.2210 -0.1622
19076TIP3    H178643   3.209   0.288   3.917  1.6301  0.2753 -0.2997
19076TIP3    H278644   3.252   0.417   3.984 -1.7274  1.0428  0.4451
19077TIP3   OH278645   3.420   6.527  12.372  0.0021  0.4236  0.0310
19077TIP3    H178646   3.348   6.495  12.319 -0.7073  1.8224  0.1483
19077TIP3    H278647   3.418   6.622  12.363  1.3696  0.5309  0.6247
19078TIP3   OH278648   1.479   0.861  15.289 -0.4258  0.0467  0.0808
19078TIP3    H178649   1.530   0.892  15.364 -1.4359  0.5195  0.5826
19078TIP3    H278650   1.459   0.940  15.239  0.5584 -0.3143 -0.8849
19079TIP3   OH278651   4.460   1.014   1.557 -0.5169 -0.4776  0.6160
19079TIP3    H178652   4.499   0.988   1.640 -0.2301  1.8654  1.2635
19079TIP3    H278653   4.377   1.055   1.581 -1.7719 -2.2891 -0.4909
19080TIP3   OH278654   6.308   3.620  13.530  0.0525  0.3079 -0.2538
19080TIP3    H178655   6.313   3.546  13.470 -0.0120 -0.3082  0.4980
19080TIP3    H278656   6.278   3.693  13.475  3.0190  0.5476 -1.6909
19081TIP3   OH278657   0.469   1.108   2.546  0.2273 -0.1645 -0.0634
19081TIP3    H178658   0.398   1.167   2.522 -0.2825 -0.6332  0.2972
19081TIP3    H278659   0.467   1.105   2.642  1.7189  1.0400  0.0280
19082TIP3   OH278660   0.729   4.281   5.284  0.2433  0.1978 -0.4896
19082TIP3    H178661   0.812   4.237   5.306  0.4960  0.5824 -0.6562
19082TIP3    H278662   0.720   4.350   5.349  0.2526  0.4046 -0.7059
19083TIP3   OH278663   6.214   3.508   1.479 -0.5535 -0.3329 -0.0172
19083TIP3    H178664   6.286   3.446   1.484 -1.8147 -1.9466 -1.3827
19083TIP3    H278665   6.193   3.528   1.571  1.4013 -0.0589  0.3985
19084TIP3   OH278666   4.355   5.772   4.242 -0.4006 -0.0340 -0.0129
19084TIP3    H178667   4.369   5.771   4.148 -2.8983 -0.0105 -0.4256
19084TIP3    H278668   4.262   5.791   4.252 -0.1873 -0.1044  2.4618
19085TIP3   OH278669   6.379   3.120   2.211 -0.3718  0.0115 -0.4642
19085TIP3    H178670   6.440   3.161   2.272  1.4849 -0.1603 -2.1191
19085TIP3    H278671   6.398   3.026   2.218 -0.3434 -0.0327 -1.0552
19086TIP3   OH278672   0.386   5.860   3.058  0.2656  0.1786 -0.4705
19086TIP3    H178673   0.459   5.802   3.080  0.5098  0.2902 -0.9713
19086TIP3    H278674   0.413   5.903   2.977 -0.4700  0.0348 -0.7937
19087TIP3   OH278675   4.181   5.670   0.563  0.0520  0.2771 -0.4485
19087TIP3    H178676   4.106   5.646   0.618  0.8949  1.3243  1.2143
19087TIP3    H278677   4.142   5.714   0.488 -1.0400  0.2113  0.0595
19088TIP3   OH278678   0.678   2.586   0.627 -0.0529 -0.1418 -0.1197
19088TIP3    H178679   0.697   2.648   0.697 -3.1981  0.0138  0.6791
19088TIP3    H278680   0.730   2.508   0.650 -1.0193 -0.0908  2.4028
19089TIP3   OH278681   5.685   5.013   4.371 -0.0308 -0.1206  0.1851
19089TIP3    H178682   5.629   5.003   4.448 -1.1172 -2.0804 -0.8189
19089TIP3    H278683   5.774   5.024   4.407 -0.6005 -0.4285  1.7163
19090TIP3   OH278684   2.988   2.182   2.340 -0.5458  0.0024 -0.4591
19090TIP3    H178685   2.922   2.251   2.342 -0.8339 -0.3044  1.9273
19090TIP3    H278686   3.068   2.225   2.310 -1.3856  0.7523 -1.6702
19091TIP3   OH278687   6.448   2.412   4.306 -0.1366 -0.2780  0.4896
19091TIP3    H178688   6.453   2.505   4.330  1.7878  0.5785 -2.8263
19091TIP3    H278689   6.372   2.406   4.248  0.4634 -0.4782 -0.2981
19092TIP3   OH278690   1.506   0.086   1.118 -0.7725  0.6642 -0.4862
19092TIP3    H178691   1.453   0.123   1.047 -0.5596 -0.3761 -1.2052
19092TIP3    H278692   1.578   0.148   1.128 -2.4382  2.4103  0.9253
19093TIP3   OH278693   3.886   0.010  11.400 -0.3745  0.1146  0.2693
19093TIP3    H178694   3.794   0.011  11.429 -0.4685  0.0341 -0.0261
19093TIP3    H278695   3.932   0.062  11.466 -0.9487  1.7961 -0.6094
19094TIP3   OH278696   2.937   6.386  12.704 -0.2304  0.1048  0.6335
19094TIP3    H178697   2.865   6.394  12.766  0.6423  1.0166  1.5340
19094TIP3    H278698   2.947   6.474  12.667 -0.1449 -0.2194 -0.1326
19095TIP3   OH278699   4.479   1.129   5.491 -0.2572  0.4519  0.6544
19095TIP3    H178700   4.391   1.094   5.477  0.4329 -1.0786  0.1056
19095TIP3    H278701   4.536   1.052   5.492  1.1226  1.4566  0.6938
19096TIP3   OH278702   6.604   6.300  10.587  0.5355 -0.2327  0.5671
19096TIP3    H178703   6.698   6.289  10.573  0.7943  0.7985  1.3798
19096TIP3    H278704   6.563   6.240  10.525  1.7425 -1.3536  0.8310
19097TIP3   OH278705   6.556   1.768   1.787 -0.2828  0.2148 -0.6108
19097TIP3    H178706   6.632   1.826   1.792 -1.3080  1.8289 -2.6916
19097TIP3    H278707   6.593   1.681   1.779  1.3216  0.7816  0.3614
19098TIP3   OH278708   6.560   0.332   4.524 -0.3258 -0.2816  0.5309
19098TIP3    H178709   6.619   0.341   4.449 -0.7673  1.8404  0.4046
19098TIP3    H278710   6.561   0.238   4.544  0.5264 -0.7490 -1.5350
19099TIP3   OH278711   2.268   3.651   4.476 -0.4344  0.6744  0.0296
19099TIP3    H178712   2.224   3.583   4.425  0.4026  1.2949 -1.5543
19099TIP3    H278713   2.346   3.608   4.511  0.1107  0.8035 -0.9971
19100TIP3   OH278714   1.905   4.930  13.363 -0.5999 -0.0282 -0.0882
19100TIP3    H178715   1.852   4.908  13.440 -2.2785  1.9777 -0.6227
19100TIP3    H278716   1.855   4.894  13.289  0.7096 -1.4289 -0.3187
19101TIP3   OH278717   4.679   3.769   0.864 -0.2479  0.2978 -0.0357
19101TIP3    H178718   4.764   3.795   0.830  0.0266 -1.6508 -0.8925
19101TIP3    H278719   4.679   3.799   0.955  3.2246 -3.7131  1.4086
19102TIP3   OH278720   5.355   3.065   3.726 -0.4402 -0.1502 -0.4475
19102TIP3    H178721   5.428   3.099   3.779 -0.0044 -1.9715  0.1343
19102TIP3    H278722   5.364   2.970   3.731 -2.4021 -0.3788 -1.0224
19103TIP3   OH278723   1.687   2.064   3.622  0.3434 -0.3148 -0.0760
19103TIP3    H178724   1.718   1.989   3.571 -0.5178 -2.0581  1.8664
19103TIP3    H278725   1.745   2.136   3.597  1.7573 -1.8457 -1.3523
19104TIP3   OH278726   3.916   2.987  11.736 -0.1896 -0.0458 -0.1155
19104TIP3    H178727   3.959   2.960  11.655 -1.1165  0.0998 -0.6715
19104TIP3    H278728   3.876   2.907  11.770  1.2243 -0.3616  0.8604
19105TIP3   OH278729   3.594   4.533  10.572  0.0007  0.1461 -0.1969
19105TIP3    H178730   3.590   4.628  10.585  1.1775  0.3868 -1.4875
19105TIP3    H278731   3.681   4.518  10.536 -1.1110 -1.1331 -2.4176
19106TIP3   OH278732   2.009   4.520   4.519 -0.0774 -0.7959  0.1253
19106TIP3    H178733   2.045   4.432   4.532  1.0928 -0.2104  1.0294
19106TIP3    H278734   2.036   4.568   4.597 -2.3677 -0.1490  0.5603
19107TIP3   OH278735   5.068   6.500  12.717 -0.6300  0.1607 -0.6671
19107TIP3    H178736   5.023   6.472  12.638  0.2297  0.1422 -1.1580
19107TIP3    H278737   5.072   6.595  12.711 -0.0840  0.1233 -0.9126
19108TIP3   OH278738   3.118   2.866   4.535  0.1277  0.3626  0.5476
19108TIP3    H178739   3.153   2.795   4.480  0.0930  1.0047 -0.3018
19108TIP3    H278740   3.194   2.921   4.554 -0.0823  0.7963  0.1488
19109TIP3   OH278741   1.717   4.457  16.565  0.4282 -0.4852  0.0692
19109TIP3    H178742   1.677   4.415  16.489 -1.4134  0.5706  0.4364
19109TIP3    H278743   1.745   4.384  16.620 -1.9547 -1.2663  0.2969
19110TIP3   OH278744   1.420   0.446  11.807 -0.2688 -0.5631  0.1230
19110TIP3    H178745   1.426   0.427  11.714 -2.4586 -0.4236 -0.0755
19110TIP3    H278746   1.479   0.382  11.849  0.4288 -0.8699 -1.3067
19111TIP3   OH278747   6.784   6.652  15.589  0.2812  0.3579 -0.3519
19111TIP3    H178748   6.826   6.569  15.566  1.1040  0.6877 -0.0577
19111TIP3    H278749   6.810   6.667  15.680 -1.2324  0.1062  0.1419
19112TIP3   OH278750   4.044   2.296   2.044 -0.4600  0.1803 -0.8620
19112TIP3    H178751   4.029   2.334   1.957 -0.7501 -0.4025 -1.0705
19112TIP3    H278752   4.036   2.370   2.104  0.1322  0.6578 -1.3659
19113TIP3   OH278753   4.602   3.337   5.702  0.1141 -0.2050  0.7231
19113TIP3    H178754   4.572   3.353   5.612  2.5702 -0.2285 -0.1324
19113TIP3    H278755   4.695   3.360   5.701  0.8217 -2.7458  2.5802
19114TIP3   OH278756   0.895   2.590  11.076  0.3974  0.2648  0.9921
19114TIP3    H178757   0.812   2.638  11.078  0.0767 -0.2603  0.6038
19114TIP3    H278758   0.885   2.530  11.001 -0.0544 -1.9297  2.7639
19115TIP3   OH278759   3.818   6.088   1.493 -0.0771  0.5714 -0.3046
19115TIP3    H178760   3.832   5.999   1.524 -0.7841  0.4716 -0.2611
19115TIP3    H278761   3.770   6.078   1.411  0.6468  0.8837 -0.7730
19116TIP3   OH278762   1.695   0.807   4.260 -0.3447  0.0332 -0.3553
19116TIP3    H178763   1.683   0.729   4.205 -0.6032  0.9078 -1.5484
19116TIP3    H278764   1.773   0.850   4.224  0.6521 -0.4283  1.2138
19117TIP3   OH278765   0.650   6.113   4.284 -0.0925 -0.6631  0.5057
19117TIP3    H178766   0.602   6.047   4.234 -1.0187 -0.5185  1.1892
19117TIP3    H278767   0.582   6.175   4.312  0.6363  0.0713  0.6608
19118TIP3   OH278768   0.728   0.408   1.486  0.1820 -0.0956 -0.2222
19118TIP3    H178769   0.772   0.488   1.516 -0.0308  1.0482 -2.8586
19118TIP3    H278770   0.673   0.437   1.413  0.4789 -2.7379 -1.5456
19119TIP3   OH278771   0.802   3.326   1.355 -0.3736  0.1956 -0.9111
19119TIP3    H178772   0.763   3.406   1.320  2.1304  0.7694 -2.4963
19119TIP3    H278773   0.839   3.281   1.279  0.7224 -1.0616  0.3288
19120TIP3   OH278774   6.616   6.756  12.570 -0.6129 -0.2583  0.1862
19120TIP3    H178775   6.653   6.668  12.564 -1.1040 -0.3734 -1.3458
19120TIP3    H278776   6.529   6.748  12.531 -2.2975  0.0225  3.6366
19121TIP3   OH278777   1.641   6.016   4.400  0.2837 -0.1265  0.2297
19121TIP3    H178778   1.718   5.998   4.347  1.1812 -1.4302  1.9295
19121TIP3    H278779   1.660   6.100   4.443 -0.0255  0.4384 -0.7198
19122TIP3   OH278780   6.060   5.396   3.672  0.2731  0.2261  0.5179
19122TIP3    H178781   6.037   5.450   3.747  0.3749 -0.4612  1.0468
19122TIP3    H278782   5.984   5.339   3.658  0.7257 -0.4640  0.8430
19123TIP3   OH278783   2.899   4.049  14.794  0.5104 -0.0288 -0.1669
19123TIP3    H178784   2.860   4.135  14.808  0.2185  0.2568 -2.4985
19123TIP3    H278785   2.906   4.011  14.881  0.5561  2.3142  0.8808
19124TIP3   OH278786   2.235   4.464   3.631  0.2539  0.0090  0.2972
19124TIP3    H178787   2.242   4.369   3.641 -0.3344  0.0380  1.0290
19124TIP3    H278788   2.310   4.500   3.678 -0.7770  0.0033  1.9704
19125TIP3   OH278789   5.059   5.104  16.703  0.6104 -0.2300  0.6637
19125TIP3    H178790   4.966   5.113  16.683  0.3667 -1.7495  1.0333
19125TIP3    H278791   5.065   5.021  16.750  2.0103  0.3788  1.5895
19126TIP3   OH278792   5.192   6.158   4.866  0.0309  0.1387 -0.1145
19126TIP3    H178793   5.211   6.230   4.806  0.6976 -0.2069 -0.3272
19126TIP3    H278794   5.241   6.180   4.946  0.1600 -0.0203 -0.1471
19127TIP3   OH278795   0.531   6.734   5.177 -0.3820 -0.3244 -0.5444
19127TIP3    H178796   0.551   6.678   5.102 -1.0361  1.3075 -1.9805
19127TIP3    H278797   0.438   6.754   5.167 -0.4921 -0.1377  0.7622
19128TIP3   OH278798   0.282   2.849   0.685  0.2849 -0.1448  0.0645
19128TIP3    H178799   0.189   2.866   0.672  0.3956 -0.8475 -1.8195
19128TIP3    H278800   0.326   2.929   0.655  0.3111 -0.0537  0.3492
19129TIP3   OH278801   4.487   1.409   0.923  0.4026 -0.2257 -0.5383
19129TIP3    H178802   4.415   1.464   0.894 -1.2895 -1.3817  1.3293
19129TIP3    H278803   4.505   1.351   0.849 -0.6128  0.0410 -0.9943
19130TIP3   OH278804   4.745   0.264   4.544 -0.4182 -0.5195  0.0693
19130TIP3    H178805   4.757   0.174   4.575 -0.2003  0.1000  1.8495
19130TIP3    H278806   4.828   0.287   4.503  0.0344 -0.6380  0.9100
19131TIP3   OH278807   6.562   0.728   2.259 -0.0593 -0.2968  0.0448
19131TIP3    H178808   6.643   0.677   2.251 -0.3841 -1.1301  1.7203
19131TIP3    H278809   6.532   0.710   2.349 -1.4728  0.9313 -0.1710
19132TIP3   OH278810   1.514   3.145   3.554  0.5514 -0.4057 -0.3286
19132TIP3    H178811   1.525   3.069   3.611 -0.8574 -1.1818 -1.0600
19132TIP3    H278812   1.601   3.183   3.548  1.1401 -1.5619  0.6065
19133TIP3   OH278813   1.533   1.060  15.722  0.3064  0.4287  0.1726
19133TIP3    H178814   1.576   0.999  15.661  0.7002  0.7386  0.1348
19133TIP3    H278815   1.606   1.107  15.763  0.0647 -0.2336  1.3619
19134TIP3   OH278816   0.657   3.496  13.532 -0.1442  0.6667 -0.7426
19134TIP3    H178817   0.742   3.498  13.575  0.2040 -1.3540 -1.3001
19134TIP3    H278818   0.671   3.543  13.450 -0.2094  2.4365  0.2225
19135TIP3   OH278819   2.022   5.132   3.848  0.0052 -0.6581  0.3417
19135TIP3    H178820   1.981   5.211   3.883 -0.2223 -0.4966 -0.2957
19135TIP3    H278821   2.110   5.132   3.886 -0.1993 -0.4173  0.8213
19136TIP3   OH278822   2.649   4.862   0.037 -0.4625 -0.2376 -0.2241
19136TIP3    H178823   2.727   4.847   0.090 -1.2954 -1.2229  0.7646
19136TIP3    H278824   2.682   4.891  -0.048  1.0766 -2.4147 -0.4214
19137TIP3   OH278825   5.857   1.075   3.207  0.3097 -0.0071  0.2739
19137TIP3    H178826   5.777   1.124   3.226  0.2957  0.0507  0.0725
19137TIP3    H278827   5.854   0.999   3.265  0.2213  0.1161  0.4277
19138TIP3   OH278828   6.198   6.548   2.208  0.4604  0.5683 -0.2945
19138TIP3    H178829   6.116   6.571   2.165  0.6509  1.5230 -0.1689
19138TIP3    H278830   6.180   6.563   2.301  0.2142 -0.9755 -0.0805
19139TIP3   OH278831   0.367   4.975  14.776 -0.3350  0.8791 -0.0562
19139TIP3    H178832   0.294   4.916  14.759  0.4442  0.2064 -1.1883
19139TIP3    H278833   0.410   4.939  14.854 -0.1933  0.2571 -0.4120
19140TIP3   OH278834   6.535   4.499  15.901  0.4294  0.4355  0.0148
19140TIP3    H178835   6.605   4.464  15.847  0.7110  1.2154 -0.1357
19140TIP3    H278836   6.559   4.591  15.915  0.0361  0.4097  0.9276
19141TIP3   OH278837   4.340   5.961  10.937 -0.6710 -0.1242 -0.0871
19141TIP3    H178838   4.274   5.977  10.869  0.9946 -1.5099 -2.1120
19141TIP3    H278839   4.410   6.022  10.916 -0.5256  0.0634  0.9494
19142TIP3   OH278840   0.207   1.804  13.393 -0.6110 -0.2964  0.1788
19142TIP3    H178841   0.188   1.712  13.413  0.7954 -0.6105  0.1429
19142TIP3    H278842   0.244   1.839  13.474 -0.6314  0.0839  0.0236
19143TIP3   OH278843   0.637   6.398   0.577 -0.0836  0.2242 -0.3859
19143TIP3    H178844   0.627   6.346   0.497  0.0515  1.3390 -1.1354
19143TIP3    H278845   0.726   6.434   0.570  0.0948 -0.0557  0.4900
19144TIP3   OH278846   2.024   5.450  12.287  0.0798  0.2011 -0.0640
19144TIP3    H178847   2.030   5.535  12.332 -2.2851 -0.4372  1.5245
19144TIP3    H278848   2.055   5.468  12.198 -0.3567  2.7332  0.2619
19145TIP3   OH278849   2.724   0.336  10.930 -0.2670  0.6891 -0.0229
19145TIP3    H178850   2.762   0.259  10.972  1.4667  1.9312  0.7704
19145TIP3    H278851   2.630   0.318  10.926  0.0250 -1.1189  0.8643
19146TIP3   OH278852   3.469   6.679   5.300  0.0817 -0.0044  0.0138
19146TIP3    H178853   3.422   6.737   5.359 -1.4718 -0.6465 -0.5748
19146TIP3    H278854   3.494   6.604   5.354 -2.9554 -1.4602 -0.5172
19147TIP3   OH278855   6.686   4.345  13.880  0.1978  0.5027  0.0029
19147TIP3    H178856   6.633   4.267  13.889 -1.1936  1.3551 -0.7144
19147TIP3    H278857   6.760   4.319  13.825 -1.1035  0.1106 -1.5731
19148TIP3   OH278858   0.113   6.167   4.454 -0.7108 -0.7149 -0.0091
19148TIP3    H178859   0.165   6.221   4.513  0.1055 -3.6631  2.1037
19148TIP3    H278860   0.108   6.218   4.373  1.1515  1.8790  1.4173
19149TIP3   OH278861   4.160   1.757  12.469  0.2895 -0.1800 -0.2459
19149TIP3    H178862   4.155   1.662  12.479 -0.0496 -0.0102  1.3179
19149TIP3    H278863   4.069   1.783  12.451  0.3067 -0.0970 -0.2110
19150TIP3   OH278864   4.933   0.574  11.486 -0.1800 -0.0908 -0.2914
19150TIP3    H178865   4.952   0.647  11.545 -1.0742  0.5693 -0.8171
19150TIP3    H278866   4.905   0.503  11.544 -1.6765  0.7548  0.0461
19151TIP3   OH278867   2.489   5.907   5.531  0.0084 -0.4827  0.2669
19151TIP3    H178868   2.534   5.842   5.478  0.8555 -1.1646  1.8088
19151TIP3    H278869   2.544   5.985   5.524  0.2940 -0.6709  0.4178
19152TIP3   OH278870   6.041   4.363   5.506 -0.2919  0.0649 -0.2159
19152TIP3    H178871   6.049   4.391   5.415  0.7339  1.0771  0.1754
19152TIP3    H278872   6.127   4.381   5.545 -0.9681  0.3822  1.1571
19153TIP3   OH278873   2.741   5.231   1.510 -0.0434 -0.2925 -0.4260
19153TIP3    H178874   2.832   5.208   1.528 -0.1120  0.1152  0.4893
19153TIP3    H278875   2.701   5.239   1.596 -1.3438 -1.9851 -0.8506
19154TIP3   OH278876   0.689   4.544   5.781  0.1881 -0.3692  0.1474
19154TIP3    H178877   0.665   4.451   5.789  1.6079 -0.8415 -0.8391
19154TIP3    H278878   0.715   4.569   5.870  1.0794 -1.2890  0.1554
19155TIP3   OH278879   2.051   4.369  15.810 -0.4710 -0.5676  0.1183
19155TIP3    H178880   1.976   4.309  15.809 -0.2112 -0.9105  0.7976
19155TIP3    H278881   2.077   4.373  15.902  0.2542 -0.3387 -0.0934
19156TIP3   OH278882   0.963   0.956  16.513 -0.0563  0.4232 -0.3324
19156TIP3    H178883   0.999   0.948  16.602 -1.2407  0.4362  0.1491
19156TIP3    H278884   0.908   0.878  16.503 -0.3647  0.7124 -0.8496
19157TIP3   OH278885   6.010   1.762   1.109 -0.4927 -0.0860  0.0501
19157TIP3    H178886   5.943   1.735   1.046 -0.0069  0.5556 -0.7614
19157TIP3    H278887   6.022   1.856   1.091  2.7584 -0.7938 -1.8592
19158TIP3   OH278888   2.892   1.335  14.789  0.5252  0.2806  0.1858
19158TIP3    H178889   2.921   1.267  14.849 -1.3331 -1.5542 -0.9490
19158TIP3    H278890   2.928   1.310  14.704 -1.2325 -0.0166 -0.4937
19159TIP3   OH278891   0.358   1.726   3.054  0.5884  0.3420 -0.3459
19159TIP3    H178892   0.417   1.668   3.007  2.9321  1.7385  0.7637
19159TIP3    H278893   0.401   1.740   3.139 -1.8437  0.5956  0.8830
19160TIP3   OH278894   5.070   0.576  10.924  0.1310  0.2815  0.3373
19160TIP3    H178895   5.077   0.486  10.954 -0.9063  0.0830 -0.0016
19160TIP3    H278896   4.985   0.581  10.881  0.9779  0.9188 -1.3376
19161TIP3   OH278897   5.706   2.707  16.637 -0.4659 -0.0193  0.0820
19161TIP3    H178898   5.765   2.634  16.618 -0.4711 -0.2285  0.8726
19161TIP3    H278899   5.684   2.743  16.551  3.2874  2.0290 -0.1270
19162TIP3   OH278900   5.258   3.955   5.865 -0.1848 -0.5953  0.3797
19162TIP3    H178901   5.335   3.999   5.900 -1.6162  1.4312  1.0244
19162TIP3    H278902   5.272   3.863   5.886  1.0725  0.0164  2.3390
19163TIP3   OH278903   4.787   2.551  16.306  0.1837  0.0364  0.1907
19163TIP3    H178904   4.818   2.462  16.322 -0.9459 -0.2168  1.0019
19163TIP3    H278905   4.701   2.554  16.348  0.1548  1.4630  0.0266
19164TIP3   OH278906   5.950   2.201   4.775  0.0586 -0.6795  0.0128
19164TIP3    H178907   5.855   2.201   4.786  0.0626  2.7168  0.7645
19164TIP3    H278908   5.964   2.243   4.690  0.8818 -0.4504  0.2562
19165TIP3   OH278909   5.175   5.182   5.170 -0.3377 -0.1500  0.2574
19165TIP3    H178910   5.150   5.113   5.109 -0.5908  1.0718 -1.0591
19165TIP3    H278911   5.093   5.209   5.211 -0.2629 -0.5106  0.6453
19166TIP3   OH278912   2.466   1.356  16.912  0.3985  0.2517 -0.3077
19166TIP3    H178913   2.549   1.395  16.887  0.5522 -1.0318 -1.8274
19166TIP3    H278914   2.429   1.322  16.831 -0.9237 -0.4946  0.5790
19167TIP3   OH278915   0.009   1.492  11.623 -0.1726 -0.2335 -0.3118
19167TIP3    H178916  -0.063   1.467  11.565 -1.3391 -1.6315  1.6750
19167TIP3    H278917  -0.011   1.582  11.649 -3.0981 -1.6572  2.8253
19168TIP3   OH278918   2.022   6.590   4.902  0.1922  0.2326 -0.4659
19168TIP3    H178919   2.005   6.629   4.816 -2.0958  0.1237 -0.0743
19168TIP3    H278920   2.057   6.503   4.882  0.1562  0.4055 -1.2955
19169TIP3   OH278921   0.483   6.663   2.956  0.3464 -0.5283  0.4301
19169TIP3    H178922   0.478   6.569   2.975 -0.7205 -0.3502  1.0717
19169TIP3    H278923   0.562   6.672   2.903 -0.1632 -1.9638 -0.6242
19170TIP3   OH278924   6.492   5.188  11.343 -0.2365  0.2639 -0.2662
19170TIP3    H178925   6.430   5.258  11.359 -2.0488 -1.0217 -1.3825
19170TIP3    H278926   6.474   5.161  11.252  1.3826 -0.6806 -0.3203
19171TIP3   OH278927   5.240   5.674  11.272  0.0201 -0.4828  0.2022
19171TIP3    H178928   5.145   5.665  11.261 -0.0205  0.3726 -0.1492
19171TIP3    H278929   5.272   5.701  11.186  0.3465  1.1109  0.8042
19172TIP3   OH278930   1.560   0.285   0.559 -0.4694 -0.2852  0.5885
19172TIP3    H178931   1.599   0.212   0.510 -3.1460  0.2349 -2.4541
19172TIP3    H278932   1.515   0.337   0.492 -2.1161  1.8575  3.2894
19173TIP3   OH278933   5.411   0.413   4.307  0.2815  0.0990  0.0193
19173TIP3    H178934   5.506   0.410   4.300  0.3371  1.7431 -0.0346
19173TIP3    H278935   5.394   0.408   4.401  0.4891  1.3349  0.1269
19174TIP3   OH278936   4.866   2.289  17.007  0.1117  0.2954  0.4289
19174TIP3    H178937   4.951   2.323  16.981 -0.4238  0.3386 -1.3378
19174TIP3    H278938   4.803   2.348  16.966 -0.7820 -1.0783 -0.2210
19175TIP3   OH278939   3.509   2.655  14.597 -0.6384 -0.1384  0.4238
19175TIP3    H178940   3.583   2.642  14.537  0.1617  0.7683  1.1969
19175TIP3    H278941   3.542   2.627  14.682 -0.4688  2.1934  1.1789
19176TIP3   OH278942   1.558   4.693   0.192  0.0955  0.1246 -0.0863
19176TIP3    H178943   1.630   4.679   0.253  0.1122  1.1256  0.1482
19176TIP3    H278944   1.510   4.768   0.229 -1.6652 -1.1667  0.3229
19177TIP3   OH278945   4.725   1.171   0.795  0.2288  1.0314  0.1451
19177TIP3    H178946   4.715   1.104   0.863  1.3041  1.3716  0.6574
19177TIP3    H278947   4.792   1.230   0.830 -0.4418  2.1663 -0.4625
19178TIP3   OH278948   3.337   0.198  14.841 -0.2987  0.2504 -0.2539
19178TIP3    H178949   3.257   0.174  14.795 -0.2824 -1.0957  0.3749
19178TIP3    H278950   3.323   0.288  14.870 -1.1062  0.4212 -1.1546
19179TIP3   OH278951   5.699   3.031   5.064  0.5540  0.6262  0.5808
19179TIP3    H178952   5.621   2.977   5.054  0.1570  1.2542  0.3020
19179TIP3    H278953   5.749   2.988   5.134 -0.1640  0.3777  0.9435
19180TIP3   OH278954   6.778   0.396   2.766 -0.1296  0.2490 -0.2743
19180TIP3    H178955   6.860   0.370   2.722  0.0395  0.1562  0.0948
19180TIP3    H278956   6.761   0.325   2.828 -1.3703 -0.5672 -1.5027
19181TIP3   OH278957   2.287   5.861  13.476 -0.1053  0.2215  0.4244
19181TIP3    H178958   2.221   5.897  13.536  0.3688  0.8468  0.5870
19181TIP3    H278959   2.295   5.927  13.408 -0.0132 -0.0882  0.1377
19182TIP3   OH278960   3.493   4.219  16.759 -0.3363  0.4701  0.1283
19182TIP3    H178961   3.532   4.174  16.834  0.2455  0.3657 -0.2361
19182TIP3    H278962   3.465   4.303  16.794  2.4261  1.5502 -0.1517
19183TIP3   OH278963   5.842   4.215   4.725 -0.3685 -0.1971  0.1400
19183TIP3    H178964   5.876   4.129   4.749  4.3200  1.6532  0.6703
19183TIP3    H278965   5.794   4.244   4.803  0.1773 -1.2833  0.8898
19184TIP3   OH278966   3.139   6.469  15.894  0.2068  0.1285 -0.1591
19184TIP3    H178967   3.080   6.544  15.882 -2.3524 -1.3190  2.7041
19184TIP3    H278968   3.173   6.479  15.983 -1.6800 -3.0361  1.0000
19185TIP3   OH278969   2.882   2.700   2.708 -0.3573 -0.3332  0.8078
19185TIP3    H178970   2.848   2.701   2.797 -1.1800 -0.1050  0.4937
19185TIP3    H278971   2.973   2.672   2.718 -0.5813 -0.7858  1.6699
19186TIP3   OH278972   1.687   4.570   2.458 -0.2470 -0.4683  0.4362
19186TIP3    H178973   1.617   4.555   2.521 -0.2910  1.0459  0.7642
19186TIP3    H278974   1.645   4.620   2.387  0.1837 -0.7361 -0.0160
19187TIP3   OH278975   6.041   4.179   3.666  0.3975 -0.2886 -0.7373
19187TIP3    H178976   6.085   4.174   3.581 -0.3042  0.6733 -1.1749
19187TIP3    H278977   5.950   4.156   3.647  0.6544 -2.0882  0.1305
19188TIP3   OH278978   5.254   2.907   5.672 -0.5314 -0.5988  0.0083
19188TIP3    H178979   5.326   2.964   5.697  0.1885 -1.3039 -0.4299
19188TIP3    H278980   5.178   2.942   5.719  0.2508 -0.3122  1.0825
19189TIP3   OH278981   6.089   5.526  13.774  0.5437  0.2481 -0.3181
19189TIP3    H178982   6.175   5.556  13.802  0.2888  0.9547 -0.2947
19189TIP3    H278983   6.051   5.601  13.729 -0.5184  0.3163  0.6682
19190TIP3   OH278984   1.277   3.827   5.972  0.3757 -0.5870 -0.1484
19190TIP3    H178985   1.288   3.743   6.018  0.3388 -1.1700 -1.1831
19190TIP3    H278986   1.186   3.851   5.988  1.3924  1.2489  3.4270
19191TIP3   OH278987   3.389   2.977   6.975 -0.0957  0.5524 -0.1543
19191TIP3    H178988   3.416   2.891   6.942  0.0432 -0.0446  1.4762
19191TIP3    H278989   3.426   3.038   6.911  0.4451 -0.5521 -0.9396
19192TIP3   OH278990   1.519   1.835   2.947 -0.3876  0.1353  0.5824
19192TIP3    H178991   1.512   1.799   2.859 -2.8297 -0.0535  0.8205
19192TIP3    H278992   1.505   1.929   2.936 -1.0485  0.0670  0.7913
19193TIP3   OH278993   5.302   3.835  12.319 -0.2282 -0.5714 -0.2863
19193TIP3    H178994   5.313   3.898  12.247  0.8164  0.5342  0.8310
19193TIP3    H278995   5.211   3.804  12.309 -0.9816  1.5992 -0.4601
19194TIP3   OH278996   4.349   4.474  11.015 -0.1003 -0.1753 -0.1698
19194TIP3    H178997   4.420   4.411  11.007 -1.2462 -1.6645  0.9431
19194TIP3    H278998   4.367   4.541  10.949  3.4738  0.6419  1.5355
19195TIP3   OH278999   4.602   0.559  14.492  0.3490 -0.1634 -0.1314
19195TIP3    H179000   4.517   0.526  14.519  0.0670 -0.6591 -1.5564
19195TIP3    H279001   4.588   0.590  14.402  0.7867  3.1161  0.8516
19196TIP3   OH279002   4.871   0.308  13.421 -0.1095 -0.5999 -0.2213
19196TIP3    H179003   4.870   0.218  13.452 -1.3368 -0.5223  0.0113
19196TIP3    H279004   4.806   0.310  13.351 -0.6598  0.2778  0.3031
19197TIP3   OH279005   0.345   0.382  12.950 -0.4167 -0.0176 -0.4833
19197TIP3    H179006   0.385   0.433  12.881 -0.1158  1.7997  1.0029
19197TIP3    H279007   0.255   0.366  12.920 -0.0688  0.1150 -1.5995
19198TIP3   OH279008   5.804   5.610  13.070 -0.2753  0.4288  0.5069
19198TIP3    H179009   5.847   5.551  13.008  0.2401 -2.0626  3.1863
19198TIP3    H279010   5.711   5.604  13.049 -0.0749 -0.1395 -0.2187
19199TIP3   OH279011   2.062   3.197   3.574  0.3166 -0.0213 -0.1613
19199TIP3    H179012   2.085   3.220   3.483  0.2128  0.0154 -0.1777
19199TIP3    H279013   2.143   3.211   3.623  0.3237  0.1364 -0.2157
19200TIP3   OH279014   5.399   4.364  12.296  0.4534 -0.3768 -0.1316
19200TIP3    H179015   5.318   4.326  12.329 -0.7446  0.9943 -1.4592
19200TIP3    H279016   5.407   4.447  12.344  0.0998  0.3569 -1.3267
19201TIP3   OH279017   4.911   6.003   3.258 -0.3373 -0.3781 -0.0782
19201TIP3    H179018   4.850   5.966   3.321 -0.7545 -0.0391 -0.2785
19201TIP3    H279019   4.921   5.935   3.192  0.5080 -0.9393  0.6187
19202TIP3   OH279020   0.656   5.959  16.364 -0.6111 -0.0871 -0.2876
19202TIP3    H179021   0.690   5.949  16.275 -2.7427 -0.2034 -1.1034
19202TIP3    H279022   0.704   5.894  16.416  1.2967  0.6078 -1.1460
19203TIP3   OH279023   4.461   5.506  16.720 -0.4452  0.3410 -0.3826
19203TIP3    H179024   4.543   5.520  16.672 -0.0160  2.3156  0.8933
19203TIP3    H279025   4.416   5.590  16.716 -1.1815  0.0344  1.2359
19204TIP3   OH279026   3.088   5.523  17.086 -0.0186 -0.5367 -0.1142
19204TIP3    H179027   3.061   5.464  17.156 -0.3608  0.9536  1.0394
19204TIP3    H279028   3.041   5.492  17.008 -0.4552 -1.5601  0.5514
19205TIP3   OH279029   2.124   2.199  14.480 -0.1433 -0.5701  0.4645
19205TIP3    H179030   2.042   2.223  14.436 -0.0037 -0.7347  0.1111
19205TIP3    H279031   2.119   2.104  14.491  0.2427 -0.6592 -0.0666
19206TIP3   OH279032   0.835   2.391  13.254 -0.0428 -0.6324 -0.0348
19206TIP3    H179033   0.835   2.485  13.275 -0.8918 -0.2435 -1.7151
19206TIP3    H279034   0.922   2.361  13.282 -0.3702  0.2832  2.0672
19207TIP3   OH279035   6.300   2.919  14.381  0.6878 -0.3967  0.5151
19207TIP3    H179036   6.224   2.862  14.368  0.5815 -0.3012  0.7180
19207TIP3    H279037   6.263   3.002  14.411  0.8718 -0.3431  0.5891
19208TIP3   OH279038   4.386   0.651  10.562  0.2306 -0.5894 -0.2795
19208TIP3    H179039   4.345   0.721  10.613  1.1397  0.0205 -0.3781
19208TIP3    H279040   4.446   0.609  10.624  0.6107 -0.4804 -0.5721
19209TIP3   OH279041   1.610   3.940  10.376  0.1838 -0.1648 -0.1275
19209TIP3    H179042   1.549   3.987  10.318  0.6663 -0.6453 -1.0431
19209TIP3    H279043   1.632   4.004  10.444  0.0728  0.6100 -0.8037
19210TIP3   OH279044   4.162   6.073   4.087 -0.2508 -0.1529  0.4333
19210TIP3    H179045   4.164   6.116   4.001 -0.3823  1.7498  1.3815
19210TIP3    H279046   4.237   6.109   4.134 -0.6467 -0.6055  1.4232
19211TIP3   OH279047   1.683   2.226  16.831 -0.0638  0.4477 -0.1610
19211TIP3    H179048   1.760   2.250  16.882  0.1545 -2.2300  0.8770
19211TIP3    H279049   1.718   2.208  16.743  0.3250  0.4119 -0.0029
19212TIP3   OH279050   4.894   3.909   6.112 -0.4383  0.0171 -0.3270
19212TIP3    H179051   4.945   3.830   6.132 -1.0841 -0.5547 -0.9172
19212TIP3    H279052   4.851   3.931   6.195  0.4194  0.2455  0.0588
19213TIP3   OH279053   3.184   0.616   0.722  0.5208 -0.0640 -0.0146
19213TIP3    H179054   3.125   0.688   0.745  0.6697  0.4403 -1.2160
19213TIP3    H279055   3.183   0.613   0.627  2.2955 -0.1867 -0.0416
19214TIP3   OH279056   4.567   2.518   2.368  0.8469  0.3959  0.2128
19214TIP3    H179057   4.535   2.598   2.411  1.4573 -0.3911  2.1729
19214TIP3    H279058   4.489   2.463   2.361  1.0462 -0.0916  1.7381
19215TIP3   OH279059   6.478   4.313   5.537  0.0547 -0.1406  0.0175
19215TIP3    H179060   6.512   4.262   5.610 -0.5906  0.1315  0.5209
19215TIP3    H279061   6.387   4.332   5.561  0.5864  2.1588  0.3698
19216TIP3   OH279062   6.734   3.964   0.113  0.2831 -0.7890  0.2802
19216TIP3    H179063   6.818   3.928   0.140  0.7911  0.7007  0.7305
19216TIP3    H279064   6.717   4.035   0.176 -0.6106 -0.1274 -0.6885
19217TIP3   OH279065   2.889   1.916   0.190  0.2826  0.2677  0.2069
19217TIP3    H179066   2.866   1.908   0.097  0.6489 -0.5681  0.1863
19217TIP3    H279067   2.834   1.852   0.234 -0.7818  1.5203  0.7258
19218TIP3   OH279068   2.872   5.216   5.781  0.5972  0.0103  0.5920
19218TIP3    H179069   2.967   5.209   5.794  0.8669 -2.7813 -2.3189
19218TIP3    H279070   2.835   5.187   5.864  2.2630 -0.4424  1.2102
19219TIP3   OH279071   0.494   2.993  13.875 -0.2893  0.3036 -0.1739
19219TIP3    H179072   0.583   3.025  13.894 -0.1164 -0.2138 -0.0936
19219TIP3    H279073   0.446   3.008  13.956 -0.1268  0.0853 -0.0356
19220TIP3   OH279074   3.413   5.753   1.016 -0.3711  0.1069  0.2316
19220TIP3    H179075   3.332   5.776   0.970 -0.2567  2.4876  1.1299
19220TIP3    H279076   3.386   5.689   1.081 -2.0788  2.7437  2.2273
19221TIP3   OH279077   0.488   4.069  11.525  0.0312  0.6322 -0.2545
19221TIP3    H179078   0.499   4.030  11.439  2.8824  2.0975 -0.6284
19221TIP3    H279079   0.464   4.160  11.508  1.8310  1.2680  0.4174
19222TIP3   OH279080   4.558   3.738   4.159 -0.6955 -0.0928 -0.1593
19222TIP3    H179081   4.642   3.694   4.147 -0.8690 -0.7056  0.8438
19222TIP3    H279082   4.516   3.691   4.231 -2.1108 -0.1002 -0.9743
19223TIP3   OH279083   2.477   6.525   0.621  0.0334  0.8850  0.0665
19223TIP3    H179084   2.566   6.535   0.654  0.8539 -2.0629 -1.1642
19223TIP3    H279085   2.421   6.536   0.699  1.5239  1.3412  1.0903
19224TIP3   OH279086   5.852   3.963  16.174 -0.1917  0.1132 -0.0628
19224TIP3    H179087   5.843   4.040  16.230 -1.9050  0.8289 -1.2508
19224TIP3    H279088   5.782   3.973  16.110  0.4106 -1.7670 -1.0409
19225TIP3   OH279089   5.926   6.331   2.752 -0.1649  0.2150  0.4579
19225TIP3    H179090   5.838   6.340   2.790 -0.7902  0.1865 -0.9477
19225TIP3    H279091   5.983   6.378   2.813 -1.1262  0.0961  1.4720
19226TIP3   OH279092   6.493   2.318  14.837  0.8201  0.7274  0.2810
19226TIP3    H179093   6.476   2.239  14.787  0.9149  0.6899  0.3092
19226TIP3    H279094   6.455   2.301  14.923  0.3494  0.9245  0.1136
19227TIP3   OH279095   0.204   6.690   1.237 -0.5694  0.6405 -0.0789
19227TIP3    H179096   0.286   6.657   1.200 -2.1218 -1.9624 -1.3795
19227TIP3    H279097   0.162   6.736   1.165 -0.3393  1.8219  0.5371
19228TIP3   OH279098   1.488   3.081   3.189 -0.0145  0.3124 -0.4718
19228TIP3    H179099   1.504   3.002   3.239 -0.6662 -0.8159 -2.0068
19228TIP3    H279100   1.427   3.132   3.242 -1.3068 -1.2156 -0.4732
19229TIP3   OH279101   0.826   2.428   3.838 -0.1608 -0.0060  0.0339
19229TIP3    H179102   0.770   2.444   3.914 -1.4013 -1.1199 -0.6378
19229TIP3    H279103   0.820   2.334   3.823  0.6951  0.0935 -0.9774
19230TIP3   OH279104   4.983   2.729   3.884  0.3890 -0.6017  0.0610
19230TIP3    H179105   4.904   2.783   3.891 -0.0763 -1.0943 -1.2467
19230TIP3    H279106   4.953   2.640   3.899  0.7641 -0.7556 -0.0877
19231TIP3   OH279107   3.658   2.860   3.460 -0.4747 -0.2207  0.2307
19231TIP3    H179108   3.585   2.812   3.500 -0.2401  0.8625  1.9841
19231TIP3    H279109   3.687   2.921   3.528 -1.7754  3.5299 -2.4240
19232TIP3   OH279110   0.274   3.973   2.715  0.2127  0.0007  0.1203
19232TIP3    H179111   0.362   3.981   2.752  0.6929 -1.3643 -0.6835
19232TIP3    H279112   0.275   3.889   2.670 -2.0272 -0.7893  1.4840
19233TIP3   OH279113   2.012   6.116   5.648  0.5025 -0.2327  0.0777
19233TIP3    H179114   2.067   6.090   5.723  2.6467 -0.4978 -1.5364
19233TIP3    H279115   2.012   6.039   5.591 -0.7352  0.1395 -0.4311
19234TIP3   OH279116   0.159   4.637   4.813 -0.0397 -0.5849  0.4583
19234TIP3    H179117   0.083   4.650   4.757 -0.2818 -2.8699  0.2230
19234TIP3    H279118   0.217   4.580   4.762  0.2058 -1.8065  2.0678
19235TIP3   OH279119   5.293   2.858  12.284  0.2600  0.2029 -0.2769
19235TIP3    H179120   5.240   2.937  12.273  0.2641  0.2950  0.3444
19235TIP3    H279121   5.312   2.829  12.195  1.4262  1.6951 -0.5437
19236TIP3   OH279122   2.874   1.088   3.139  0.1168  0.0248  0.8174
19236TIP3    H179123   2.931   1.078   3.215  0.7380  1.4594  0.5484
19236TIP3    H279124   2.921   1.148   3.080 -1.5109  0.9912  0.4609
19237TIP3   OH279125   0.810   3.855  17.173 -0.2851  0.3436 -1.0115
19237TIP3    H179126   0.833   3.792  17.105 -0.5327  0.0157 -0.7914
19237TIP3    H279127   0.718   3.836  17.193 -0.5750  1.2283 -1.4484
19238TIP3   OH279128   0.958   1.431   3.733  0.1852 -0.8811 -0.1397
19238TIP3    H179129   1.011   1.472   3.801 -3.1229  1.3554  1.2443
19238TIP3    H279130   0.985   1.473   3.652  0.9685 -0.2527  0.4390
19239TIP3   OH279131   2.849   1.663   4.821  0.2621 -0.2202 -0.3648
19239TIP3    H179132   2.920   1.667   4.885  1.5049 -0.2455 -1.7423
19239TIP3    H279133   2.792   1.593   4.853  1.7489 -1.3475 -0.1836
19240TIP3   OH279134   1.310   0.551   4.802  0.1636  0.0446  1.0371
19240TIP3    H179135   1.293   0.630   4.853  0.7873  1.3513 -0.7249
19240TIP3    H279136   1.398   0.563   4.767 -0.3896 -0.6144 -0.6625
19241TIP3   OH279137   3.657   4.175  13.234  0.8286 -0.3707  0.0653
19241TIP3    H179138   3.588   4.241  13.241  0.4051 -0.8296  0.1951
19241TIP3    H279139   3.611   4.093  13.218  1.3107 -0.7840  0.7576
19242TIP3   OH279140   1.061   2.410  12.776 -0.7651  0.2641  0.3920
19242TIP3    H179141   1.027   2.499  12.761 -0.3748  0.3541  0.0148
19242TIP3    H279142   1.156   2.422  12.784 -0.5338 -0.3280 -1.3390
19243TIP3   OH279143   2.704   0.061   3.627 -0.2615 -0.4996  0.0014
19243TIP3    H179144   2.705   0.002   3.553  0.9983 -0.0529 -0.3527
19243TIP3    H279145   2.796   0.077   3.647 -0.5387 -1.8795  2.6855
19244TIP3   OH279146   5.118   0.591   5.186  0.4154 -0.3926 -0.5245
19244TIP3    H179147   5.065   0.659   5.143 -0.2062 -1.1865 -1.0161
19244TIP3    H279148   5.081   0.509   5.155  1.7866 -0.9581 -0.6924
19245TIP3   OH279149   1.728   5.471   0.930 -0.1666  0.1561  0.6347
19245TIP3    H179150   1.740   5.537   0.861 -0.4088 -1.2012 -0.7280
19245TIP3    H279151   1.814   5.467   0.973  0.4339  0.0005 -0.5289
19246TIP3   OH279152   0.779   6.710  10.853 -0.2292 -0.2375  0.0575
19246TIP3    H179153   0.697   6.711  10.902  0.1185  1.4134  0.6592
19246TIP3    H279154   0.781   6.795  10.808  0.6900 -0.6519 -0.7135
19247TIP3   OH279155   3.408   3.649   2.126  0.4417 -0.3025 -0.6462
19247TIP3    H179156   3.345   3.697   2.073 -0.8757 -0.6832  0.5406
19247TIP3    H279157   3.410   3.561   2.088  0.8210 -0.0824 -1.1414
19248TIP3   OH279158   2.886   6.158  12.517  0.4193  0.4607  0.0540
19248TIP3    H179159   2.915   6.112  12.595 -0.3567 -0.0781  0.0304
19248TIP3    H279160   2.839   6.235  12.550  1.0116  0.8000  0.1031
19249TIP3   OH279161   0.710   0.774  17.014 -0.3592 -0.9576 -0.3433
19249TIP3    H179162   0.638   0.765  16.951  0.1378 -0.1284 -1.0500
19249TIP3    H279163   0.681   0.724  17.090 -1.6022 -0.8076 -0.6934
19250TIP3   OH279164   0.127   6.750   2.625  0.1974  0.6954  0.3713
19250TIP3    H179165   0.084   6.835   2.609  0.8274  0.9546  0.0240
19250TIP3    H279166   0.213   6.773   2.659 -0.3952  0.1530  2.2568
19251TIP3   OH279167   5.230   3.493   1.046  0.1419 -0.3310  0.1031
19251TIP3    H179168   5.308   3.441   1.063  0.5466  0.1749 -0.1858
19251TIP3    H279169   5.214   3.482   0.952 -0.6426 -1.1275  0.3196
19252TIP3   OH279170   3.387   6.707   3.465  0.4770  0.4604  0.0248
19252TIP3    H179171   3.342   6.769   3.407  0.7400  0.8173  0.2031
19252TIP3    H279172   3.358   6.621   3.434  1.1089  0.6246 -1.0483
19253TIP3   OH279173   4.193   0.207   5.162  0.3145 -0.7112  0.4217
19253TIP3    H179174   4.184   0.276   5.096 -0.2451 -1.0766  0.1051
19253TIP3    H279175   4.104   0.171   5.171  0.3425 -0.4720  1.5917
19254TIP3   OH279176   0.976   1.161  11.521 -0.2668  0.0503 -0.3301
19254TIP3    H179177   0.889   1.134  11.549  0.0405  0.2506  0.8591
19254TIP3    H279178   0.961   1.216  11.444 -1.1299 -0.4995 -0.5645
19255TIP3   OH279179   2.593   0.713  15.726  0.1333  0.7261  0.1070
19255TIP3    H179180   2.499   0.704  15.708  0.1605  0.3574  0.1524
19255TIP3    H279181   2.606   0.664  15.806  0.3108  1.0379  0.2698
19256TIP3   OH279182   5.704   5.122  15.342 -0.5931 -0.1349 -0.3763
19256TIP3    H179183   5.626   5.165  15.307 -1.1464 -1.3397 -0.6296
19256TIP3    H279184   5.747   5.083  15.266 -0.9551 -1.4072  0.0656
19257TIP3   OH279185   4.559   1.043  11.257 -0.6280  0.6468 -0.3766
19257TIP3    H179186   4.626   1.088  11.205 -0.9771  0.7266 -0.7612
19257TIP3    H279187   4.609   0.989  11.318 -0.1717 -1.2042 -2.3100
19258TIP3   OH279188   3.905   3.311   1.220 -0.0988  0.0677 -0.6775
19258TIP3    H179189   3.811   3.296   1.213 -0.2620  0.2974  0.9031
19258TIP3    H279190   3.913   3.380   1.286  1.2018 -0.2823 -0.4625
19259TIP3   OH279191   6.678   1.358   5.150  0.5657  0.2295  0.5475
19259TIP3    H179192   6.697   1.412   5.074 -0.8697 -1.0128 -0.7201
19259TIP3    H279193   6.641   1.277   5.114 -1.2377  0.0892  2.6260
19260TIP3   OH279194   0.317   2.339  11.716 -0.3937 -0.2758 -0.2106
19260TIP3    H179195   0.259   2.351  11.792  1.0682  1.1593  0.7268
19260TIP3    H279196   0.298   2.415  11.661  3.0614  2.1812  1.8069
19261TIP3   OH279197   1.908   2.698  12.304  0.7207  0.2372 -0.0049
19261TIP3    H179198   1.981   2.728  12.250  0.1330 -3.6705 -3.2748
19261TIP3    H279199   1.835   2.753  12.279  1.2703  0.6736 -0.6671
19262TIP3   OH279200   2.998   0.447  10.853  0.1772  0.1106 -0.0783
19262TIP3    H179201   2.919   0.412  10.894  1.2226  0.4939  2.3553
19262TIP3    H279202   2.968   0.522  10.801 -0.9033  1.0605  1.8729
19263TIP3   OH279203   0.517   2.923   0.918  0.6467 -0.0693 -0.2917
19263TIP3    H179204   0.532   2.973   0.998  0.9603 -1.8811  0.7993
19263TIP3    H279205   0.440   2.963   0.879 -0.0140  0.3050  1.3491
19264TIP3   OH279206   5.126   6.765   5.174 -0.2749  0.7988 -0.2970
19264TIP3    H179207   5.060   6.713   5.127 -0.3991 -0.2681  1.0124
19264TIP3    H279208   5.147   6.837   5.115 -2.1638  0.8015 -0.9944
19265TIP3   OH279209   0.518   1.705  11.710  0.6053  0.2751  0.1752
19265TIP3    H179210   0.601   1.732  11.671  0.2705 -0.3392 -0.9708
19265TIP3    H279211   0.526   1.610  11.720  0.3757  0.3248  0.8871
19266TIP3   OH279212   2.267   4.066   2.176 -0.4957  0.2320 -0.1171
19266TIP3    H179213   2.361   4.079   2.185 -0.7311 -0.0362  3.8671
19266TIP3    H279214   2.257   3.972   2.159 -0.0733  0.1789 -0.0707
19267TIP3   OH279215   6.192   4.741  15.397 -0.2499  0.0587 -0.0011
19267TIP3    H179216   6.135   4.667  15.374 -0.4364  0.1287  0.2367
19267TIP3    H279217   6.180   4.752  15.491 -0.0489  0.2486  0.0008
19268TIP3   OH279218   5.456   5.026  13.756  0.0053 -0.4071 -0.3756
19268TIP3    H179219   5.503   5.074  13.824  0.5584 -1.5930  0.1026
19268TIP3    H279220   5.365   5.026  13.785  0.0519  0.0916 -0.2292
19269TIP3   OH279221   1.366   4.533   2.875  0.1554  0.3453  0.2329
19269TIP3    H179222   1.351   4.441   2.899 -0.2664  0.3982  0.1642
19269TIP3    H279223   1.303   4.582   2.927  0.3132  0.5908  0.1935
19270TIP3   OH279224   0.952   5.563   1.216 -0.3079  0.0244  0.3292
19270TIP3    H179225   0.933   5.472   1.236 -1.2523  0.0285 -0.4930
19270TIP3    H279226   0.866   5.602   1.198  0.1438  0.9287  0.0888
19271TIP3   OH279227   0.258   3.985   4.731  0.0159  0.1857  0.0126
19271TIP3    H179228   0.213   4.060   4.770  2.1778  1.4086  0.2521
19271TIP3    H279229   0.240   3.992   4.637 -1.4203 -0.1540  0.2477
19272TIP3   OH279230   4.473   4.078   3.303 -0.3256 -0.3432  0.7083
19272TIP3    H179231   4.554   4.029   3.317 -1.4425 -1.9825  1.4859
19272TIP3    H279232   4.410   4.013   3.274 -0.9709  1.1845 -1.4973
19273TIP3   OH279233   2.182   4.661   0.334 -0.2866  0.0243 -0.4829
19273TIP3    H179234   2.217   4.737   0.380 -2.2635  1.6307 -1.5680
19273TIP3    H279235   2.224   4.663   0.248  0.9483 -1.1220  0.0702
19274TIP3   OH279236   6.022   5.275   2.639 -0.2006 -0.0722  0.0992
19274TIP3    H179237   6.001   5.196   2.589 -0.3853  1.1863 -1.8913
19274TIP3    H279238   5.941   5.296   2.685 -0.4418 -0.5350 -0.1141
19275TIP3   OH279239   1.315   0.758  11.245 -0.5084 -0.8071  0.3686
19275TIP3    H179240   1.269   0.834  11.211 -1.7752 -1.1390  1.2876
19275TIP3    H279241   1.333   0.704  11.168 -0.1584  0.1288 -0.2056
19276TIP3   OH279242   4.897   6.748   0.645 -0.4716 -0.3261 -0.6358
19276TIP3    H179243   4.935   6.759   0.558  0.4400  0.1685 -0.1789
19276TIP3    H279244   4.808   6.784   0.637  0.7137  2.7808 -0.5097
19277TIP3   OH279245   5.509   0.963  13.895  0.3627  0.3462 -0.2014
19277TIP3    H179246   5.472   0.883  13.858 -0.0247  0.8607 -0.9276
19277TIP3    H279247   5.574   0.991  13.831 -0.6193  1.4843 -0.7212
19278TIP3   OH279248   6.343   3.180   4.555 -0.3227  0.1396  0.5754
19278TIP3    H179249   6.303   3.265   4.538 -1.3162 -0.5458 -0.5984
19278TIP3    H279250   6.321   3.160   4.646 -0.2035  1.0698  0.8074
19279TIP3   OH279251   5.551   2.974  12.097  0.1975 -0.0731 -0.1647
19279TIP3    H179252   5.571   2.979  12.191  0.3136  0.0702 -0.1981
19279TIP3    H279253   5.636   2.973  12.054  0.1405  0.1915 -0.2859
19280TIP3   OH279254   0.080   2.589   5.869 -0.5302 -0.4923 -0.2431
19280TIP3    H179255   0.020   2.663   5.857 -0.9753 -0.7005  0.6335
19280TIP3    H279256   0.035   2.532   5.932  0.7516 -0.4557  0.7255
19281TIP3   OH279257   4.225   2.891   4.636  0.3508  0.3441 -0.0497
19281TIP3    H179258   4.275   2.924   4.711 -1.0209  2.0541  0.1568
19281TIP3    H279259   4.201   2.802   4.661  0.8829  0.4911  1.0543
19282TIP3   OH279260   1.589   1.039  14.399 -0.5266 -0.0483  0.4937
19282TIP3    H179261   1.630   1.051  14.313  0.3255 -2.4015  0.5307
19282TIP3    H279262   1.533   1.116  14.410 -0.2766  0.5238 -1.9562
19283TIP3   OH279263   2.208   0.698  14.135 -0.0375  0.8763 -0.3824
19283TIP3    H179264   2.249   0.780  14.162 -0.2018  1.1967 -1.0822
19283TIP3    H279265   2.188   0.711  14.042 -2.9841  1.2630  0.2535
19284TIP3   OH279266   6.268   5.454  14.283  0.5131  0.4208  0.0445
19284TIP3    H179267   6.211   5.383  14.255  0.5684  0.1365  0.6584
19284TIP3    H279268   6.273   5.446  14.378  0.3578  1.3698  0.1446
19285TIP3   OH279269   1.969   2.150   4.186 -0.2375 -0.8089  0.6568
19285TIP3    H179270   2.005   2.192   4.265 -2.0536  2.0220  0.0605
19285TIP3    H279271   2.036   2.164   4.119  0.7679 -2.1381  1.3505
19286TIP3   OH279272   0.125   1.336   6.267 -0.5967 -0.2847 -0.1604
19286TIP3    H179273   0.173   1.306   6.344  1.2187  0.8026 -0.8592
19286TIP3    H279274   0.035   1.348   6.299  0.4387  1.6567  2.1744
19287TIP3   OH279275   5.825   1.625   3.919  0.3032  0.3789  0.0723
19287TIP3    H179276   5.836   1.634   4.014  1.0116 -0.5416  0.0869
19287TIP3    H279277   5.731   1.618   3.906  0.1175  1.6959  0.5938
19288TIP3   OH279278   2.483   3.737  15.389  0.2147  0.8365 -1.0547
19288TIP3    H179279   2.470   3.718  15.297 -0.5965 -3.2357 -0.2050
19288TIP3    H279280   2.574   3.713  15.406 -0.0227  0.3052 -0.5186
19289TIP3   OH279281   6.313   3.126   4.858 -0.3499 -0.2461  0.3979
19289TIP3    H179282   6.300   3.220   4.873  1.3224 -0.2258  1.9567
19289TIP3    H279283   6.396   3.107   4.902  0.7571 -1.8866 -2.3095
19290TIP3   OH279284   4.351   5.611  14.576  0.1564 -0.0883  0.0594
19290TIP3    H179285   4.357   5.667  14.653 -1.0103  1.1118 -0.6982
19290TIP3    H279286   4.419   5.544  14.589 -0.0242  0.0981  2.1064
19291TIP3   OH279287   2.269   5.642   2.231  0.0065 -0.5824  0.2925
19291TIP3    H179288   2.240   5.732   2.241 -0.0620 -0.5718 -0.0105
19291TIP3    H279289   2.194   5.596   2.193 -0.4051 -1.0387  1.6027
19292TIP3   OH279290   0.697   5.436   0.085 -0.0016 -0.1724 -0.0172
19292TIP3    H179291   0.731   5.442  -0.004 -1.0745  0.5291 -0.3904
19292TIP3    H279292   0.773   5.453   0.141  0.9426 -1.9031 -0.7627
19293TIP3   OH279293   4.345   4.348  11.491 -0.0971  0.4269 -0.0992
19293TIP3    H179294   4.423   4.342  11.436  0.2207  0.8814  0.2928
19293TIP3    H279295   4.278   4.299  11.444  0.5259 -0.2761 -0.2635
19294TIP3   OH279296   0.002   2.984  17.097  0.2778 -0.8620  0.1221
19294TIP3    H179297   0.017   3.056  17.036  1.2011  0.0080  1.3582
19294TIP3    H279298   0.089   2.953  17.120 -0.1024 -2.0754 -0.0494
19295TIP3   OH279299   5.478   1.053  13.526  0.3391 -0.1160 -0.2605
19295TIP3    H179300   5.441   1.125  13.577 -2.2703 -2.1440  0.8528
19295TIP3    H279301   5.464   1.080  13.435 -0.5770  0.8258  0.1356
19296TIP3   OH279302   3.373   1.129   4.877  0.2087  0.3284 -0.1789
19296TIP3    H179303   3.466   1.110   4.860 -0.1995  0.9532 -3.4839
19296TIP3    H279304   3.364   1.222   4.856 -0.6787  0.8791  2.5529
19297TIP3   OH279305   3.834   1.180   4.128 -0.1866  0.0963  0.2567
19297TIP3    H179306   3.925   1.189   4.100 -1.2407  0.7137 -3.1967
19297TIP3    H279307   3.809   1.092   4.100 -0.6228 -0.1052  1.2744
19298TIP3   OH279308   6.292   1.685  11.938  0.1584  0.3958  0.2518
19298TIP3    H179309   6.302   1.648  11.850 -1.2561  0.4933  0.0332
19298TIP3    H279310   6.202   1.718  11.939  0.1517  0.3276  1.7708
19299TIP3   OH279311   1.906   4.063   5.201 -0.2043  0.8435  0.1690
19299TIP3    H179312   1.850   3.988   5.180 -0.9693  1.3470  0.3805
19299TIP3    H279313   1.990   4.025   5.224 -0.1793  0.1208 -1.0711
19300TIP3   OH279314   3.361   3.394  15.752  0.6112 -0.0244 -0.6459
19300TIP3    H179315   3.325   3.318  15.798  0.7436  0.8604  0.9529
19300TIP3    H279316   3.454   3.375  15.742  0.4607 -0.5077 -1.1319
19301TIP3   OH279317   3.739   2.836  11.893 -0.0268  0.3770 -0.3788
19301TIP3    H179318   3.648   2.863  11.879  0.0674  0.2426 -1.2765
19301TIP3    H279319   3.749   2.757  11.840  0.5441  0.2549 -0.0919
19302TIP3   OH279320   4.393   5.626   2.515 -0.1839 -0.2777  0.0095
19302TIP3    H179321   4.442   5.660   2.440 -1.9872 -0.8007 -1.4432
19302TIP3    H279322   4.302   5.651   2.497 -0.6683 -0.5707  1.9462
19303TIP3   OH279323   1.739   0.335   2.551 -0.2002 -0.5786 -0.2509
19303TIP3    H179324   1.682   0.258   2.556  0.2079 -0.7364  3.0337
19303TIP3    H279325   1.827   0.299   2.545 -0.1229 -0.3515 -0.4692
19304TIP3   OH279326   5.709   5.881   1.270  0.4553  0.6599 -0.0278
19304TIP3    H179327   5.649   5.807   1.281 -0.8332  1.7122  0.1297
19304TIP3    H279328   5.690   5.915   1.183  0.8788  0.9613 -0.0025
19305TIP3   OH279329   2.155   3.210  11.177 -0.0473  0.7580 -0.7250
19305TIP3    H179330   2.178   3.194  11.085  0.1473  0.1237 -0.5681
19305TIP3    H279331   2.157   3.123  11.217 -2.1182  0.7694 -0.5695
19306TIP3   OH279332   3.151   2.088   1.944  0.1368  0.3175 -0.4806
19306TIP3    H179333   3.117   2.178   1.939 -0.7138  0.3720  4.0357
19306TIP3    H279334   3.074   2.033   1.949  0.6536 -0.4192 -0.6334
19307TIP3   OH279335   3.465   6.167  13.494  0.3158 -0.5495  0.6680
19307TIP3    H179336   3.401   6.238  13.484 -0.1161 -1.0926 -0.4880
19307TIP3    H279337   3.418   6.099  13.541  0.3489 -0.5520  0.6969
19308TIP3   OH279338   5.047   2.084   6.745 -0.4702 -0.5447  0.1074
19308TIP3    H179339   5.090   2.159   6.786 -1.4244  0.1062 -0.0521
19308TIP3    H279340   4.980   2.058   6.808 -0.7448 -0.6850 -0.2442
19309TIP3   OH279341   3.044   6.103   3.095 -0.3509 -0.7838  0.2486
19309TIP3    H179342   3.013   6.176   3.149  1.4326  1.1631 -1.2749
19309TIP3    H279343   2.985   6.104   3.019  0.8196  0.3328 -0.6827
19310TIP3   OH279344   2.611   3.667   2.114 -0.6820 -0.1162 -0.6953
19310TIP3    H179345   2.665   3.645   2.190 -1.6149  1.1903  0.3727
19310TIP3    H279346   2.635   3.756   2.092 -0.7373 -0.3358 -1.6675
19311TIP3   OH279347   4.259   3.755  15.970  0.2889  0.2963 -0.2269
19311TIP3    H179348   4.168   3.739  15.946  0.8158 -1.2140 -1.2584
19311TIP3    H279349   4.258   3.759  16.065 -0.6248 -1.0936 -0.1705
19312TIP3   OH279350   6.509   3.863  14.177  0.7632  0.1558  0.7073
19312TIP3    H179351   6.473   3.852  14.089  1.2913 -1.1158  0.6396
19312TIP3    H279352   6.512   3.958  14.190 -1.0139  0.3056  0.0750
19313TIP3   OH279353   4.552   4.703  15.875 -0.5841 -0.0277  0.6557
19313TIP3    H179354   4.621   4.724  15.812 -0.7259 -0.8779  0.1983
19313TIP3    H279355   4.530   4.786  15.916 -0.2917  0.4909 -0.2235
19314TIP3   OH279356   6.030   0.158  10.832  0.1531  0.1819 -0.8625
19314TIP3    H179357   6.053   0.192  10.745  2.2817 -0.2458 -0.4966
19314TIP3    H279358   6.009   0.066  10.817 -0.9033  0.4504 -1.1175
19315TIP3   OH279359   0.121   1.988   6.552  0.4668 -1.0376 -0.3094
19315TIP3    H179360   0.163   1.929   6.615 -0.2891  0.0386  1.2595
19315TIP3    H279361   0.132   2.076   6.590  1.7585 -0.1165 -2.7047
19316TIP3   OH279362   0.533   2.429  14.538 -0.3085 -0.5135  0.3051
19316TIP3    H179363   0.624   2.400  14.538  0.0096  0.4572 -0.3238
19316TIP3    H279364   0.532   2.503  14.599 -0.5222 -0.0775 -0.2242
19317TIP3   OH279365   3.757   5.461  13.661  0.3456  0.0688 -0.0787
19317TIP3    H179366   3.818   5.534  13.675  2.2307 -1.0648 -2.0657
19317TIP3    H279367   3.670   5.502  13.662  1.2401  1.9821  1.0799
19318TIP3   OH279368   0.991   0.995   3.390  0.8830  0.2601  0.0154
19318TIP3    H179369   1.031   0.979   3.475  2.4066  0.1611 -0.7093
19318TIP3    H279370   1.031   1.076   3.359  0.0792  0.4844 -0.4585
19319TIP3   OH279371   0.236   0.066  13.788 -0.1169  0.3530 -0.0598
19319TIP3    H179372   0.245   0.116  13.707  0.9096  1.4568  0.7363
19319TIP3    H279373   0.278   0.119  13.855 -2.0679  0.0488  1.4568
19320TIP3   OH279374   5.695   1.451  11.637  0.5655 -0.1968 -0.3238
19320TIP3    H179375   5.615   1.500  11.621  0.5254  0.5007  1.8438
19320TIP3    H279376   5.754   1.513  11.680  1.4785 -1.3072  0.0632
19321TIP3   OH279377   0.745   5.835   4.624  0.2689 -0.3714 -0.3167
19321TIP3    H179378   0.734   5.821   4.530  0.5826  0.4163 -0.4670
19321TIP3    H279379   0.781   5.923   4.632  1.7356 -1.0167  0.4593
19322TIP3   OH279380   5.525   6.042  16.204  0.2235 -0.0260 -0.4072
19322TIP3    H179381   5.547   6.042  16.298 -0.2930 -0.2661 -0.2860
19322TIP3    H279382   5.429   6.040  16.202  0.2630 -1.8741 -0.9480
19323TIP3   OH279383   4.765   6.721  13.288 -0.4288 -0.5295 -0.1652
19323TIP3    H179384   4.712   6.659  13.237 -2.3813  1.5490 -0.7498
19323TIP3    H279385   4.808   6.667  13.354 -1.6281 -2.5882 -1.0198
19324TIP3   OH279386   0.100   0.308  12.914 -0.3541 -0.3555 -0.2419
19324TIP3    H179387   0.045   0.345  12.846 -0.6396  1.2614  0.8469
19324TIP3    H279388   0.039   0.283  12.984  0.2820  1.5629  1.0262
19325TIP3   OH279389   3.195   2.472   0.884  0.3917  0.2580  0.2163
19325TIP3    H179390   3.199   2.565   0.906 -0.1651  0.1342  0.8744
19325TIP3    H279391   3.105   2.447   0.907  1.1357 -0.9025  1.9552
19326TIP3   OH279392   4.767   5.866  11.095  0.9301  0.3693 -0.8853
19326TIP3    H179393   4.780   5.862  11.000 -0.4314  1.1538 -1.1124
19326TIP3    H279394   4.710   5.942  11.108  3.0856  1.7511  0.7751
19327TIP3   OH279395   3.063   5.262  15.296  0.3800 -0.0312 -0.3866
19327TIP3    H179396   2.978   5.303  15.311 -0.0594 -0.7627 -0.8423
19327TIP3    H279397   3.079   5.272  15.202  0.2059 -1.0063 -0.5298
19328TIP3   OH279398   1.978   3.812  16.682  0.4906 -0.2759  0.9540
19328TIP3    H179399   2.040   3.767  16.740  0.3181 -1.1797  0.4579
19328TIP3    H279400   1.940   3.742  16.629  2.4566  0.7971 -1.9820
19329TIP3   OH279401   0.435   2.190  13.831  0.1156 -0.1453  0.1031
19329TIP3    H179402   0.471   2.278  13.820  0.3115 -0.1916  0.3749
19329TIP3    H279403   0.511   2.132  13.827 -0.0050 -0.2987 -0.0014
19330TIP3   OH279404   3.254   4.693  14.229 -0.1987  0.3642  0.1355
19330TIP3    H179405   3.272   4.787  14.229 -0.1359  0.3527 -0.0328
19330TIP3    H279406   3.201   4.678  14.307 -2.4546  0.9551 -1.2508
19331TIP3   OH279407   1.186   1.844  14.808  0.3021 -0.1493 -0.2296
19331TIP3    H179408   1.255   1.828  14.873  0.1955 -2.4196 -0.6343
19331TIP3    H279409   1.228   1.898  14.742  1.0914  0.2273  0.5704
19332TIP3   OH279410   5.380   2.715  13.460 -0.6529  0.3132 -0.1269
19332TIP3    H179411   5.307   2.772  13.435 -0.9507  0.0138  0.0572
19332TIP3    H279412   5.413   2.752  13.542 -0.8970  0.1775  0.0347
19333TIP3   OH279413   0.974   6.551   1.593  0.1821  0.0845  0.3172
19333TIP3    H179414   1.016   6.635   1.613 -1.1351 -0.0580  3.9058
19333TIP3    H279415   1.040   6.485   1.616  1.3106  0.0539 -2.7354
19334TIP3   OH279416   0.556   6.456   5.751 -0.0327 -0.3688  0.6622
19334TIP3    H179417   0.582   6.370   5.718  1.8760  0.1701  0.7189
19334TIP3    H279418   0.614   6.517   5.706 -1.2109  0.8874  0.8046
19335TIP3   OH279419   3.212   0.113   3.907 -0.0770  0.2603 -0.2114
19335TIP3    H179420   3.246   0.027   3.882 -1.1292 -0.5616  1.0982
19335TIP3    H279421   3.126   0.119   3.866  0.8832  1.6242 -2.1049
19336TIP3   OH279422   1.358   4.124   5.886 -0.4710  0.0679 -0.5567
19336TIP3    H179423   1.406   4.181   5.946 -0.9027  0.1332 -0.2691
19336TIP3    H279424   1.307   4.066   5.943 -0.3860 -0.3018 -0.8530
19337TIP3   OH279425   4.906   0.496   6.060 -0.6744 -0.4062 -0.4252
19337TIP3    H179426   4.831   0.463   6.109 -1.7754 -1.3383 -2.6588
19337TIP3    H279427   4.974   0.429   6.070 -1.0252 -0.7708 -0.4757
19338TIP3   OH279428   2.051   4.208  13.358  0.9956  0.4102  0.1819
19338TIP3    H179429   2.015   4.226  13.271  1.2282  0.9500  0.2002
19338TIP3    H279430   2.039   4.289  13.406 -1.5493 -0.6634  1.4879
19339TIP3   OH279431   5.995   3.063  15.290  0.8384  0.0121  0.3900
19339TIP3    H179432   5.967   2.972  15.283 -0.6476  0.4093  1.0020
19339TIP3    H279433   6.087   3.059  15.315  1.0961 -1.3205 -0.7196
19340TIP3   OH279434   5.700   6.537  12.015  0.5770 -0.3466 -0.5249
19340TIP3    H179435   5.733   6.450  12.037 -0.0443 -0.2028  1.0330
19340TIP3    H279436   5.747   6.596  12.074 -0.0587  0.2160 -0.5733
19341TIP3   OH279437   2.729   5.065  15.454  0.0625  0.0350 -0.1888
19341TIP3    H179438   2.642   5.075  15.417 -1.7929 -2.7674  3.1588
19341TIP3    H279439   2.762   4.984  15.414 -0.1594 -0.5971  0.8945
19342TIP3   OH279440   6.670   1.671  14.453  0.3382 -0.1976 -0.2796
19342TIP3    H179441   6.625   1.739  14.403  1.9762  1.0730 -0.0822
19342TIP3    H279442   6.735   1.636  14.393 -0.7486 -1.9000 -0.5045
19343TIP3   OH279443   4.420   2.160  16.002  0.2835 -0.2680  0.1477
19343TIP3    H179444   4.410   2.104  16.079 -0.9850  0.8215  0.8106
19343TIP3    H279445   4.384   2.245  16.030 -2.8360 -0.6214 -2.5463
19344TIP3   OH279446   0.710   2.289  13.631 -0.2069 -0.0391 -0.0579
19344TIP3    H179447   0.621   2.270  13.602 -0.5083  1.0847  0.0738
19344TIP3    H279448   0.748   2.204  13.651 -1.7174 -0.4403  1.2246
19345TIP3   OH279449   1.935   4.270  14.795  0.4865 -0.3419  0.7142
19345TIP3    H179450   1.885   4.351  14.795  0.1736 -0.4279 -3.5860
19345TIP3    H279451   2.027   4.297  14.792  0.4069 -0.1747 -0.0600
19346TIP3   OH279452   3.049   3.383   2.130 -0.1409 -0.0850 -0.0171
19346TIP3    H179453   2.987   3.401   2.060 -0.8195  0.0751  0.6230
19346TIP3    H279454   3.048   3.462   2.184  0.4949 -0.1480  0.0948
19347TIP3   OH279455   6.201   2.349  11.673 -0.1811 -0.4265 -0.1354
19347TIP3    H179456   6.160   2.288  11.612 -0.7997  1.4711 -1.6866
19347TIP3    H279457   6.269   2.392  11.621 -0.3468  0.8359  0.6742
19348TIP3   OH279458   0.936   3.403  10.753  0.2860  0.1664  0.2284
19348TIP3    H179459   0.918   3.471  10.818 -4.0118  0.2530 -0.9153
19348TIP3    H279460   0.998   3.443  10.693 -0.0498  2.0721  1.1213
19349TIP3   OH279461   5.478   4.391   2.398  0.1592 -0.2279  0.1303
19349TIP3    H179462   5.391   4.386   2.358  0.6264  1.6289 -1.1566
19349TIP3    H279463   5.527   4.318   2.358  0.0136  0.3876 -1.1828
19350TIP3   OH279464   6.714   0.895   1.976  0.0627  0.0239  0.0884
19350TIP3    H179465   6.625   0.887   1.941 -0.1263 -0.5726  0.6961
19350TIP3    H279466   6.768   0.917   1.900 -0.7102  1.0603 -0.1605
19351TIP3   OH279467   3.157   1.791   2.562 -0.1388 -0.7454  0.0610
19351TIP3    H179468   3.111   1.749   2.489  1.0566 -0.5022 -0.8424
19351TIP3    H279469   3.118   1.878   2.568 -0.8060 -1.0505  0.2540
19352TIP3   OH279470   0.113   3.345   2.921 -0.6038 -0.4934  0.0514
19352TIP3    H179471   0.025   3.341   2.883 -0.3231 -0.1549 -0.6312
19352TIP3    H279472   0.097   3.358   3.015 -1.2800  0.0159 -0.1294
19353TIP3   OH279473   5.535   0.811  14.447  0.4417 -0.5496 -0.4475
19353TIP3    H179474   5.546   0.853  14.532  0.5676  0.5402 -0.9853
19353TIP3    H279475   5.622   0.780  14.424  0.7492  0.6050 -0.9016
19354TIP3   OH279476   0.864   6.732   3.054 -0.3279  0.4608  0.2715
19354TIP3    H179477   0.950   6.741   3.014 -2.0457  0.4862 -3.6755
19354TIP3    H279478   0.846   6.638   3.053 -0.8971  0.5665 -0.2507
19355TIP3   OH279479   4.076   4.051   1.324  0.4482 -0.1699  0.1165
19355TIP3    H179480   4.054   3.961   1.301  1.1851 -0.3298 -0.0058
19355TIP3    H279481   4.111   4.045   1.413  0.0675  0.0641  0.2833
19356TIP3   OH279482   0.964   2.364  12.431 -0.0476 -0.5100 -0.0231
19356TIP3    H179483   0.926   2.285  12.392 -0.2195 -0.1163 -0.6509
19356TIP3    H279484   1.055   2.340  12.449  0.4849 -0.1645 -2.1766
19357TIP3   OH279485   0.727   2.179   0.587 -0.3345  0.1017  0.1538
19357TIP3    H179486   0.663   2.119   0.548 -1.7120  2.3898 -1.2749
19357TIP3    H279487   0.688   2.266   0.573  3.3029  1.6016 -1.1293
19358TIP3   OH279488   3.786   5.644   4.871  0.4695 -0.0823 -0.4311
19358TIP3    H179489   3.786   5.729   4.914  0.3830  0.4265 -1.4406
19358TIP3    H279490   3.871   5.605   4.894 -0.4255 -0.6984  1.9366
19359TIP3   OH279491   2.218   1.630  14.880 -0.3247 -0.0421 -0.0660
19359TIP3    H179492   2.129   1.659  14.898 -0.3020 -0.2902  0.4622
19359TIP3    H279493   2.272   1.677  14.943  0.1852  1.7152 -1.7682
19360TIP3   OH279494   4.895   1.871  11.216  0.0832  0.5428 -0.0969
19360TIP3    H179495   4.987   1.896  11.219  0.9095 -2.4674  2.0462
19360TIP3    H279496   4.893   1.793  11.160 -1.2799  0.9052 -0.5849
19361TIP3   OH279497   5.212   3.632   5.390 -0.0773 -0.4730 -0.1086
19361TIP3    H179498   5.223   3.688   5.313  1.4420  1.6520  1.5753
19361TIP3    H279499   5.172   3.689   5.455  1.5438 -1.3061  1.6537
19362TIP3   OH279500   6.615   1.024  12.689 -0.1252  0.3904  0.3455
19362TIP3    H179501   6.642   1.006  12.599 -0.3294  0.6247  0.2405
19362TIP3    H279502   6.649   1.112  12.707 -0.3331  0.4573  0.4034
19363TIP3   OH279503   1.090   0.380  12.852 -0.5712  0.2229  0.2690
19363TIP3    H179504   1.078   0.473  12.872  0.4820  0.1311  1.4158
19363TIP3    H279505   1.185   0.369  12.851 -0.5950 -0.1993 -2.9600
19364TIP3   OH279506   6.710   3.153  12.255 -1.0647 -0.2999  0.4773
19364TIP3    H179507   6.705   3.060  12.233  2.8036 -0.5247  0.2057
19364TIP3    H279508   6.698   3.198  12.172 -0.0726 -0.6776  0.1244
19365TIP3   OH279509   6.448   2.066  13.996 -0.6093  0.7127  0.2608
19365TIP3    H179510   6.495   2.109  14.068  1.4566 -1.1386  0.0539
19365TIP3    H279511   6.491   2.098  13.917  2.1979 -3.0257  0.1559
19366TIP3   OH279512   0.863   0.734  16.655  0.1613  0.2277  0.4489
19366TIP3    H179513   0.824   0.808  16.701  1.7332  0.3050  1.6913
19366TIP3    H279514   0.932   0.703  16.713 -0.3649 -2.1208 -0.1306
19367TIP3   OH279515   3.033   5.405  16.818  0.0086  0.6583 -0.2616
19367TIP3    H179516   3.096   5.365  16.759 -0.0399 -1.3218  0.9695
19367TIP3    H279517   2.962   5.434  16.762  1.5149  1.9819 -1.5452
19368TIP3   OH279518   1.272   2.852   0.025 -0.1951  0.4467  0.0584
19368TIP3    H179519   1.218   2.843  -0.054 -0.1611  1.6123 -0.1044
19368TIP3    H279520   1.236   2.928   0.070  1.0901  1.0316  0.1211
19369TIP3   OH279521   6.300   1.605   5.351  0.2089 -0.0109 -0.2298
19369TIP3    H179522   6.218   1.612   5.400 -0.3221  0.3637 -1.1495
19369TIP3    H279523   6.341   1.525   5.384 -0.3175  0.0402  0.5530
19370TIP3   OH279524   4.121   1.508   1.713 -0.1844  0.2230 -0.4674
19370TIP3    H179525   4.064   1.579   1.739  0.0477 -0.3086  1.5744
19370TIP3    H279526   4.101   1.437   1.774  1.8007 -0.3635 -0.4549
19371TIP3   OH279527   6.538   2.528  12.948 -0.0067  0.1834  0.5583
19371TIP3    H179528   6.534   2.549  13.041 -0.5604  0.2504  0.5235
19371TIP3    H279529   6.621   2.563  12.918  1.8222 -2.8935  1.7916
19372TIP3   OH279530   5.732   5.976   0.612 -0.1730 -0.3075 -0.2413
19372TIP3    H179531   5.642   6.011   0.611 -0.1215 -0.1669  0.1723
19372TIP3    H279532   5.782   6.040   0.561 -0.2025 -0.1041 -0.0167
19373TIP3   OH279533   3.925   0.443   3.313 -0.0684 -0.5834  0.4217
19373TIP3    H179534   3.894   0.439   3.223 -0.4483 -0.2211  0.5326
19373TIP3    H279535   3.960   0.532   3.322 -1.4663 -0.0903  1.0874
19374TIP3   OH279536   1.845   3.730   2.539  0.5993 -0.0412 -0.1767
19374TIP3    H179537   1.774   3.784   2.506 -0.5092 -1.2658  0.1432
19374TIP3    H279538   1.863   3.667   2.469 -1.1638 -2.0847  1.1349
19375TIP3   OH279539   4.149   1.286  13.353 -0.2066 -0.1735  0.1066
19375TIP3    H179540   4.112   1.199  13.364  1.4004 -1.2855 -2.8145
19375TIP3    H279541   4.227   1.287  13.408 -1.8308  0.5460  2.5201
19376TIP3   OH279542   2.554   4.521   0.481 -0.5688  0.3518 -0.2790
19376TIP3    H179543   2.599   4.604   0.467 -2.0585  1.6735  2.4069
19376TIP3    H279544   2.604   4.479   0.552 -0.4860 -0.5659 -0.8716
19377TIP3   OH279545   5.799   5.680   1.700 -0.0787 -0.2967 -0.4790
19377TIP3    H179546   5.826   5.733   1.775  0.2037 -1.5293  0.3100
19377TIP3    H279547   5.734   5.734   1.655  1.7274  1.5908 -0.8976
19378TIP3   OH279548   4.795   5.001   5.398 -0.5424  0.3810 -0.0646
19378TIP3    H179549   4.877   4.971   5.438  0.0792 -0.3357 -1.8542
19378TIP3    H279550   4.727   4.950   5.443 -0.1061  1.6183  2.0577
19379TIP3   OH279551   3.549   1.470   0.925 -0.1706 -0.2241 -0.4266
19379TIP3    H179552   3.630   1.435   0.963  0.9403 -0.9620 -3.3122
19379TIP3    H279553   3.482   1.407   0.950  0.8649 -1.6732 -1.2361
19380TIP3   OH279554   5.022   1.045   4.975 -0.1726 -0.5087 -0.8440
19380TIP3    H179555   5.053   1.022   4.887 -0.2032 -0.5067 -0.8557
19380TIP3    H279556   5.074   1.122   4.999  0.0013 -0.6538 -0.7615
19381TIP3   OH279557   0.017   4.128  13.701 -0.3952  0.5239  0.8161
19381TIP3    H179558   0.069   4.128  13.621  0.7877  3.4228  1.5390
19381TIP3    H279559   0.077   4.098  13.769 -1.1454 -1.0545  0.8112
19382TIP3   OH279560   6.030   3.999  15.066 -0.6184  0.3278  0.1798
19382TIP3    H179561   6.001   3.962  14.982  0.3652 -0.4676  0.1794
19382TIP3    H279562   6.005   4.091  15.061 -2.1031 -0.0885 -0.2794
19383TIP3   OH279563   2.295   2.072   1.129 -0.5856 -0.1569  0.4733
19383TIP3    H179564   2.335   2.158   1.145  1.6846 -1.1422  0.3152
19383TIP3    H279565   2.230   2.063   1.199  1.0580  0.5679  2.1511
19384TIP3   OH279566   2.622   1.458   2.170  0.5031 -0.3106 -0.1290
19384TIP3    H179567   2.678   1.388   2.135  1.2685 -0.7978  1.9851
19384TIP3    H279568   2.540   1.414   2.192  0.7246 -0.3974  0.5218
19385TIP3   OH279569   1.814   5.957  15.091  0.0215 -0.3922 -0.5028
19385TIP3    H179570   1.753   6.007  15.038 -0.8963 -0.2902  0.6296
19385TIP3    H279571   1.877   5.921  15.028 -1.5495 -1.0058 -1.7492
19386TIP3   OH279572   4.059   0.996   1.004  0.4565 -0.2743  0.3620
19386TIP3    H179573   4.131   1.057   0.987 -2.1124  2.6380 -0.5048
19386TIP3    H279574   4.047   0.950   0.921  0.2652  0.3759  0.0300
19387TIP3   OH279575   2.974   6.098  11.569 -0.0631 -0.2033  0.3690
19387TIP3    H179576   2.922   6.028  11.529  1.6066 -0.6547 -1.0972
19387TIP3    H279577   3.064   6.066  11.565  0.3364  0.4669  3.0437
19388TIP3   OH279578   1.907   5.206  15.028  0.1037  0.3572 -0.4601
19388TIP3    H179579   1.939   5.116  15.038 -0.3962  0.3137  0.7619
19388TIP3    H279580   1.822   5.206  15.072  1.2468  2.1003  1.8000
19389TIP3   OH279581   6.371   4.707   6.326 -0.0606 -0.3902  0.7312
19389TIP3    H179582   6.359   4.744   6.414 -2.3637 -0.3829  0.4258
19389TIP3    H279583   6.463   4.679   6.325  1.0472  2.8702  1.9080
19390TIP3   OH279584   3.745   6.218  13.465  0.2189  0.0825 -0.1540
19390TIP3    H179585   3.655   6.187  13.471  0.0691  0.8848  2.6196
19390TIP3    H279586   3.795   6.142  13.437 -1.0302 -0.9756  0.4082
19391TIP3   OH279587   1.557   0.813   3.541 -0.0006  0.2106  0.2603
19391TIP3    H179588   1.603   0.859   3.471  0.5437 -0.3168  0.2675
19391TIP3    H279589   1.626   0.778   3.596 -0.4325  0.8237  1.1964
19392TIP3   OH279590   5.578   5.126  10.751  0.3170 -0.1083 -0.4835
19392TIP3    H179591   5.624   5.042  10.759 -1.4750 -1.0839  0.1186
19392TIP3    H279592   5.501   5.105  10.698 -0.9208  0.8242  0.9199
19393TIP3   OH279593   2.457   4.114   0.573 -0.9523  0.4608  0.2076
19393TIP3    H179594   2.381   4.156   0.532  0.0038  1.1146 -0.9415
19393TIP3    H279595   2.428   4.025   0.592 -1.6497  0.3312 -1.3269
19394TIP3   OH279596   6.222   2.057   4.609  0.4497  0.1440 -0.7671
19394TIP3    H179597   6.290   2.078   4.673 -1.7562 -1.5803  2.2285
19394TIP3    H279598   6.190   1.971   4.635 -0.7325 -0.4964 -4.0569
19395TIP3   OH279599   5.384   0.238  13.050  0.0733 -0.2902 -0.4723
19395TIP3    H179600   5.427   0.248  12.965  1.2093  0.4126  0.1701
19395TIP3    H279601   5.327   0.314  13.058 -0.6789 -0.8043 -0.9800
19396TIP3   OH279602   6.439   5.304  15.576 -0.1515 -0.3986 -0.2935
19396TIP3    H179603   6.357   5.273  15.540 -0.6489  0.6985 -0.1412
19396TIP3    H279604   6.424   5.311  15.670  0.0208  0.0417 -0.2915
19397TIP3   OH279605   4.574   6.051  16.960  0.0630  0.1384  0.3013
19397TIP3    H179606   4.599   5.958  16.963  1.4125  0.4962  0.6829
19397TIP3    H279607   4.644   6.095  17.008 -1.2205  1.2195  1.1899
19398TIP3   OH279608   4.214   5.431   4.611  0.1258 -0.6458 -0.0054
19398TIP3    H179609   4.246   5.379   4.536  1.1653  2.0865 -1.5206
19398TIP3    H279610   4.131   5.467   4.581  1.2751  1.6961 -0.4527
19399TIP3   OH279611   2.409   2.346   1.268  0.1932  0.2791 -0.1816
19399TIP3    H179612   2.496   2.324   1.234  0.0468  0.0979 -0.4411
19399TIP3    H279613   2.410   2.441   1.275  0.8832  0.1864  1.1015
19400TIP3   OH279614   6.537   5.156   2.912  1.0713 -0.0385  0.3017
19400TIP3    H179615   6.572   5.230   2.862  0.7793 -0.1756 -0.1097
19400TIP3    H279616   6.443   5.160   2.897  0.7136  1.2124  2.6020
19401TIP3   OH279617   3.205   1.412  12.362 -0.0425 -0.5958  0.0428
19401TIP3    H179618   3.274   1.408  12.296 -0.6569 -0.0335 -0.6574
19401TIP3    H279619   3.169   1.501  12.353 -1.8761 -1.3745 -0.6900
19402TIP3   OH279620   4.689   2.668   0.268  0.1052  0.1295  0.2270
19402TIP3    H179621   4.631   2.743   0.253  1.4029  0.5126 -3.2727
19402TIP3    H279622   4.662   2.604   0.202  0.5300 -1.5859  1.6973
19403TIP3   OH279623   2.358   2.803  14.798 -0.4269  0.0768  0.1895
19403TIP3    H179624   2.394   2.845  14.720  0.3214 -0.2215  0.3664
19403TIP3    H279625   2.430   2.804  14.861 -1.3678  1.3120  1.2670
19404TIP3   OH279626   4.305   6.679  16.980 -0.0800 -0.7075  0.7538
19404TIP3    H179627   4.307   6.686  16.885  0.0819 -1.1104  0.7293
19404TIP3    H279628   4.396   6.688  17.007 -0.1347 -0.5122  0.8753
19405TIP3   OH279629   1.899   0.576   0.038 -0.7191  0.4300  0.0062
19405TIP3    H179630   1.956   0.644   0.000  1.5789 -1.1538  0.5321
19405TIP3    H279631   1.959   0.506   0.063 -3.0688 -1.8867 -0.6679
19406TIP3   OH279632   4.325   5.968   2.627 -0.2063 -0.2065  0.2924
19406TIP3    H179633   4.273   5.973   2.546  0.7421  0.8059 -0.2682
19406TIP3    H279634   4.404   5.921   2.601  0.6818  1.2587  0.3072
19407TIP3   OH279635   0.142   2.238  14.716  0.5124 -0.0758  0.1459
19407TIP3    H179636   0.227   2.208  14.684  0.8531  0.2549  0.7287
19407TIP3    H279637   0.161   2.321  14.760 -0.1931  0.2755 -0.1903
19408TIP3   OH279638   1.517   3.111  14.413 -0.3394  0.9622  0.9163
19408TIP3    H179639   1.599   3.077  14.450  0.3130 -0.5944 -1.7707
19408TIP3    H279640   1.449   3.080  14.472  0.6788 -1.3137  0.9637
19409TIP3   OH279641   1.667   3.844  11.280  0.2076 -0.4143 -0.2494
19409TIP3    H179642   1.719   3.793  11.218  0.0629  0.2278 -0.9088
19409TIP3    H279643   1.646   3.924  11.233 -1.2604 -0.5988  0.0571
19410TIP3   OH279644   1.572   5.194  11.750 -0.6128 -0.5347  0.6887
19410TIP3    H179645   1.630   5.124  11.720  2.6317  2.5191 -0.4511
19410TIP3    H279646   1.590   5.202  11.843 -1.9764 -2.0065  1.1202
19411TIP3   OH279647   2.498   0.371  16.324  0.4816  0.3245 -0.2256
19411TIP3    H179648   2.435   0.442  16.334  1.1268  0.6497  1.7453
19411TIP3    H279649   2.444   0.295  16.302 -0.3902  1.0253 -0.5350
19412TIP3   OH279650   4.414   4.387   0.078  0.2677  0.1669 -0.0024
19412TIP3    H179651   4.446   4.346   0.159  3.4302 -1.5614 -2.0277
19412TIP3    H279652   4.377   4.470   0.107 -0.2634 -1.1506  3.4213
19413TIP3   OH279653   5.072   4.353  11.498  0.1464 -0.8088 -0.3040
19413TIP3    H179654   5.105   4.349  11.588  1.9277 -2.0064 -0.9902
19413TIP3    H279655   5.075   4.445  11.475 -0.7658 -0.4370  1.0198
19414TIP3   OH279656   6.007   0.103  11.566 -0.4310 -0.5347  0.0636
19414TIP3    H179657   6.057   0.024  11.546 -2.3603 -1.5560 -0.8900
19414TIP3    H279658   5.939   0.074  11.628 -1.2408  0.3414 -0.3961
19415TIP3   OH279659   0.737   0.237   4.746  0.4655 -0.4190 -0.5592
19415TIP3    H179660   0.669   0.285   4.699  0.8147 -0.9333 -1.6057
19415TIP3    H279661   0.691   0.165   4.789 -0.0164  0.6620  0.7767
19416TIP3   OH279662   2.018   2.349  15.530 -0.0388 -0.1736 -0.3183
19416TIP3    H179663   1.945   2.289  15.545  0.5020 -1.1759 -1.5171
19416TIP3    H279664   2.041   2.381  15.617  0.2887 -2.4881  0.4907
19417TIP3   OH279665   4.843   2.578   1.945 -0.4107 -0.0738  0.3672
19417TIP3    H179666   4.771   2.601   2.003 -1.5262 -1.0689 -0.6198
19417TIP3    H279667   4.834   2.484   1.930  0.4301 -0.0049 -0.6696
19418TIP3   OH279668   3.178   1.319  11.464  0.1043  0.1378 -0.2162
19418TIP3    H179669   3.148   1.240  11.509  0.7231  0.4193  0.7048
19418TIP3    H279670   3.098   1.370  11.450 -0.4859 -1.2434 -2.0178
19419TIP3   OH279671   0.587   1.659  12.258  0.0227  0.4114  0.0168
19419TIP3    H179672   0.636   1.742  12.258  1.7172 -0.5727  0.6148
19419TIP3    H279673   0.640   1.600  12.311 -1.9014 -0.6544  0.8060
19420TIP3   OH279674   1.059   5.513   2.396  0.0360 -0.0347  0.1345
19420TIP3    H179675   1.070   5.578   2.327  1.0605  0.1548  0.4658
19420TIP3    H279676   1.041   5.432   2.349 -0.0983  0.2598 -0.3276
19421TIP3   OH279677   0.177   4.988  15.854 -0.1625 -0.1628 -0.4311
19421TIP3    H179678   0.198   4.917  15.915 -0.1336  1.2498  1.2459
19421TIP3    H279679   0.192   4.950  15.767  1.4993 -1.6839  0.4745
19422TIP3   OH279680   2.209   2.396   6.202 -0.3087  0.0000  0.3932
19422TIP3    H179681   2.229   2.380   6.294  0.8582 -0.8996 -0.0015
19422TIP3    H279682   2.294   2.405   6.160 -0.7185 -2.3790 -1.0594
19423TIP3   OH279683   5.449   4.063   2.108  0.3315 -0.2878 -0.4261
19423TIP3    H179684   5.357   4.065   2.084  0.3375 -1.7911 -0.6072
19423TIP3    H279685   5.460   3.983   2.159  1.5929 -0.2908 -0.6677
19424TIP3   OH279686   4.579   0.204   6.016  0.1389  0.4357  0.1348
19424TIP3    H179687   4.606   0.153   6.092  2.4720  0.3912 -0.6961
19424TIP3    H279688   4.555   0.290   6.052  0.3063  0.1083  1.0262
19425TIP3   OH279689   3.126   1.470   1.662 -0.3241 -0.5184 -0.2112
19425TIP3    H179690   3.119   1.379   1.689  0.7699 -0.3431  0.6881
19425TIP3    H279691   3.069   1.517   1.724  1.3147 -0.2555  1.1318
19426TIP3   OH279692   0.130   6.057   3.440  0.3470  0.1043  0.1291
19426TIP3    H179693   0.210   6.027   3.395  0.4666  2.2554 -1.1774
19426TIP3    H279694   0.081   6.104   3.372 -0.3578  1.8259  1.7991
19427TIP3   OH279695   3.429   3.166  16.886  0.5011  0.2141 -0.4549
19427TIP3    H179696   3.398   3.134  16.971  0.2382  0.9620 -0.2607
19427TIP3    H279697   3.524   3.153  16.888  0.2352 -1.8670 -0.9614
19428TIP3   OH279698   1.416   3.343   2.221 -0.1667 -0.0925 -0.4304
19428TIP3    H179699   1.499   3.315   2.183 -0.3451 -0.3340 -0.6466
19428TIP3    H279700   1.405   3.434   2.193  0.7217  0.4057  0.7946
19429TIP3   OH279701   0.241   1.936  12.098  0.4298 -0.8293  0.3338
19429TIP3    H179702   0.322   1.891  12.074  1.0706  0.4324  0.0857
19429TIP3    H279703   0.173   1.893  12.045  0.9620 -1.7680  0.4041
19430TIP3   OH279704   0.337   4.257  17.190  0.1689  0.1793  0.5715
19430TIP3    H179705   0.282   4.189  17.151 -1.0698  0.0555  2.4738
19430TIP3    H279706   0.358   4.315  17.117  0.5877 -1.8025 -0.9215
19431TIP3   OH279707   1.835   2.930  16.057 -0.3535 -0.4457  0.2029
19431TIP3    H179708   1.743   2.936  16.083  0.0038 -1.5044  1.7792
19431TIP3    H279709   1.879   2.995  16.113 -0.1332  0.0739 -0.5657
19432TIP3   OH279710   2.329   0.281  11.451  0.2741  0.0264  0.2183
19432TIP3    H179711   2.258   0.219  11.437  0.0973 -0.2316  2.0365
19432TIP3    H279712   2.400   0.228  11.488  1.1197  0.4251 -0.8169
19433TIP3   OH279713   6.531   0.465   2.650  0.2542  0.1896 -0.0898
19433TIP3    H179714   6.497   0.398   2.710  0.6665 -0.3902 -0.5027
19433TIP3    H279715   6.619   0.483   2.682  0.3874  0.0507 -0.3784
19434TIP3   OH279716   0.743   3.073  14.753 -0.0132  0.3596 -1.2545
19434TIP3    H179717   0.672   3.124  14.713  0.7082  0.8707 -1.8916
19434TIP3    H279718   0.813   3.137  14.767  0.7236 -0.3630 -1.6250
19435TIP3   OH279719   5.190   5.396   2.885  0.3625 -0.1008 -0.1092
19435TIP3    H179720   5.102   5.388   2.921  0.5925  0.8261  0.6903
19435TIP3    H279721   5.212   5.489   2.898  0.8050  0.0402 -1.7995
19436TIP3   OH279722   3.948   3.795   4.335 -0.5406 -0.0315  0.6534
19436TIP3    H179723   4.002   3.873   4.322 -1.6756  0.7659  0.6137
19436TIP3    H279724   3.973   3.736   4.263 -1.3041  1.2266 -0.6628
19437TIP3   OH279725   1.495   3.123   2.557 -0.1232  0.5412 -0.1865
19437TIP3    H179726   1.529   3.041   2.520  1.4618  0.6018  1.1113
19437TIP3    H279727   1.430   3.153   2.492 -0.8534 -1.8207 -0.5917
19438TIP3   OH279728   4.866   0.242   1.585 -0.0927 -0.0681 -0.0944
19438TIP3    H179729   4.852   0.233   1.491 -0.2836  2.3339 -0.3305
19438TIP3    H279730   4.959   0.220   1.598  0.0054 -0.1267 -0.8936
19439TIP3   OH279731   6.629   5.331  14.777 -0.1387  0.1959  0.1920
19439TIP3    H179732   6.579   5.374  14.846 -1.3292  1.0352 -1.1692
19439TIP3    H279733   6.712   5.379  14.773 -0.8729  1.4069 -0.3309
19440TIP3   OH279734   1.654   5.769  13.065  0.1204  0.7207  0.5057
19440TIP3    H179735   1.734   5.822  13.069  1.3904 -1.1955  2.0426
19440TIP3    H279736   1.682   5.688  13.022 -1.3740  0.6590 -0.3627
19441TIP3   OH279737   4.358   2.778   3.865 -0.7995 -0.4122 -0.1731
19441TIP3    H179738   4.365   2.815   3.953 -3.0623  0.8561 -0.4630
19441TIP3    H279739   4.429   2.820   3.816 -0.1892 -0.3078  0.7837
19442TIP3   OH279740   5.610   1.339   4.612 -0.1250  0.7506  0.2504
19442TIP3    H179741   5.705   1.327   4.622 -0.0937  0.9891  0.2237
19442TIP3    H279742   5.601   1.408   4.546 -0.3137  0.8689  0.4004
19443TIP3   OH279743   4.509   6.099   3.507 -0.0042  0.1333  0.0446
19443TIP3    H179744   4.435   6.053   3.544 -0.9966  1.9041  0.2975
19443TIP3    H279745   4.568   6.114   3.581 -0.1104  0.0925  0.1369
19444TIP3   OH279746   6.501   1.457   3.487 -0.3358  0.7486  0.6066
19444TIP3    H179747   6.458   1.402   3.422 -0.2195  0.3216  0.8897
19444TIP3    H279748   6.585   1.481   3.446 -0.7069  1.3281  0.1818
19445TIP3   OH279749   4.904   2.328   4.535  0.1671  0.0879 -1.0243
19445TIP3    H179750   4.982   2.376   4.508  0.1097 -0.2160 -1.7458
19445TIP3    H279751   4.865   2.298   4.453  0.5357 -1.7321 -0.5561
19446TIP3   OH279752   1.182   4.593   5.376  0.6308  0.0068  0.2294
19446TIP3    H179753   1.131   4.570   5.453  0.3484  1.2428  0.4299
19446TIP3    H279754   1.136   4.551   5.303 -0.6552  1.0496  0.4162
19447TIP3   OH279755   6.070   2.639  15.486 -0.1563  0.0650  0.5763
19447TIP3    H179756   6.095   2.552  15.455  0.5989  0.1685  0.8877
19447TIP3    H279757   6.150   2.690  15.481 -0.3457  0.4482  1.4375
19448TIP3   OH279758   5.363   3.526  13.181 -0.4823 -0.2030 -0.4089
19448TIP3    H179759   5.440   3.555  13.132  0.5406 -2.0670  0.0358
19448TIP3    H279760   5.386   3.541  13.273 -0.7128 -0.5986 -0.2839
19449TIP3   OH279761   5.305   3.498  14.202 -0.2473  0.2780  0.2155
19449TIP3    H179762   5.315   3.526  14.293  0.9204  1.6997 -0.3188
19449TIP3    H279763   5.380   3.441  14.186  0.8746  1.8949 -0.5029
19450TIP3   OH279764   2.973   5.604   2.782 -0.4615 -0.1763 -0.4684
19450TIP3    H179765   2.934   5.657   2.713  1.1750 -0.2317 -1.4584
19450TIP3    H279766   3.050   5.654   2.810 -1.1246 -0.1354  1.3416
19451TIP3   OH279767   4.911   2.797  15.834  0.0803  0.0323 -0.3346
19451TIP3    H179768   4.900   2.703  15.845 -4.5084  0.3522 -1.2667
19451TIP3    H279769   4.955   2.806  15.750  1.9980 -1.2962  0.4937
19452TIP3   OH279770   6.462   5.075   1.414  0.0244 -0.3076  0.1351
19452TIP3    H179771   6.542   5.126   1.428  0.1199  0.2112 -2.1418
19452TIP3    H279772   6.421   5.071   1.501  0.7336  2.4138  0.6415
19453TIP3   OH279773   4.540   5.768  11.730 -0.3352  0.2464 -0.1672
19453TIP3    H179774   4.544   5.743  11.638 -3.7385  0.8841 -0.5568
19453TIP3    H279775   4.543   5.685  11.777 -0.8222 -0.2359 -0.9660
19454TIP3   OH279776   0.519   0.718  12.507 -0.2428 -0.4104 -0.7636
19454TIP3    H179777   0.460   0.787  12.477 -0.1339 -0.0231 -0.0852
19454TIP3    H279778   0.606   0.754  12.495 -0.2259  0.7320  2.3005
19455TIP3   OH279779   5.556   3.866   0.590  0.1760  0.4447 -0.7438
19455TIP3    H179780   5.524   3.865   0.681 -1.0316  1.2484 -1.1530
19455TIP3    H279781   5.480   3.839   0.538  0.7571  0.3573 -1.5501
19456TIP3   OH279782   1.430   2.664  11.305  0.7774 -0.5847  0.6197
19456TIP3    H179783   1.517   2.701  11.319  0.8859 -0.3044 -0.7670
19456TIP3    H279784   1.370   2.734  11.331  0.9666 -0.3846  0.5197
19457TIP3   OH279785   3.867   1.383  11.185 -0.9459  0.9953  0.0859
19457TIP3    H179786   3.881   1.291  11.209 -1.0532  1.1764  0.8630
19457TIP3    H279787   3.955   1.421  11.183 -0.9148  0.9135 -0.0615
19458TIP3   OH279788   4.650   2.376   0.246 -0.7785 -0.3561 -0.6391
19458TIP3    H179789   4.659   2.310   0.178  1.8515 -0.2197 -0.4698
19458TIP3    H279790   4.739   2.409   0.259 -1.6031  1.1784  1.3040
19459TIP3   OH279791   1.976   5.906   4.738 -0.0114  0.1114  0.1583
19459TIP3    H179792   1.884   5.911   4.713  0.2859 -0.0571 -1.0407
19459TIP3    H279793   1.993   5.813   4.748  0.0621  0.1315  0.2153
19460TIP3   OH279794   0.519   3.219  15.637  0.3436 -0.2232  0.3690
19460TIP3    H179795   0.519   3.220  15.541  0.3939 -1.2352  0.3608
19460TIP3    H279796   0.592   3.276  15.660  1.7439 -1.7225 -0.2287
19461TIP3   OH279797   5.306   6.047  14.202  0.0048  0.3663 -0.4505
19461TIP3    H179798   5.398   6.024  14.192 -0.1873 -1.3687  1.5794
19461TIP3    H279799   5.305   6.115  14.269 -0.0412  1.7958 -1.8643
19462TIP3   OH279800   6.492   0.756  15.071  0.3752 -0.1115  0.0769
19462TIP3    H179801   6.492   0.692  15.000 -0.4830 -0.0975  0.0639
19462TIP3    H279802   6.510   0.704  15.149 -0.3275 -0.3680  0.0680
19463TIP3   OH279803   0.808   6.436  13.390 -0.0195  0.2767  0.9911
19463TIP3    H179804   0.799   6.419  13.296 -0.7021  0.0092  1.0987
19463TIP3    H279805   0.720   6.422  13.425 -0.2617  2.4834  1.3398
19464TIP3   OH279806   5.096   5.075  12.031  0.5484 -0.2879  0.1384
19464TIP3    H179807   5.091   5.057  12.125 -0.6636 -0.9106 -0.0339
19464TIP3    H279808   5.120   4.991  11.991 -2.8845 -1.0721 -0.4577
19465TIP3   OH279809   1.447   3.519  12.535 -0.0826 -0.4837 -0.0551
19465TIP3    H179810   1.526   3.487  12.490  0.6594  1.8020 -0.4464
19465TIP3    H279811   1.469   3.514  12.628 -0.0972 -1.3999 -0.0954
19466TIP3   OH279812   0.194   1.300  11.567 -0.0435  0.3006 -0.4199
19466TIP3    H179813   0.123   1.364  11.558  0.0724  0.2095 -2.1374
19466TIP3    H279814   0.273   1.349  11.543  0.3757  0.1667  0.6513
19467TIP3   OH279815   1.686   4.947   4.824  0.0712  0.4099 -0.6510
19467TIP3    H179816   1.736   4.996   4.890  1.1884 -0.5098 -0.8031
19467TIP3    H279817   1.596   4.950   4.855  0.2374  1.9202 -0.2581
19468TIP3   OH279818   2.903   2.151   3.295 -0.7366 -0.3185  0.1020
19468TIP3    H179819   2.999   2.151   3.291 -0.6653 -0.7395  1.6335
19468TIP3    H279820   2.875   2.163   3.204  0.7937  3.0931 -0.0119
19469TIP3   OH279821   0.982   4.055   4.349  0.3054 -0.1050 -0.4173
19469TIP3    H179822   0.991   3.970   4.393  0.4971 -0.3370 -0.9013
19469TIP3    H279823   0.992   4.119   4.419 -0.0548 -0.4858 -0.0082
19470TIP3   OH279824   1.618   1.402  14.048 -0.7456  0.3398 -0.3833
19470TIP3    H179825   1.597   1.481  14.099  0.8172  0.4821  0.0458
19470TIP3    H279826   1.626   1.333  14.114  0.1253  0.2892 -0.5377
19471TIP3   OH279827   4.257   2.806  12.681 -0.3020 -0.4559  0.1677
19471TIP3    H179828   4.176   2.838  12.642 -1.0153 -0.1923  1.7823
19471TIP3    H279829   4.237   2.716  12.708  0.5706 -1.0588 -1.1859
19472TIP3   OH279830   6.337   0.538   5.212 -0.7699  0.0172  0.4789
19472TIP3    H179831   6.387   0.617   5.235 -1.5122  0.6849 -0.1318
19472TIP3    H279832   6.276   0.568   5.144 -0.0607 -1.4174 -0.8269
19473TIP3   OH279833   0.546   6.460  14.972  0.0253 -0.5280  0.4548
19473TIP3    H179834   0.640   6.473  14.961  0.0035  1.0937  1.8499
19473TIP3    H279835   0.537   6.368  14.995  0.9918 -1.3526 -2.3154
19474TIP3   OH279836   1.952   4.739   4.706  0.9025  0.1702  0.5027
19474TIP3    H179837   1.964   4.782   4.791 -0.2935 -1.5636  1.5879
19474TIP3    H279838   1.858   4.724   4.701  1.2847 -2.1805  0.0903
19475TIP3   OH279839   2.895   4.663   5.745 -0.3600 -0.0909  0.0723
19475TIP3    H179840   2.920   4.754   5.764 -0.6219  0.2769 -1.2420
19475TIP3    H279841   2.808   4.654   5.783  0.8447 -0.6986  2.7466
19476TIP3   OH279842   2.949   4.663  15.720  0.2006  0.2202  0.7784
19476TIP3    H179843   2.953   4.740  15.665 -0.8966  0.4104  0.9574
19476TIP3    H279844   3.041   4.638  15.734  0.5301  1.1311  0.2321
19477TIP3   OH279845   0.600   3.706  14.537 -1.0051  0.4869 -0.6793
19477TIP3    H179846   0.674   3.652  14.566 -2.0432 -0.4088  0.3599
19477TIP3    H279847   0.640   3.788  14.507  0.6569 -1.1278 -3.0082
19478TIP3   OH279848   2.557   3.737   0.288 -0.2763 -0.0394  0.1397
19478TIP3    H179849   2.600   3.822   0.302  0.3086 -0.3254  0.1165
19478TIP3    H279850   2.630   3.674   0.284 -0.6973 -0.5212  0.0161
19479TIP3   OH279851   4.754   0.255  10.771 -0.4741  0.4697  0.3149
19479TIP3    H179852   4.785   0.345  10.779  0.3361  0.0564  2.0617
19479TIP3    H279853   4.830   0.207  10.738 -0.7499  0.3214 -0.1112
19480TIP3   OH279854   0.519   3.958  14.293 -0.1751  0.0260 -0.8907
19480TIP3    H179855   0.549   4.046  14.273 -0.1365  0.0284 -0.8239
19480TIP3    H279856   0.465   3.933  14.218 -0.3768  0.1965 -0.8012
19481TIP3   OH279857   4.245   3.540  14.022  0.3841  0.4216  0.2034
19481TIP3    H179858   4.177   3.503  14.079 -1.2963 -0.0935 -2.0277
19481TIP3    H279859   4.325   3.494  14.046 -0.0427  1.0103  2.8674
19482TIP3   OH279860   3.929   1.887  12.341 -0.1748  0.0538  0.4014
19482TIP3    H179861   3.879   1.810  12.368  2.5004 -1.3753  1.4785
19482TIP3    H279862   3.919   1.890  12.246 -3.4126  0.6766  0.6737
19483TIP3   OH279863   1.421   3.006   5.689 -0.3016  0.0323  0.2098
19483TIP3    H179864   1.490   2.947   5.659  2.1668  2.7347  0.3954
19483TIP3    H279865   1.375   3.031   5.609 -0.3236 -0.8322 -0.0576
19484TIP3   OH279866   5.822   2.177  13.737 -0.0261  0.0898 -0.0251
19484TIP3    H179867   5.799   2.085  13.729 -1.3272  0.3562  0.4498
19484TIP3    H279868   5.884   2.180  13.809 -0.8133 -0.3003  0.6843
19485TIP3   OH279869   4.982   3.142   5.002 -0.0543 -0.3565 -0.5960
19485TIP3    H179870   5.049   3.139   4.934  1.1638  0.5905  0.5370
19485TIP3    H279871   4.918   3.076   4.976 -0.2583  0.8595 -3.3142
19486TIP3   OH279872   2.562   2.607  17.153 -0.6327 -0.0660 -0.3253
19486TIP3    H179873   2.611   2.678  17.195  0.6963 -0.6737 -0.8003
19486TIP3    H279874   2.588   2.613  17.060  0.6575 -2.0789 -0.1171
19487TIP3   OH279875   2.744   4.777  10.670 -0.2270  0.6044 -0.3618
19487TIP3    H179876   2.650   4.774  10.655  0.1738  1.2023 -3.2967
19487TIP3    H279877   2.776   4.844  10.610  2.3228 -1.0429 -0.9509
19488TIP3   OH279878   3.143   4.557  12.259  0.4346  0.6085  0.7294
19488TIP3    H179879   3.216   4.502  12.230  0.7668  0.9824  0.8360
19488TIP3    H279880   3.081   4.497  12.300  0.2100  0.1481 -0.2849
19489TIP3   OH279881   2.399   6.338   5.026 -0.5859  0.4199  0.2150
19489TIP3    H179882   2.357   6.423   5.016  0.5377  1.0750  0.9001
19489TIP3    H279883   2.416   6.309   4.936  0.2445  1.5519 -0.0024
19490TIP3   OH279884   3.651   6.667   2.690 -0.5290 -0.2995  0.5773
19490TIP3    H179885   3.680   6.722   2.763 -1.5458  0.6201  0.2941
19490TIP3    H279886   3.677   6.715   2.612  1.8498 -1.9622  0.2877
19491TIP3   OH279887   5.524   5.050  13.018 -0.1609 -1.2363  0.3828
19491TIP3    H179888   5.559   5.138  13.005 -1.8696 -0.5138  0.5721
19491TIP3    H279889   5.430   5.059  13.002 -0.3212 -3.0725  0.1958
19492TIP3   OH279890   6.688   3.131  12.875 -0.6480  0.3752  0.1808
19492TIP3    H179891   6.626   3.058  12.872  0.9173 -1.1015  2.1846
19492TIP3    H279892   6.734   3.127  12.792  0.7250 -2.1393  1.0303
19493TIP3   OH279893   1.946   1.598   0.771  0.3519 -0.6470  0.1793
19493TIP3    H179894   2.011   1.654   0.729 -0.8188 -0.0939 -0.9086
19493TIP3    H279895   1.994   1.517   0.790  1.3171 -0.3182 -0.7654
19494TIP3   OH279896   5.668   0.778  15.612  0.2389 -0.6803 -0.3475
19494TIP3    H179897   5.719   0.821  15.681 -0.5792 -2.2469  1.3030
19494TIP3    H279898   5.629   0.702  15.656 -2.1254 -0.4732 -1.9892
19495TIP3   OH279899   4.228   3.827  14.040  0.0113  0.2748 -0.7078
19495TIP3    H179900   4.216   3.739  14.004  2.1889  0.0515 -0.9494
19495TIP3    H279901   4.259   3.879  13.966  3.7614 -0.0039  0.5426
19496TIP3   OH279902   0.338   5.089  16.461 -0.5272 -0.1189 -0.4449
19496TIP3    H179903   0.347   5.069  16.368 -0.7419 -0.2707 -0.4327
19496TIP3    H279904   0.307   5.007  16.500  1.4740 -0.6489  0.0825
19497TIP3   OH279905   6.331   2.270   1.817  0.0344  0.1170 -0.3994
19497TIP3    H179906   6.388   2.225   1.879 -0.9772 -0.9613 -0.2466
19497TIP3    H279907   6.248   2.280   1.863  0.1498  1.8868 -0.5439
19498TIP3   OH279908   3.223   3.776   5.105  0.6294 -0.2390 -0.5903
19498TIP3    H179909   3.151   3.747   5.049  2.2274 -0.2037 -2.7241
19498TIP3    H279910   3.190   3.856   5.148 -0.9512 -0.8099 -0.7207
19499TIP3   OH279911   4.875   3.104   3.259 -0.1847  0.1452 -0.8655
19499TIP3    H179912   4.790   3.065   3.279  0.2508  0.1205  0.9860
19499TIP3    H279913   4.890   3.167   3.329  1.4268 -0.0197 -1.0423
19500TIP3   OH279914   0.060   6.674   4.958 -0.0915 -0.1088  0.1211
19500TIP3    H179915   0.044   6.727   4.879 -0.0718 -0.9501 -0.4514
19500TIP3    H279916  -0.027   6.642   4.983  0.0539 -0.8132 -0.2548
19501TIP3   OH279917   0.932   2.357   0.073 -0.2423  0.2599  0.3044
19501TIP3    H179918   0.873   2.408   0.128  1.0254 -0.8285  2.7469
19501TIP3    H279919   1.019   2.392   0.094  0.4246 -1.4524  0.4144
19502TIP3   OH279920   3.053   0.132   6.206  0.7533  0.0197  0.4652
19502TIP3    H179921   3.098   0.097   6.283  0.2974 -1.2847  0.1625
19502TIP3    H279922   2.982   0.069   6.189  0.1513  0.8883 -0.3468
19503TIP3   OH279923   0.764   2.529   5.951  0.3640 -0.1925  0.0410
19503TIP3    H179924   0.799   2.617   5.965  0.2721 -0.2291  0.5050
19503TIP3    H279925   0.670   2.542   5.938  0.2123 -0.3043  0.9943
19504TIP3   OH279926   3.036   6.185   4.746  0.8881  0.2700 -0.7740
19504TIP3    H179927   2.984   6.254   4.788  0.7705 -0.0267 -0.4376
19504TIP3    H279928   3.025   6.201   4.652 -2.6043 -1.8336 -0.8115
19505TIP3   OH279929   4.043   3.258   5.695 -0.0234  0.0995 -0.1224
19505TIP3    H179930   3.960   3.232   5.736  0.0066 -3.0073 -1.8502
19505TIP3    H279931   4.109   3.240   5.761 -0.4813  0.1022  0.3411
19506TIP3   OH279932   5.513   0.720   5.104  0.1577  0.1419 -0.3886
19506TIP3    H179933   5.421   0.746   5.114  0.2621  0.3881 -0.0421
19506TIP3    H279934   5.511   0.624   5.108 -0.0888  0.1432 -0.4306
19507TIP3   OH279935   4.053   0.093   4.073  0.5151  0.3403  0.4134
19507TIP3    H179936   4.136   0.086   4.120  0.4602  1.5279  0.7170
19507TIP3    H279937   4.073   0.146   3.996  0.4138 -0.8766 -0.4706
19508TIP3   OH279938   2.401   6.746  13.365 -0.3545 -0.1135 -0.0281
19508TIP3    H179939   2.326   6.696  13.332 -0.3828  0.5477 -1.0087
19508TIP3    H279940   2.419   6.709  13.451 -0.9282 -1.2121 -0.3709
19509TIP3   OH279941   0.292   4.307  16.756 -0.2589 -0.2938  0.1864
19509TIP3    H179942   0.206   4.278  16.786  0.4705 -0.7987  1.8617
19509TIP3    H279943   0.328   4.356  16.830  0.6271  0.4733 -0.7372
19510TIP3   OH279944   0.172   6.707  12.916 -0.4322 -0.3262  0.4751
19510TIP3    H179945   0.188   6.689  13.008  0.1969 -1.4265  0.1648
19510TIP3    H279946   0.235   6.775  12.893  0.8548 -1.5304  0.3540
19511TIP3   OH279947   4.736   0.588   4.615 -0.1258 -0.0009 -0.5998
19511TIP3    H179948   4.684   0.515   4.646  1.7381 -0.9959  0.2511
19511TIP3    H279949   4.827   0.561   4.629  0.5918  3.4864  2.1773
19512TIP3   OH279950   1.752   3.499   0.315  0.4409 -0.1818  0.0987
19512TIP3    H179951   1.690   3.483   0.244 -1.1180  0.5901  1.2615
19512TIP3    H279952   1.822   3.435   0.301 -0.9954 -1.5995 -0.7680
19513TIP3   OH279953   5.125   0.357  12.554 -0.0971 -0.1657 -0.4081
19513TIP3    H179954   5.144   0.275  12.509 -1.4653 -0.7727  0.1133
19513TIP3    H279955   5.078   0.410  12.489  0.6543  0.1576 -0.6956
19514TIP3   OH279956   5.479   1.486   4.334 -0.2454  0.5864  0.0636
19514TIP3    H179957   5.497   1.565   4.282  0.0996  0.0004 -0.7143
19514TIP3    H279958   5.473   1.518   4.424 -0.0142  1.4897 -0.2316
19515TIP3   OH279959   5.228   0.905   4.278  0.3596 -0.8315 -0.1943
19515TIP3    H179960   5.290   0.859   4.335  0.8371 -0.1999 -0.1956
19515TIP3    H279961   5.226   0.994   4.312 -1.1487 -1.0374  0.2922
19516TIP3   OH279962   4.224   3.975   4.342 -0.3889  0.6884 -0.2974
19516TIP3    H179963   4.265   4.062   4.350 -2.0248  1.4380  0.1552
19516TIP3    H279964   4.295   3.914   4.362  0.4925  1.9674  0.6314
19517TIP3   OH279965   2.641   0.287   4.332 -0.0943 -0.4120 -0.1338
19517TIP3    H179966   2.621   0.215   4.271  2.1877 -1.1803  0.0018
19517TIP3    H279967   2.726   0.320   4.303  0.3494  0.1480  1.7702
19518TIP3   OH279968   5.934   2.412   6.288  0.0867 -0.0591  0.2655
19518TIP3    H179969   5.914   2.320   6.307  0.0278 -0.0206  0.3916
19518TIP3    H279970   6.024   2.410   6.255  0.0729 -0.1659  0.2349
19519TIP3   OH279971   2.943   1.766   1.372 -0.3554 -0.2124  0.2097
19519TIP3    H179972   2.952   1.789   1.279  0.0017  1.4475  0.6397
19519TIP3    H279973   3.032   1.754   1.403 -0.4567 -0.3387  0.4573
19520TIP3   OH279974   0.285   2.225  15.331  0.3038  0.3649  0.4571
19520TIP3    H179975   0.375   2.245  15.357  0.1922  1.5376 -0.0348
19520TIP3    H279976   0.275   2.264  15.245  0.3167 -2.5817 -0.9318
19521TIP3   OH279977   3.199   0.222  15.188 -0.3869 -0.3300 -0.0599
19521TIP3    H179978   3.282   0.175  15.196  1.0830  2.0734 -0.4896
19521TIP3    H279979   3.163   0.223  15.277  0.8684  0.0314  0.4517
19522TIP3   OH279980   1.014   5.100   3.579 -0.2959  0.8927 -0.3004
19522TIP3    H179981   1.045   5.104   3.489 -0.9559  0.4109 -0.5466
19522TIP3    H279982   1.026   5.189   3.612  2.6080  0.4268  0.0376
19523TIP3   OH279983   0.533   3.406   3.749 -0.2750 -0.4238 -0.4543
19523TIP3    H179984   0.500   3.479   3.802 -0.1294  0.4639 -1.5788
19523TIP3    H279985   0.528   3.331   3.808 -0.8941  0.3890  0.5644
19524TIP3   OH279986   2.135   0.099   2.964  0.0236  0.3420  0.6089
19524TIP3    H179987   2.078   0.027   2.936 -1.2351  1.3152  0.6807
19524TIP3    H279988   2.191   0.116   2.888 -0.2222 -0.1583  0.3156
19525TIP3   OH279989   4.934   6.490  16.165 -0.6846  0.1744  0.3198
19525TIP3    H179990   4.930   6.465  16.073 -2.4251 -1.7086  0.8783
19525TIP3    H279991   5.005   6.554  16.169  1.3580 -1.8544 -1.8408
19526TIP3   OH279992   1.935   4.048  12.857  0.1226  0.0296 -0.3727
19526TIP3    H179993   1.949   4.142  12.861 -0.7942  0.2209 -1.2524
19526TIP3    H279994   1.892   4.026  12.940 -0.7695  0.6012 -0.6730
19527TIP3   OH279995   5.150   6.561   5.834  0.4979  0.1027  0.3773
19527TIP3    H179996   5.235   6.585   5.872  0.0775 -0.2585  1.5552
19527TIP3    H279997   5.171   6.489   5.774  1.1091  0.4462  0.1672
19528TIP3   OH279998   3.667   2.638   5.668 -0.4313 -0.2324  0.1311
19528TIP3    H179999   3.666   2.621   5.762 -1.4528  0.4045  0.2460
19528TIP3    H280000   3.726   2.571   5.632  0.1154 -0.3598  1.2373
19529TIP3   OH280001   4.125   5.337   5.481  0.2813  0.1732  0.4144
19529TIP3    H180002   4.056   5.390   5.522 -0.0668 -0.9186  1.2571
19529TIP3    H280003   4.206   5.380   5.507 -0.0079  0.3911  0.9670
19530TIP3   OH280004   1.622   2.284  11.747 -0.2199 -0.3748 -0.1639
19530TIP3    H180005   1.660   2.235  11.674 -0.9645 -1.2050 -0.0135
19530TIP3    H280006   1.542   2.323  11.711 -1.1853 -1.7065  0.4788
19531TIP3   OH280007   6.278   3.936   4.499 -0.2456 -0.2938 -0.3305
19531TIP3    H180008   6.213   3.993   4.540  1.9010  0.3752  2.3287
19531TIP3    H280009   6.243   3.848   4.510 -0.8155  0.0744  0.9102
19532TIP3   OH280010   4.762   3.861  10.884 -0.0737 -0.1016 -0.4090
19532TIP3    H180011   4.749   3.947  10.923 -0.5375  0.1133 -1.0205
19532TIP3    H280012   4.832   3.875  10.820  0.6018 -0.4234  0.2591
19533TIP3   OH280013   2.443   2.570   0.746  0.4699  0.4055  0.0702
19533TIP3    H180014   2.505   2.590   0.815  1.5809  3.4677 -1.7159
19533TIP3    H280015   2.484   2.500   0.695  1.3135  0.7072  0.3454
19534TIP3   OH280016   1.123   2.617   4.346 -0.0149 -0.1163  0.0760
19534TIP3    H180017   1.217   2.606   4.339 -0.2756 -2.3142 -0.4482
19534TIP3    H280018   1.088   2.583   4.263 -1.4168 -1.7341  1.2913
19535TIP3   OH280019   0.482   4.006   3.206  0.5551 -0.2240 -0.4251
19535TIP3    H180020   0.471   3.912   3.224  0.8979 -0.2469 -0.3308
19535TIP3    H280021   0.432   4.049   3.276  0.7571 -0.3312 -0.2134
19536TIP3   OH280022   3.899   2.210   1.615  0.1623 -0.2746 -0.0294
19536TIP3    H180023   3.912   2.269   1.690  1.0514  0.3385 -0.6506
19536TIP3    H280024   3.962   2.241   1.550 -1.2852 -0.2004 -1.4031
19537TIP3   OH280025   1.287   1.170   4.020 -0.0278 -0.0313  0.7957
19537TIP3    H180026   1.311   1.161   4.112  1.6250  1.6142  0.5655
19537TIP3    H280027   1.349   1.234   3.985 -1.7118  0.6603 -1.0549
19538TIP3   OH280028   1.238   3.573  14.238 -0.0699  0.0806 -0.0972
19538TIP3    H180029   1.281   3.502  14.286 -0.9465 -0.2530  0.2180
19538TIP3    H280030   1.146   3.566  14.263 -0.4716  0.1735 -1.4981
19539TIP3   OH280031   0.086   6.248  10.564 -0.1139 -0.2221  0.4296
19539TIP3    H180032   0.059   6.158  10.542  1.2668 -1.2466  2.7377
19539TIP3    H280033   0.180   6.249  10.548 -0.2568  1.0736 -0.3632
19540TIP3   OH280034   1.810   2.246  13.399 -0.5816  0.1787 -0.2089
19540TIP3    H180035   1.882   2.218  13.343 -0.1620 -1.4907  1.1348
19540TIP3    H280036   1.735   2.193  13.370 -0.4113 -0.5482  0.6478
19541TIP3   OH280037   1.278   4.454  13.251 -0.5754  0.2201  0.1093
19541TIP3    H180038   1.246   4.407  13.174  0.3858  1.1661 -0.8889
19541TIP3    H280039   1.373   4.463  13.236 -0.0969 -1.0796  2.2089
19542TIP3   OH280040   5.098   4.740  12.717  0.1740  0.2349 -0.5741
19542TIP3    H180041   5.189   4.727  12.744 -0.0543 -0.3405 -0.0521
19542TIP3    H280042   5.080   4.832  12.734  0.1979  0.0077  0.8020
19543TIP3   OH280043   3.464   1.942  11.581  0.0479  0.0823  0.0983
19543TIP3    H180044   3.455   1.865  11.524 -0.6154  1.1242 -1.2064
19543TIP3    H280045   3.377   1.956  11.617  0.9066 -1.9356  3.2255
19544TIP3   OH280046   4.294   0.583  15.955 -0.5377  0.3458 -0.1945
19544TIP3    H180047   4.368   0.544  15.908 -1.0692 -0.4162 -0.3920
19544TIP3    H280048   4.220   0.527  15.935 -0.8926  0.3367  1.0918
19545TIP3   OH280049   4.830   2.131  16.789 -0.4500  0.4606  0.3534
19545TIP3    H180050   4.866   2.163  16.872 -1.0991 -0.6396  1.0782
19545TIP3    H280051   4.780   2.053  16.813 -1.8951  0.9782 -0.8813
19546TIP3   OH280052   6.103   5.277   4.794  0.0227  0.1925 -0.0999
19546TIP3    H180053   6.109   5.278   4.890 -2.1178  0.2034  0.0623
19546TIP3    H280054   6.028   5.221   4.776  0.4733  0.1193 -1.7951
19547TIP3   OH280055   2.104   0.008  13.429  0.4866  0.3244  0.1321
19547TIP3    H180056   2.177   0.066  13.449  4.1612 -3.1362 -2.3635
19547TIP3    H280057   2.079   0.032  13.339  0.1141 -0.0689  0.1307
19548TIP3   OH280058   1.265   3.137  15.767  0.0369 -0.5041 -0.6030
19548TIP3    H180059   1.205   3.210  15.782 -1.0659 -1.8996  2.0438
19548TIP3    H280060   1.212   3.059  15.778  1.3941 -1.7670 -2.5871
19549TIP3   OH280061   0.607   1.632  13.009 -0.4189 -0.9441 -0.4204
19549TIP3    H180062   0.669   1.640  12.937 -0.1935  2.6868  0.0955
19549TIP3    H280063   0.659   1.597  13.081  0.0901 -1.6088 -1.1060
19550TIP3   OH280064   0.731   2.336  17.090 -0.1080 -0.1159  0.0970
19550TIP3    H180065   0.751   2.296  17.175 -2.3312 -0.6640  0.3764
19550TIP3    H280066   0.691   2.265  17.040  0.3752  0.4586 -1.1134
19551TIP3   OH280067   4.933   0.884   3.197  0.0684 -0.1541  0.6300
19551TIP3    H180068   4.927   0.848   3.108  0.0532  1.7400 -0.1540
19551TIP3    H280069   4.891   0.970   3.191  0.5319  0.2082  2.3567
19552TIP3   OH280070   1.799   2.508  11.813 -0.0897 -0.6230  0.4775
19552TIP3    H180071   1.761   2.425  11.841 -0.2597 -0.4064  0.8893
19552TIP3    H280072   1.734   2.546  11.754 -0.5382 -0.2321  1.2164
19553TIP3   OH280073   6.610   4.224  15.129  0.4373 -0.1158  0.3316
19553TIP3    H180074   6.548   4.293  15.107 -0.3301 -0.7805  0.3853
19553TIP3    H280075   6.687   4.242  15.074  0.4844  1.1104  0.7742
19554TIP3   OH280076   6.349   6.151   2.864  0.2013 -0.5081  0.3113
19554TIP3    H180077   6.392   6.237   2.868  0.9021 -0.9478  3.5033
19554TIP3    H280078   6.296   6.147   2.945 -2.7963 -1.5854 -1.6135
19555TIP3   OH280079   6.542   6.254  12.833  0.1032  0.4453 -0.0045
19555TIP3    H180080   6.624   6.205  12.827 -0.4439 -0.2963 -1.7334
19555TIP3    H280081   6.566   6.336  12.877  1.4328 -0.4632  1.0237
19556TIP3   OH280082   5.883   3.777  16.621  0.3830  0.2943  0.7994
19556TIP3    H180083   5.909   3.795  16.531  0.7899  0.0639  0.8708
19556TIP3    H280084   5.788   3.792  16.622  0.6747  2.1750  0.8107
19557TIP3   OH280085   5.000   1.815   2.188  0.2819  0.2335  0.3584
19557TIP3    H180086   5.047   1.773   2.115  1.4508  0.0357  1.2106
19557TIP3    H280087   4.909   1.787   2.177  1.4121 -4.7580  2.3992
19558TIP3   OH280088   4.709   4.693  14.926 -0.2261 -0.1086  0.5479
19558TIP3    H180089   4.650   4.768  14.924  0.7382  0.6227 -1.1076
19558TIP3    H280090   4.792   4.729  14.955 -0.1062 -0.7940  1.0580
19559TIP3   OH280091   3.259   5.100  14.549 -0.2416 -0.2008 -0.1958
19559TIP3    H180092   3.305   5.180  14.573 -0.7959 -0.2395  1.0530
19559TIP3    H280093   3.313   5.030  14.586 -1.2118 -0.2519  1.1735
19560TIP3   OH280094   5.551   1.681  10.722 -0.2092  1.3873 -0.5913
19560TIP3    H180095   5.643   1.684  10.748 -0.3357  1.0813 -0.0980
19560TIP3    H280096   5.502   1.684  10.804 -0.6160  0.6144 -0.7949
19561TIP3   OH280097   4.002   5.197   6.074 -0.1219 -0.0159  0.0750
19561TIP3    H180098   4.018   5.256   6.148  0.0683  0.0139  0.0093
19561TIP3    H280099   3.909   5.208   6.055 -0.3448 -0.6160  0.8169
19562TIP3   OH280100   5.771   2.582   2.339  0.3542 -0.2284 -0.5600
19562TIP3    H180101   5.732   2.590   2.426  0.3413 -0.3974 -0.5496
19562TIP3    H280102   5.711   2.525   2.291  1.3292 -1.6864 -0.0953
19563TIP3   OH280103   5.914   5.480   1.536  0.6802 -0.5062  0.3458
19563TIP3    H180104   5.873   5.559   1.572 -1.0784 -0.8770 -0.7966
19563TIP3    H280105   5.965   5.511   1.461 -1.2240 -0.5962 -1.0390
19564TIP3   OH280106   0.516   4.391   4.720  0.1356 -0.0561 -0.2029
19564TIP3    H180107   0.486   4.456   4.784 -2.7775 -1.5107 -0.0163
19564TIP3    H280108   0.552   4.320   4.773  0.4418  0.0166 -0.3080
19565TIP3   OH280109   0.391   4.891   5.603 -0.5400 -0.1645  0.3829
19565TIP3    H180110   0.389   4.839   5.683  0.2358  0.3642  0.7605
19565TIP3    H280111   0.317   4.860   5.552 -1.3076 -0.2048  1.4975
19566TIP3   OH280112   3.174   1.970   6.193 -0.0611 -0.2807 -0.7798
19566TIP3    H180113   3.178   1.874   6.197 -0.1225 -0.2311  1.2852
19566TIP3    H280114   3.186   1.998   6.284 -2.2823  1.6039 -1.0310
19567TIP3   OH280115   5.129   5.378   4.775  0.2108  0.4293  0.1105
19567TIP3    H180116   5.100   5.414   4.859  1.7348  0.4889  0.6257
19567TIP3    H280117   5.204   5.432   4.750  1.1314 -0.9892 -0.2037
19568TIP3   OH280118   5.453   2.709   1.246  0.4581  0.8459 -0.3761
19568TIP3    H180119   5.545   2.689   1.263  0.6956  3.3061  1.4895
19568TIP3    H280120   5.423   2.637   1.190  2.7210 -1.5481  1.3742
19569TIP3   OH280121   1.563   3.620   2.412  0.0538  0.3588  0.0150
19569TIP3    H180122   1.651   3.640   2.383 -0.0360  2.6954  1.2040
19569TIP3    H280123   1.575   3.569   2.492  0.2953 -1.5200 -1.1934
19570TIP3   OH280124   3.035   5.459   0.192 -0.0607 -0.0421  0.9812
19570TIP3    H180125   3.092   5.536   0.201  0.2047 -0.0884 -0.2441
19570TIP3    H280126   3.096   5.385   0.191 -0.0980 -0.0662 -0.7403
19571TIP3   OH280127   5.425   0.308   0.319  0.1456 -0.2840  0.1141
19571TIP3    H180128   5.508   0.260   0.316  0.7530  0.7201  0.6241
19571TIP3    H280129   5.391   0.303   0.230 -0.0927 -2.1687  0.3006
19572TIP3   OH280130   6.372   3.308  11.572  0.5387  0.2585 -0.4396
19572TIP3    H180131   6.435   3.247  11.535  1.1252  0.9342 -0.5561
19572TIP3    H280132   6.394   3.311  11.665  0.8848  0.7234 -0.5306
19573TIP3   OH280133   1.946   0.658  12.913 -0.2714 -0.0346  0.0093
19573TIP3    H180134   1.989   0.743  12.903 -1.6346  0.3914 -2.5309
19573TIP3    H280135   2.017   0.594  12.912  0.8164  1.0523  2.4282
19574TIP3   OH280136   0.013   1.877   1.752  0.5591  0.8586  0.2563
19574TIP3    H180137   0.037   1.787   1.773  0.0752  0.7242  0.2332
19574TIP3    H280138   0.017   1.923   1.836  0.8308  0.8265  0.2638
19575TIP3   OH280139   1.644   3.466   3.500 -0.2861 -0.1177 -0.1926
19575TIP3    H180140   1.654   3.519   3.580  1.2695  0.8530 -0.9989
19575TIP3    H280141   1.693   3.387   3.517  0.1341  0.1355 -0.2248
19576TIP3   OH280142   0.852   1.536  14.390  0.5288 -0.2193  0.1828
19576TIP3    H180143   0.814   1.616  14.353  1.6488  2.2280  4.0060
19576TIP3    H280144   0.945   1.557  14.401  0.5202 -1.4534  2.7503
19577TIP3   OH280145   4.702   1.671  16.186  0.7033  0.4573 -0.2035
19577TIP3    H180146   4.750   1.632  16.259  1.4310  0.6228 -0.5973
19577TIP3    H280147   4.749   1.751  16.166 -0.7335  1.5025  0.5293
19578TIP3   OH280148   0.116   0.345   1.012  0.0186  0.2344  0.5444
19578TIP3    H180149   0.109   0.324   1.105 -1.1330  0.1954  0.4546
19578TIP3    H280150   0.166   0.272   0.975  0.5326  0.2812  1.1436
19579TIP3   OH280151   4.818   4.328  15.408  0.1195  0.5796 -0.8953
19579TIP3    H180152   4.758   4.391  15.367  0.1480  0.4389 -1.1576
19579TIP3    H280153   4.883   4.310  15.339  1.0192  1.4720 -0.3023
19580TIP3   OH280154   5.331   1.214  15.970  0.1479 -0.8946 -0.0710
19580TIP3    H180155   5.390   1.176  16.036  0.0642  0.0468  0.5592
19580TIP3    H280156   5.372   1.193  15.886  0.6764 -1.4116  0.3138
19581TIP3   OH280157   4.033   1.133   2.839 -0.0434 -0.2200 -0.0176
19581TIP3    H180158   3.976   1.143   2.915 -0.5315 -0.4414 -0.3544
19581TIP3    H280159   3.988   1.179   2.768  0.7132  0.5260 -0.0248
19582TIP3   OH280160   4.102   5.299  17.191  0.1695 -0.1657  0.3789
19582TIP3    H180161   4.046   5.258  17.257  0.0417  0.3192  0.5716
19582TIP3    H280162   4.046   5.363  17.148  0.3016 -0.3580 -0.0863
19583TIP3   OH280163   3.135   6.329   5.825  0.7099  0.9172 -0.0237
19583TIP3    H180164   3.222   6.349   5.859  0.7459  0.5533  0.1015
19583TIP3    H280165   3.075   6.377   5.882  0.8105  0.8995  0.0957
19584TIP3   OH280166   5.500   1.405  14.848 -0.1443  0.1114  0.1330
19584TIP3    H180167   5.534   1.325  14.810  0.0388  0.1349  0.2434
19584TIP3    H280168   5.424   1.378  14.899 -2.7687  0.5676 -3.3514
19585TIP3   OH280169   6.069   1.815   3.866 -0.4047  0.3674  0.5121
19585TIP3    H180170   5.999   1.816   3.931 -0.2880  0.2442  0.6404
19585TIP3    H280171   6.034   1.763   3.794 -0.1296 -0.4038  0.9323
19586TIP3   OH280172   3.349   4.026   0.288  0.1957  0.2241  0.3329
19586TIP3    H180173   3.316   3.991   0.371 -0.1441 -1.2148 -0.3985
19586TIP3    H280174   3.425   4.079   0.313  0.7435 -1.0811  1.4705
19587TIP3   OH280175   5.298   1.407  14.339 -0.2039  0.0342 -0.4060
19587TIP3    H180176   5.345   1.427  14.420 -0.9305 -0.9695  0.2787
19587TIP3    H280177   5.280   1.313  14.344  0.1660 -0.1363 -1.9618
19588TIP3   OH280178   2.488   4.569  15.609 -0.1977  0.4238  0.1265
19588TIP3    H180179   2.563   4.558  15.668 -1.3528 -1.4414  1.3048
19588TIP3    H280180   2.440   4.644  15.645 -1.4011 -1.2701  2.1736
19589TIP3   OH280181   4.870   0.913   4.106  0.0388 -0.1552  0.3313
19589TIP3    H180182   4.872   0.925   4.201  1.5123 -0.6870  0.3826
19589TIP3    H280183   4.832   0.826   4.094  1.4580 -0.8088  0.5146
19590TIP3   OH280184   1.565   1.981  11.554  0.0451  0.7563 -0.1581
19590TIP3    H180185   1.572   1.912  11.489  0.2180  0.8690 -0.2589
19590TIP3    H280186   1.652   1.987  11.594 -0.1154  0.5445  0.2311
19591TIP3   OH280187   2.546   5.554  14.721 -0.1775  0.5665 -0.1948
19591TIP3    H180188   2.492   5.593  14.652  0.8862  1.0156 -0.7830
19591TIP3    H280189   2.636   5.563  14.690  0.3869  1.4693  1.5875
19592TIP3   OH280190   5.261   4.472  14.059 -0.0342 -0.1532  0.1094
19592TIP3    H180191   5.221   4.402  14.111  0.5394  0.8566  1.9757
19592TIP3    H280192   5.352   4.473  14.086  0.4015  0.0468 -1.3373
19593TIP3   OH280193   5.221   0.638   5.952  0.1178  0.1068  0.0492
19593TIP3    H180194   5.304   0.669   5.989 -0.2411  0.2476  0.7371
19593TIP3    H280195   5.159   0.644   6.024 -0.1571 -1.4107 -0.0461
19594TIP3   OH280196   0.456   1.807  11.972 -0.3041 -0.2254  0.2893
19594TIP3    H180197   0.417   1.729  12.011 -0.9997 -1.0518 -1.9840
19594TIP3    H280198   0.461   1.787  11.878 -1.4738  2.8463 -0.4993
19595TIP3   OH280199   2.797   6.314  14.357 -0.4115 -0.6649 -0.2086
19595TIP3    H180200   2.768   6.230  14.323 -1.3460  0.0847 -1.3366
19595TIP3    H280201   2.717   6.359  14.384 -0.0567  0.3443 -0.7766
19596TIP3   OH280202   5.236   4.421   5.552 -0.1233 -0.3192  0.5560
19596TIP3    H180203   5.223   4.330   5.580 -0.7956 -0.3015  0.3143
19596TIP3    H280204   5.222   4.473   5.630 -1.4796 -0.3061  0.3124
19597TIP3   OH280205   3.659   2.456  16.182  0.0777 -0.1977  0.0553
19597TIP3    H180206   3.717   2.396  16.230 -1.3249 -1.4504  0.2255
19597TIP3    H280207   3.631   2.405  16.105 -2.3805 -0.3857  1.0126
19598TIP3   OH280208   4.080   0.858  15.025 -0.0323 -0.1762 -0.2002
19598TIP3    H180209   4.132   0.919  14.972  0.5094 -1.3987 -1.0980
19598TIP3    H280210   4.040   0.913  15.092  3.3676  0.6645  1.2485
19599TIP3   OH280211   6.675   4.032  15.347 -0.0141 -0.0724  0.4550
19599TIP3    H180212   6.715   4.119  15.354  1.9947 -0.8512 -1.0524
19599TIP3    H280213   6.646   4.027  15.256  0.0613 -1.0622  0.4856
19600TIP3   OH280214   5.857   1.708   1.754 -0.4847  0.0280  0.4838
19600TIP3    H180215   5.846   1.744   1.842 -0.1989  0.8689  0.1768
19600TIP3    H280216   5.791   1.639   1.749 -0.9348  0.4001  1.1312
19601TIP3   OH280217   4.139   5.311  13.944 -0.6807 -0.3181 -0.2944
19601TIP3    H180218   4.185   5.383  13.988 -1.5693  0.3355 -0.4324
19601TIP3    H280219   4.170   5.315  13.853  0.6921 -1.2915  0.0994
19602TIP3   OH280220   5.209   2.320   5.132 -0.2841  0.1016 -0.2239
19602TIP3    H180221   5.125   2.275   5.120 -0.4103  0.3959 -0.4455
19602TIP3    H280222   5.207   2.392   5.069  0.8225 -0.8469 -1.3555
19603TIP3   OH280223   4.350   2.703  11.569  0.1807 -0.2129 -0.0586
19603TIP3    H180224   4.262   2.666  11.558 -0.0846  0.0973  0.9450
19603TIP3    H280225   4.357   2.770  11.501 -0.0851 -0.7419 -0.6066
19604TIP3   OH280226   0.008   4.662  11.797  0.3958  0.4757  0.4013
19604TIP3    H180227  -0.005   4.590  11.858  0.6470 -0.4867 -0.6777
19604TIP3    H280228  -0.080   4.700  11.786  0.1888  0.0606  0.6290
19605TIP3   OH280229   3.375   2.175  10.602 -0.0810  0.0158  0.0014
19605TIP3    H180230   3.288   2.136  10.613  0.3735 -1.3398 -1.0611
19605TIP3    H280231   3.362   2.248  10.541 -0.7551  0.8934  1.1781
19606TIP3   OH280232   4.207   5.568  13.990 -0.0848  0.4805 -0.1068
19606TIP3    H180233   4.216   5.645  14.046 -0.6966  1.2484 -1.0374
19606TIP3    H280234   4.209   5.603  13.901 -0.7984 -0.5344 -0.5335
19607TIP3   OH280235   4.952   1.843   3.373  0.0514  0.4022 -0.3109
19607TIP3    H180236   4.985   1.917   3.424  1.4824  1.5488 -2.7896
19607TIP3    H280237   4.958   1.872   3.282 -1.4227 -1.9681 -1.2245
19608TIP3   OH280238   4.638   0.448   0.558 -0.2895 -0.3850 -0.4849
19608TIP3    H180239   4.729   0.474   0.573  0.1559 -2.4374  0.4890
19608TIP3    H280240   4.641   0.399   0.475 -0.5150 -0.4557 -0.4494
19609TIP3   OH280241   4.950   4.045   5.501 -0.3479 -0.2288 -0.3368
19609TIP3    H180242   4.927   4.126   5.455 -0.9325 -0.8603 -1.1540
19609TIP3    H280243   4.969   4.074   5.591 -0.6046  0.8080 -0.6077
19610TIP3   OH280244   6.507   0.539  11.400 -0.1411 -0.8337  0.1181
19610TIP3    H180245   6.596   0.536  11.365 -0.3234 -1.5147 -0.2960
19610TIP3    H280246   6.459   0.593  11.338 -0.5423 -2.3096 -0.8936
19611TIP3   OH280247   1.956   1.067  11.174 -0.1077  0.2717  0.0502
19611TIP3    H180248   1.911   1.142  11.212  1.6008  1.5420 -0.3953
19611TIP3    H280249   2.034   1.104  11.132  0.8775 -1.7651  0.0224
19612TIP3   OH280250   0.915   3.255  16.416  0.7815 -0.1632  0.5991
19612TIP3    H180251   0.927   3.178  16.361 -2.8844  0.4853 -1.2276
19612TIP3    H280252   0.955   3.327  16.367  0.3930 -0.1693  0.2682
19613TIP3   OH280253   2.951   1.957  14.590  0.2484  0.2250  0.4592
19613TIP3    H180254   3.030   1.909  14.615 -0.8031 -1.0676  1.3766
19613TIP3    H280255   2.934   1.928  14.500  2.6453  3.0201 -0.9882
19614TIP3   OH280256   2.891   2.755  16.695 -0.2859  0.0312  0.0201
19614TIP3    H180257   2.819   2.774  16.755  1.1023  1.2529  1.3503
19614TIP3    H280258   2.859   2.683  16.641 -0.6200 -3.0106  4.0590
19615TIP3   OH280259   5.853   2.656   3.645 -0.0602  0.4630 -0.1301
19615TIP3    H180260   5.915   2.711   3.597  0.3232 -0.2235 -0.4264
19615TIP3    H280261   5.799   2.616   3.577  0.1572 -0.1217  0.0435
19616TIP3   OH280262   4.936   3.307  14.056 -0.0977  0.0561 -0.1680
19616TIP3    H180263   4.875   3.241  14.091  1.2252 -0.7100  0.7571
19616TIP3    H280264   4.967   3.268  13.975 -0.2301  0.0812 -0.2312
19617TIP3   OH280265   2.316   1.266  15.600  0.1706  0.8433 -0.5670
19617TIP3    H180266   2.367   1.186  15.607 -0.2126  0.6856  0.4204
19617TIP3    H280267   2.294   1.272  15.506  0.8878  0.2344 -0.7781
19618TIP3   OH280268   4.240   2.815   1.021  0.2296 -0.0973  0.7045
19618TIP3    H180269   4.199   2.832   0.936 -1.7747 -2.6501  1.0693
19618TIP3    H280270   4.264   2.901   1.054 -1.5986  1.1982 -1.1755
19619TIP3   OH280271   5.564   0.421   2.109  0.4030  0.4180 -0.0441
19619TIP3    H180272   5.541   0.492   2.049  0.8335  2.4762  2.1661
19619TIP3    H280273   5.493   0.357   2.099 -0.2624  1.3949 -1.6628
19620TIP3   OH280274   0.808   3.245  12.103  0.0866 -0.3942  0.6591
19620TIP3    H180275   0.878   3.192  12.142  2.1696  1.0325 -1.0410
19620TIP3    H280276   0.811   3.328  12.150  0.4701  0.1587 -0.3114
19621TIP3   OH280277   3.214   1.483   4.522 -0.4369  0.3823  0.2911
19621TIP3    H180278   3.303   1.449   4.511 -0.6533 -0.1460  0.1830
19621TIP3    H280279   3.217   1.570   4.481 -0.5035 -0.4638 -1.5573
19622TIP3   OH280280   1.531   4.354   3.964  0.4273 -0.1426  0.2517
19622TIP3    H180281   1.575   4.354   4.049  0.6777  0.8940  0.1303
19622TIP3    H280282   1.601   4.335   3.901  0.3021 -0.5931  0.2489
19623TIP3   OH280283   2.315   6.190  14.860 -0.0775  0.1334  0.5967
19623TIP3    H180284   2.222   6.196  14.883 -0.1885  0.3023  0.1248
19623TIP3    H280285   2.360   6.241  14.927 -0.6084  2.6503 -0.8972
19624TIP3   OH280286   5.350   5.236  15.107 -0.4564 -0.1711  0.0201
19624TIP3    H180287   5.386   5.162  15.155  0.5132  2.1376  3.0156
19624TIP3    H280288   5.257   5.235  15.127 -0.5384 -0.8235 -0.3582
19625TIP3   OH280289   6.239   4.058   2.662 -0.0840 -0.4930  0.5770
19625TIP3    H180290   6.297   4.066   2.586  0.6764 -0.6573  1.1343
19625TIP3    H280291   6.172   3.996   2.634 -1.0697  1.1222 -0.7268
19626TIP3   OH280292   0.476   1.920  15.809 -0.4675 -0.3078 -0.3229
19626TIP3    H180293   0.438   2.008  15.802  0.3710 -0.0721 -2.0705
19626TIP3    H280294   0.562   1.928  15.770 -0.4880 -1.9874 -0.7379
19627TIP3   OH280295   6.415   1.835   5.274 -0.3091  0.1257 -0.2243
19627TIP3    H180296   6.380   1.746   5.264 -1.9759  0.8240 -0.8283
19627TIP3    H280297   6.350   1.881   5.326 -0.0153  1.3039 -0.8793
19628TIP3   OH280298   4.949   1.447  14.287 -0.3781  0.1686  0.0816
19628TIP3    H180299   4.875   1.408  14.240 -1.7978  0.7222  1.7684
19628TIP3    H280300   5.011   1.375  14.299 -2.2604 -1.2550  1.7578
19629TIP3   OH280301   3.442   6.752  16.977  0.0109  0.1053  0.0052
19629TIP3    H180302   3.350   6.767  17.001  0.6469  1.2863  1.8215
19629TIP3    H280303   3.492   6.789  17.050  1.9131 -1.6250 -0.3872
19630TIP3   OH280304   0.896   4.283   3.234  0.3666 -0.4112 -0.0386
19630TIP3    H180305   0.977   4.231   3.230  0.1994 -1.0398  3.1496
19630TIP3    H280306   0.829   4.225   3.199  1.0874 -0.2902 -1.6742
19631TIP3   OH280307   3.053   3.032  12.392 -0.2048  0.3387 -0.0562
19631TIP3    H180308   3.049   3.111  12.337 -1.6866 -0.3467 -0.9639
19631TIP3    H280309   3.046   2.960  12.329 -1.5678 -0.4706  1.0122
19632TIP3   OH280310   1.045   0.584  16.287 -0.0083  0.1107 -0.4384
19632TIP3    H180311   0.969   0.581  16.346 -0.4915 -0.3070 -1.0791
19632TIP3    H280312   1.096   0.658  16.319  0.4867 -0.9978  1.4387
19633TIP3   OH280313   4.358   0.239   0.959 -0.0776 -0.2193 -0.0339
19633TIP3    H180314   4.395   0.284   0.883 -0.5102  0.8449  0.3761
19633TIP3    H280315   4.434   0.212   1.010  0.1871 -0.1236 -0.3735
19634TIP3   OH280316   6.698   0.806   1.536  0.1349 -0.1788  0.0958
19634TIP3    H180317   6.659   0.786   1.450 -0.0639 -0.1967  0.1904
19634TIP3    H280318   6.665   0.894   1.557 -1.3183 -0.9255  1.0098
19635TIP3   OH280319   6.759   5.450  12.766  0.0052 -0.6262 -0.2079
19635TIP3    H180320   6.740   5.532  12.812  0.7841 -1.1125  1.0200
19635TIP3    H280321   6.677   5.427  12.723 -1.3629 -1.1344  2.5220
19636TIP3   OH280322   1.796   2.196  15.548 -0.0721 -0.1129 -0.3876
19636TIP3    H180323   1.754   2.221  15.466  0.5319  0.0121 -0.6549
19636TIP3    H280324   1.724   2.159  15.601 -0.2364 -1.2689 -1.4042
19637TIP3   OH280325   3.391   5.327   5.300 -0.0653  0.4832 -0.3937
19637TIP3    H180326   3.396   5.326   5.396  0.3070 -0.4314 -0.4153
19637TIP3    H280327   3.340   5.405   5.280  0.2733  0.9585  0.5313
19638TIP3   OH280328   4.306   3.567  11.459 -0.2090  0.4631  0.6311
19638TIP3    H180329   4.310   3.638  11.523  2.1801  0.2717  0.7192
19638TIP3    H280330   4.397   3.549  11.437 -0.8935 -1.0424 -1.1062
19639TIP3   OH280331   3.373   3.800   4.741 -0.2062  0.4203  0.1357
19639TIP3    H180332   3.354   3.862   4.670 -2.1837 -0.2149  0.0768
19639TIP3    H280333   3.320   3.724   4.721  2.9942 -1.7906 -0.3527
19640TIP3   OH280334   4.207   0.890  15.853  0.2901  0.3770 -0.9622
19640TIP3    H180335   4.265   0.931  15.917  0.0116 -0.5403 -0.1133
19640TIP3    H280336   4.180   0.808  15.894 -1.1630  0.5270 -1.5940
19641TIP3   OH280337   0.478   3.211   1.204 -0.1884  0.3494  0.9189
19641TIP3    H180338   0.573   3.205   1.197 -0.3197 -0.6825 -0.1371
19641TIP3    H280339   0.459   3.304   1.197  0.6751  0.4764  0.1109
19642TIP3   OH280340   2.297   6.061  11.694  0.3410  0.4745 -0.0344
19642TIP3    H180341   2.243   6.050  11.617  0.2009  1.3617 -0.0683
19642TIP3    H280342   2.327   6.152  11.690  3.0957 -0.4118 -0.8355
19643TIP3   OH280343   2.389   4.075   4.586  0.1347 -0.3606  0.8672
19643TIP3    H180344   2.391   4.138   4.514 -0.5473  1.1654  2.1535
19643TIP3    H280345   2.463   4.017   4.569 -0.0201 -0.0362 -1.0671
19644TIP3   OH280346   6.192   4.792  11.932  0.5143  0.4022  0.1949
19644TIP3    H180347   6.157   4.830  11.851 -0.5171 -1.1144 -0.0972
19644TIP3    H280348   6.125   4.810  11.998 -0.9355 -2.5369 -0.3731
19645TIP3   OH280349   1.320   2.473   0.843 -0.3131  0.6729  0.0664
19645TIP3    H180350   1.342   2.411   0.912 -0.8904  0.6718  0.2512
19645TIP3    H280351   1.403   2.488   0.797  0.5915  2.5261  2.2307
19646TIP3   OH280352   4.057   5.918   5.671 -0.0915 -0.5898 -0.5133
19646TIP3    H180353   4.075   5.954   5.758 -0.2991  1.1964 -1.2010
19646TIP3    H280354   3.968   5.885   5.676 -0.9950  1.7663 -0.7740
19647TIP3   OH280355   1.328   0.125  15.546  0.0295  0.4622  0.0714
19647TIP3    H180356   1.317   0.075  15.627 -1.6258 -0.7136 -0.8453
19647TIP3    H280357   1.269   0.200  15.556 -0.2683  0.2509 -0.0898
19648TIP3   OH280358   1.987   2.204  16.184  0.6243  0.5402 -0.1285
19648TIP3    H180359   1.894   2.193  16.164  0.8477 -0.3887 -0.6933
19648TIP3    H280360   2.008   2.292  16.155 -0.4222  1.2993  1.3582
19649TIP3   OH280361   4.662   2.462  12.168 -0.0622 -0.9415 -0.7034
19649TIP3    H180362   4.737   2.403  12.180 -1.4223 -2.4292  0.8133
19649TIP3    H280363   4.653   2.471  12.074  3.0422  0.6148 -0.9183
19650TIP3   OH280364   1.498   6.304   5.700 -0.5527 -0.0347 -0.1459
19650TIP3    H180365   1.568   6.240   5.689 -0.1669  0.0168  1.9900
19650TIP3    H280366   1.431   6.258   5.750 -2.5840 -0.4498 -3.0648
19651TIP3   OH280367   1.476   4.060  16.690 -0.1226  0.2364  0.1241
19651TIP3    H180368   1.479   4.153  16.715  1.4905 -0.4259  2.6090
19651TIP3    H280369   1.568   4.036  16.677 -0.5324 -1.0249 -0.4927
19652TIP3   OH280370   3.621   2.221   6.168  0.1252  0.3667 -0.1516
19652TIP3    H180371   3.602   2.310   6.198  2.7159  0.9919 -0.2929
19652TIP3    H280372   3.634   2.171   6.248  1.4561  0.7757 -0.0957
19653TIP3   OH280373   2.663   2.945  14.152  0.3944  0.7479 -0.0890
19653TIP3    H180374   2.683   2.890  14.076  1.0247  1.0964 -0.1809
19653TIP3    H280375   2.681   2.889  14.227  2.0738  1.1641 -0.1681
19654TIP3   OH280376   1.399   5.900   4.701 -0.0832  0.3000 -0.4688
19654TIP3    H180377   1.393   5.805   4.709 -0.1424  0.1279 -2.4312
19654TIP3    H280378   1.362   5.920   4.615 -0.5812  2.1573  0.1537
19655TIP3   OH280379   0.110   1.550  13.377  0.2530  0.2302 -0.4973
19655TIP3    H180380   0.040   1.519  13.318  0.9633 -2.7153  0.1183
19655TIP3    H280381   0.064   1.575  13.457 -0.2862 -0.0057 -0.7283
19656TIP3   OH280382   2.749   1.554   5.354 -0.8231  0.1514 -0.1905
19656TIP3    H180383   2.841   1.536   5.331 -0.4478 -0.0251  1.3827
19656TIP3    H280384   2.747   1.547   5.449 -2.6333 -0.5696 -0.2707
19657TIP3   OH280385   2.113   3.912   3.075 -0.6390 -0.2051 -0.0529
19657TIP3    H180386   2.117   3.989   3.131  0.4539  0.0141 -0.4305
19657TIP3    H280387   2.107   3.839   3.137  0.1174  0.0634  0.3484
19658TIP3   OH280388   2.876   4.177  11.781 -0.0532  0.3904  0.5824
19658TIP3    H180389   2.928   4.251  11.751  0.2298  0.0474  0.2300
19658TIP3    H280390   2.880   4.182  11.877  0.7389  0.2857  0.5553
19659TIP3   OH280391   2.449   2.584  11.531  0.3614 -0.0182  0.6644
19659TIP3    H180392   2.528   2.564  11.479  0.5490  0.5067  0.7458
19659TIP3    H280393   2.430   2.502  11.577 -0.6321 -0.9437 -1.3103
19660TIP3   OH280394   4.085   3.720   4.121 -0.1250 -0.2165  0.0713
19660TIP3    H180395   4.032   3.679   4.053 -0.1063  3.1344 -2.0786
19660TIP3    H280396   4.173   3.684   4.108 -1.0289 -2.8532  1.1411
19661TIP3   OH280397   2.582   6.585   3.178  0.2577  0.9875  0.1057
19661TIP3    H180398   2.519   6.657   3.175  1.8467  2.4143  0.1679
19661TIP3    H280399   2.662   6.622   3.141  1.1748 -0.6845  0.3729
19662TIP3   OH280400   6.298   6.536  15.531 -0.3556  0.0114  0.9049
19662TIP3    H180401   6.372   6.474  15.534 -1.3456 -1.2680 -0.0691
19662TIP3    H280402   6.326   6.603  15.469 -0.5759 -1.2896 -0.6490
19663TIP3   OH280403   5.535   1.402   2.608 -0.5981 -0.0546  0.0138
19663TIP3    H180404   5.587   1.350   2.546  1.4653 -1.1742  2.5715
19663TIP3    H280405   5.586   1.482   2.622 -0.9996  0.1536  0.3166
19664TIP3   OH280406   4.222   2.089   1.668 -0.0727  0.5727  0.5555
19664TIP3    H180407   4.259   2.162   1.717  0.2062  0.3907  0.6201
19664TIP3    H280408   4.163   2.129   1.605  0.6835  0.9061  0.0541
19665TIP3   OH280409   1.810   5.489  12.044  0.2706 -0.1571 -0.1609
19665TIP3    H180410   1.802   5.475  12.138  0.8883  0.1794 -0.0541
19665TIP3    H280411   1.727   5.459  12.008  0.7644 -2.1251  0.2697
19666TIP3   OH280412   0.902   2.819  13.605 -0.3294 -0.0164 -0.4843
19666TIP3    H180413   0.920   2.776  13.689 -0.7309 -0.2845 -0.5363
19666TIP3    H280414   0.815   2.857  13.615  0.2068  1.2142 -0.2648
19667TIP3   OH280415   4.251   4.165  12.472  0.3513 -0.1234  0.0651
19667TIP3    H180416   4.200   4.221  12.414 -0.5759 -0.1346  0.8555
19667TIP3    H280417   4.265   4.084  12.422 -0.6013 -0.2083 -0.0751
19668TIP3   OH280418   6.150   1.174   1.592 -0.4185 -0.2057  0.2105
19668TIP3    H180419   6.145   1.116   1.668  0.6823 -1.3384 -0.5758
19668TIP3    H280420   6.080   1.238   1.607 -3.3891 -3.2111 -0.1527
19669TIP3   OH280421   0.165   0.906  13.898  0.3277 -0.6490  0.4455
19669TIP3    H180422   0.260   0.913  13.896  0.0983  3.1089 -1.9751
19669TIP3    H280423   0.140   0.895  13.806 -1.6337  0.0970  0.8649
19670TIP3   OH280424   3.825   3.508   5.000 -0.0877  0.6762 -0.3088
19670TIP3    H180425   3.900   3.522   5.058 -1.5507  1.5707  1.4078
19670TIP3    H280426   3.748   3.523   5.055 -1.5570 -0.2878 -2.0104
19671TIP3   OH280427   4.739   1.397  11.431  0.0423  0.0344  0.2053
19671TIP3    H180428   4.796   1.354  11.494  2.0511 -0.3883 -1.8559
19671TIP3    H280429   4.657   1.412  11.479  0.8169 -2.0989  2.2661
19672TIP3   OH280430   6.552   6.224  16.814  0.3376 -0.2678 -0.4389
19672TIP3    H180431   6.495   6.227  16.891 -0.8835  3.8670 -1.3825
19672TIP3    H280432   6.641   6.222  16.851 -0.2762 -1.0845  1.0488
19673TIP3   OH280433   2.816   1.822   2.410 -0.2553 -0.2458  0.2186
19673TIP3    H180434   2.832   1.849   2.319 -1.0804 -0.6668 -0.0530
19673TIP3    H280435   2.737   1.769   2.406  0.9385 -2.1314  0.8638
19674TIP3   OH280436   3.240   3.179   0.789 -0.3258  0.3784 -0.5596
19674TIP3    H180437   3.304   3.122   0.745 -2.3119 -1.3420 -1.3067
19674TIP3    H280438   3.180   3.118   0.833  1.0237  2.0147  3.8313
19675TIP3   OH280439   1.533   3.702  16.498  0.4461 -0.0558  0.1640
19675TIP3    H180440   1.551   3.763  16.427  1.0117  0.4789  0.7660
19675TIP3    H280441   1.595   3.630  16.485 -3.3643 -2.9491 -3.3929
19676TIP3   OH280442   3.034   2.011  11.940  0.3078 -0.2002  0.1102
19676TIP3    H180443   2.980   1.955  11.996 -2.2627  1.6411 -0.4684
19676TIP3    H280444   3.074   2.074  12.000 -1.2843  0.8475  0.1040
19677TIP3   OH280445   3.792   2.738   3.231  0.1412  0.1349 -0.0653
19677TIP3    H180446   3.732   2.748   3.305  0.0890  0.4595 -0.1501
19677TIP3    H280447   3.737   2.707   3.159  0.2329 -0.3913  0.0929
19678TIP3   OH280448   0.514   1.506   3.539 -0.0156  0.0710  0.4513
19678TIP3    H180449   0.538   1.472   3.452  1.4315  0.1409  0.8033
19678TIP3    H280450   0.450   1.443   3.572  2.1511 -2.0119  0.8207
19679TIP3   OH280451   6.433   1.114   4.573  0.1907 -0.4021  0.2902
19679TIP3    H180452   6.408   1.180   4.508 -1.2439 -0.3269  0.9073
19679TIP3    H280453   6.527   1.125   4.582 -0.0596  1.7797  0.6099
19680TIP3   OH280454   5.093   3.174  16.832  0.2245  0.1451 -0.0716
19680TIP3    H180455   5.053   3.240  16.776 -2.4946 -0.3570  1.2119
19680TIP3    H280456   5.180   3.210  16.853 -0.0793  1.9307 -1.7229
19681TIP3   OH280457   1.458   2.196   5.156  0.1469  0.4054 -0.8397
19681TIP3    H180458   1.532   2.155   5.112  0.6651  0.8418 -0.3786
19681TIP3    H280459   1.459   2.158   5.244 -0.4993  0.0169 -0.9961
19682TIP3   OH280460   5.523   1.785   2.159 -0.6703 -0.1365 -0.2211
19682TIP3    H180461   5.460   1.801   2.230 -1.7376 -1.0439 -0.9326
19682TIP3    H280462   5.542   1.872   2.124 -1.4320  0.1680  0.1006
19683TIP3   OH280463   6.425   6.535   3.990  0.5214 -0.1220  0.6077
19683TIP3    H180464   6.452   6.624   3.967 -0.4272  0.0869  0.2915
19683TIP3    H280465   6.335   6.544   4.022  0.0938 -1.0826 -0.2848
19684TIP3   OH280466   0.562   2.790   5.756  0.1167  0.7292 -0.0195
19684TIP3    H180467   0.626   2.830   5.816  2.0145 -1.2517 -0.6586
19684TIP3    H280468   0.486   2.773   5.811  0.3899  2.4107  0.9484
19685TIP3   OH280469   2.326   6.590   0.838  0.5110 -0.0689  0.3336
19685TIP3    H180470   2.333   6.681   0.868 -1.9688 -0.0584  1.0000
19685TIP3    H280471   2.321   6.539   0.919 -2.2114 -0.4023  0.0078
19686TIP3   OH280472   2.885   2.301  16.026 -0.1774  0.0338 -0.0731
19686TIP3    H180473   2.883   2.324  16.119 -3.1679 -0.9570  0.1657
19686TIP3    H280474   2.909   2.208  16.025  1.9427  0.5557 -0.4561
19687TIP3   OH280475   1.562   1.777  11.363  0.0465  0.3689  0.5674
19687TIP3    H180476   1.541   1.690  11.329 -0.6716  0.3679  1.0044
19687TIP3    H280477   1.569   1.832  11.285 -1.1907  0.2770  0.3820
19688TIP3   OH280478   4.009   5.514   3.261  0.4681 -0.0515 -0.1129
19688TIP3    H180479   4.092   5.480   3.296 -0.1498  0.4484  1.8960
19688TIP3    H280480   3.966   5.438   3.224  1.2157 -0.5825  0.0948
19689TIP3   OH280481   2.025   5.828   0.998 -0.5071 -1.2398 -0.3380
19689TIP3    H180482   2.054   5.919   0.992  0.6913 -1.5317  0.7217
19689TIP3    H280483   1.930   5.833   0.988 -0.4556  0.1289 -0.3380
19690TIP3   OH280484   6.717   1.877  13.726 -0.0437 -0.6581 -0.1948
19690TIP3    H180485   6.626   1.868  13.695 -0.2739 -0.5108  0.4289
19690TIP3    H280486   6.735   1.971  13.720 -0.4455 -0.4830  1.0835
19691TIP3   OH280487   0.202   4.069   5.153 -0.4593 -0.2139 -0.9433
19691TIP3    H180488   0.109   4.090   5.156 -0.1917  0.9489 -0.6183
19691TIP3    H280489   0.204   3.976   5.131 -1.7180 -0.4642 -0.0806
19692TIP3   OH280490   3.789   6.382   5.380  0.5318 -0.3525 -0.4493
19692TIP3    H180491   3.799   6.295   5.341  0.9529  0.3175 -1.8986
19692TIP3    H280492   3.864   6.432   5.345  1.0958  0.1918  1.4952
19693TIP3   OH280493   5.973   0.926  11.630  0.1549 -0.1788 -0.3483
19693TIP3    H180494   6.013   0.923  11.543  0.1374  0.3254 -0.3734
19693TIP3    H280495   5.941   1.015  11.639 -0.0697 -0.3004  0.0770
19694TIP3   OH280496   3.879   1.876  13.919  0.6478  0.1648 -0.5708
19694TIP3    H180497   3.826   1.824  13.858  0.5164 -0.4431  0.0486
19694TIP3    H280498   3.962   1.828  13.924  1.0850  0.8499 -1.1619
19695TIP3   OH280499   3.968   0.856  12.879 -0.5290  0.0310 -1.1631
19695TIP3    H180500   3.964   0.943  12.919 -1.3619  0.0810 -1.3660
19695TIP3    H280501   4.051   0.856  12.831  0.9027 -0.3010  1.1796
19696TIP3   OH280502   2.200   4.318  16.063  0.3906 -0.5646  0.1782
19696TIP3    H180503   2.153   4.256  16.118 -0.5238 -0.0782 -0.0491
19696TIP3    H280504   2.258   4.264  16.009  0.2992 -1.1415  0.6611
19697TIP3   OH280505   5.152   2.519   4.933 -0.3279  0.1707  0.2331
19697TIP3    H180506   5.207   2.548   4.861 -0.0300 -0.5729  0.1529
19697TIP3    H280507   5.095   2.453   4.894  0.1552 -0.5830  0.7779
19698TIP3   OH280508   2.851   5.576  12.216 -0.2071  0.0768  0.0234
19698TIP3    H180509   2.853   5.626  12.297 -2.2548  1.4511 -0.7545
19698TIP3    H280510   2.822   5.488  12.243  1.6875 -0.2671  1.1174
19699TIP3   OH280511   3.561   4.650  10.875 -1.0153  0.2892  0.8656
19699TIP3    H180512   3.623   4.689  10.814 -2.2300 -0.8802 -1.1884
19699TIP3    H280513   3.545   4.718  10.941 -0.6255  2.0414 -0.8238
19700TIP3   OH280514   4.097   5.773  15.265 -0.5613  0.1768  0.1781
19700TIP3    H180515   4.064   5.731  15.186 -0.9837  0.2878  0.2932
19700TIP3    H280516   4.185   5.736  15.277 -0.2138  0.6914 -0.7350
19701TIP3   OH280517   6.268   5.995   4.319 -0.3758 -0.4580 -0.4999
19701TIP3    H180518   6.258   5.995   4.223  2.1834 -1.4539 -0.8130
19701TIP3    H280519   6.308   6.079   4.339  0.9165 -1.0386 -0.5622
19702TIP3   OH280520   2.954   4.825   0.894  0.3254  0.1649 -0.2675
19702TIP3    H180521   3.012   4.759   0.856 -0.0373  0.0599 -0.6495
19702TIP3    H280522   2.902   4.856   0.820  0.5099  0.9003 -0.0935
19703TIP3   OH280523   1.571   1.284   2.679 -0.1999 -0.5177 -0.0146
19703TIP3    H180524   1.587   1.345   2.607  2.2494 -0.3853  0.5898
19703TIP3    H280525   1.530   1.338   2.747 -1.0251 -0.2831 -0.6880
19704TIP3   OH280526   6.604   5.452  11.053  0.0238  0.5574 -0.9136
19704TIP3    H180527   6.511   5.456  11.029  0.3727  2.1479 -2.0467
19704TIP3    H280528   6.650   5.442  10.970  0.9850  1.5672 -0.5025
19705TIP3   OH280529   6.620   0.748  11.641 -0.0537  0.3201 -0.8971
19705TIP3    H180530   6.527   0.759  11.621 -0.4883 -1.0952  0.3181
19705TIP3    H280531   6.631   0.655  11.658  1.6697  0.4027 -1.3909
19706TIP3   OH280532   6.038   5.824   2.976  0.1707  0.1285 -0.4311
19706TIP3    H180533   6.126   5.788   2.972 -0.3353 -0.9288 -2.8638
19706TIP3    H280534   6.045   5.909   2.932  0.0642  0.2248 -0.2608
19707TIP3   OH280535   1.092   3.472  14.864  0.6263  0.0048  0.3330
19707TIP3    H180536   1.148   3.507  14.933  2.7788  0.2976 -1.5114
19707TIP3    H280537   1.135   3.499  14.782 -1.9913 -0.1085 -1.1338
19708TIP3   OH280538   1.980   2.507   4.619  0.7538 -0.1062  0.5539
19708TIP3    H180539   2.022   2.424   4.638 -0.4129 -0.3911  1.9114
19708TIP3    H280540   1.929   2.528   4.697 -1.8528  0.1054 -1.1398
19709TIP3   OH280541   5.392   0.489  12.438  0.5534 -0.2125 -0.3362
19709TIP3    H180542   5.451   0.421  12.403  0.4159 -0.4791 -0.0543
19709TIP3    H280543   5.330   0.505  12.367  0.7377 -0.2006 -0.4962
19710TIP3   OH280544   1.193   3.591  16.449 -0.1290 -0.1287  0.3854
19710TIP3    H180545   1.106   3.563  16.422  0.4789 -2.5870  0.8810
19710TIP3    H280546   1.177   3.663  16.510 -1.7379  0.6456 -0.9063
19711TIP3   OH280547   4.845   3.672   6.598 -0.0509 -0.0952  0.1006
19711TIP3    H180548   4.795   3.654   6.518 -1.0367  1.8172  0.2637
19711TIP3    H280549   4.778   3.688   6.665  0.7761 -0.2692  0.9845
19712TIP3   OH280550   1.493   0.730   4.561  0.2468  0.3048 -0.3024
19712TIP3    H180551   1.519   0.727   4.653 -0.7310  0.9684 -0.0041
19712TIP3    H280552   1.532   0.651   4.523 -0.2744 -0.5613  0.9241
19713TIP3   OH280553   6.650   3.905   6.351  0.1918  0.0993 -0.3047
19713TIP3    H180554   6.573   3.876   6.399 -0.3298 -0.5469 -1.5384
19713TIP3    H280555   6.704   3.948   6.418 -0.8247 -0.2052  0.7321
19714TIP3   OH280556   5.260   0.862   3.092 -0.0073 -0.3415 -0.0129
19714TIP3    H180557   5.290   0.771   3.094 -0.3790 -0.4782 -0.5496
19714TIP3    H280558   5.240   0.883   3.183  2.8135  0.1130  0.5475
19715TIP3   OH280559   5.489   2.940  14.381 -0.0079 -0.2228 -0.1060
19715TIP3    H180560   5.409   2.990  14.394  0.4485  0.3672  0.4486
19715TIP3    H280561   5.560   3.000  14.407  0.5464 -1.1510  0.5629
19716TIP3   OH280562   0.696   4.503  15.526 -0.6447  0.6215  0.4153
19716TIP3    H180563   0.709   4.490  15.433 -0.3592  1.0522  0.3925
19716TIP3    H280564   0.777   4.544  15.556 -1.0121  1.1421  0.7189
19717TIP3   OH280565   6.355   3.612   1.072 -0.0553  0.0848  0.3769
19717TIP3    H180566   6.344   3.686   1.132 -0.8280  0.5326 -0.2966
19717TIP3    H280567   6.266   3.576   1.063 -0.1273  0.6446 -1.2654
19718TIP3   OH280568   1.739   0.575  17.058  0.2714 -0.2800 -0.1190
19718TIP3    H180569   1.798   0.602  17.128 -0.5763  0.5553  0.2792
19718TIP3    H280570   1.788   0.591  16.978  1.9794 -2.9930  0.3067
19719TIP3   OH280571   6.579   5.610  16.096 -0.6565 -0.7387  0.2425
19719TIP3    H180572   6.670   5.639  16.101 -1.0153  0.6354 -0.8073
19719TIP3    H280573   6.551   5.633  16.008 -1.9812 -1.2856  0.5004
19720TIP3   OH280574   3.200   2.253  11.674  0.2868 -0.2837 -0.0681
19720TIP3    H180575   3.155   2.290  11.598  1.1495  2.9288  0.9325
19720TIP3    H280576   3.139   2.267  11.746  0.1132 -1.9756  0.1334
19721TIP3   OH280577   6.107   5.759   3.774  0.5023  0.4559  0.0717
19721TIP3    H180578   6.018   5.770   3.806 -0.3357 -0.4548 -1.8685
19721TIP3    H280579   6.162   5.785   3.847 -1.3501  2.0889  0.9302
19722TIP3   OH280580   4.142   3.259   1.462  0.5637  0.1988  0.1846
19722TIP3    H180581   4.134   3.179   1.411 -0.7121  0.3201  0.1925
19722TIP3    H280582   4.183   3.232   1.544 -0.8275 -0.6084  0.6101
19723TIP3   OH280583   2.864   0.433   1.598 -0.0921  0.2858 -0.3345
19723TIP3    H180584   2.848   0.351   1.646  0.6127  0.2710 -0.1243
19723TIP3    H280585   2.959   0.442   1.596 -0.1086  0.2228 -1.8569
19724TIP3   OH280586   4.447   4.821   0.560 -0.0420 -0.5117 -0.8109
19724TIP3    H180587   4.451   4.730   0.588 -1.8098 -0.5658 -0.6630
19724TIP3    H280588   4.532   4.858   0.584  0.8574 -2.2278 -1.2862
19725TIP3   OH280589   3.573   6.030   5.125 -0.2581 -0.0828 -0.2331
19725TIP3    H180590   3.552   5.941   5.152  0.8949 -0.2173  0.2453
19725TIP3    H280591   3.488   6.074   5.116 -0.7578 -0.7607  1.1044
19726TIP3   OH280592   6.037   0.852   4.725 -0.5225  0.0283 -0.2224
19726TIP3    H180593   5.966   0.914   4.710 -0.2664  0.4885  0.4758
19726TIP3    H280594   6.105   0.878   4.663 -0.6670  0.0433 -0.3755
19727TIP3   OH280595   3.612   4.466   5.507 -0.0398 -0.0285  0.5702
19727TIP3    H180596   3.532   4.463   5.559 -0.9385 -0.3819 -0.8000
19727TIP3    H280597   3.621   4.558   5.482 -0.3906 -0.1059  0.1586
19728TIP3   OH280598   5.142   4.894  11.074 -0.6690  0.5990 -0.1877
19728TIP3    H180599   5.231   4.861  11.057 -0.9543 -0.8732  1.1130
19728TIP3    H280600   5.092   4.868  10.997  0.5040  3.3785 -1.9648
19729TIP3   OH280601   1.659   6.686  17.199 -0.3709  0.7178 -0.0013
19729TIP3    H180602   1.642   6.612  17.140 -2.3194  0.5123  0.7747
19729TIP3    H280603   1.681   6.759  17.142  1.6977 -0.4637 -0.7874
19730TIP3   OH280604   4.432   0.188   2.934 -0.4576 -0.2935  0.3717
19730TIP3    H180605   4.409   0.171   3.025 -0.0354  0.6491  0.6574
19730TIP3    H280606   4.352   0.171   2.885 -1.4570  1.8506  1.2164
19731TIP3   OH280607   3.768   1.270   6.023  0.0744  0.3665 -0.3010
19731TIP3    H180608   3.802   1.351   6.063 -0.5997  0.6061 -0.2092
19731TIP3    H280609   3.772   1.206   6.094 -3.2232  1.3465  0.8662
19732TIP3   OH280610   2.537   4.197   1.986 -0.5384 -0.1853  0.4127
19732TIP3    H180611   2.543   4.119   1.930  0.2622  0.4318 -0.3576
19732TIP3    H280612   2.576   4.169   2.069 -0.5537 -0.7120  0.2448
19733TIP3   OH280613   6.593   0.551   0.052 -0.2056  0.3986 -0.5560
19733TIP3    H180614   6.631   0.599  -0.022 -0.1570 -0.1246 -0.8730
19733TIP3    H280615   6.545   0.479   0.011  0.2896 -0.2258 -0.0481
19734TIP3   OH280616   4.529   4.090   0.917 -0.2011 -0.5370 -0.0529
19734TIP3    H180617   4.606   4.142   0.939 -0.0086 -1.3558  1.1862
19734TIP3    H280618   4.556   3.999   0.929 -0.1721 -1.0343 -3.3415
19735TIP3   OH280619   1.777   4.655   3.201 -0.0689  0.2875 -0.6148
19735TIP3    H180620   1.802   4.599   3.274  0.8139  0.7494 -0.5552
19735TIP3    H280621   1.845   4.641   3.135 -0.4174  0.4954 -1.0237
19736TIP3   OH280622   2.948   5.272  11.990  0.3350  0.6423 -0.3831
19736TIP3    H180623   2.984   5.358  11.969 -0.4715  1.1127  0.1425
19736TIP3    H280624   3.003   5.239  12.061 -1.0897  1.9431  1.3562
19737TIP3   OH280625   0.479   4.529  15.126 -0.2210 -1.1804 -0.8643
19737TIP3    H180626   0.445   4.453  15.174  0.1213 -2.5183 -2.6699
19737TIP3    H280627   0.570   4.536  15.154 -0.2616 -1.4173 -0.6683
19738TIP3   OH280628   2.389   0.727   1.779 -0.1007 -0.1568  0.0624
19738TIP3    H180629   2.310   0.782   1.778 -1.1818 -1.6889 -0.5981
19738TIP3    H280630   2.415   0.721   1.688  1.2199  0.9414  0.3575
19739TIP3   OH280631   3.669   0.326  15.077 -0.5356  0.3371  0.7430
19739TIP3    H180632   3.705   0.413  15.059  0.0979  0.1614  1.1400
19739TIP3    H280633   3.589   0.322  15.026 -0.8250  1.3456  1.1044
19740TIP3   OH280634   4.000   3.690   0.884  0.3676  0.4654  0.2371
19740TIP3    H180635   3.971   3.781   0.874  0.4421  0.5754  0.9756
19740TIP3    H280636   4.034   3.666   0.798 -0.2181  0.9388 -0.1296
19741TIP3   OH280637   5.740   2.850  13.829 -0.3686 -0.6046 -0.1213
19741TIP3    H180638   5.672   2.831  13.764  0.8121 -1.6881 -1.0651
19741TIP3    H280639   5.736   2.777  13.891  0.1694 -0.8731 -0.3936
19742TIP3   OH280640   2.493   1.920  11.630  0.3103  0.3601 -0.1168
19742TIP3    H180641   2.416   1.965  11.596  0.2112  0.9492  0.8933
19742TIP3    H280642   2.475   1.827  11.614 -1.9999  0.2138  2.8652
19743TIP3   OH280643   2.001   4.479  13.443 -0.2732 -0.4305 -0.2042
19743TIP3    H180644   1.944   4.544  13.483  0.2534  0.9917 -1.7024
19743TIP3    H280645   1.991   4.492  13.349  1.9051 -0.6717 -0.5129
19744TIP3   OH280646   3.146   0.173   5.110 -0.5769 -0.0012  0.2330
19744TIP3    H180647   3.165   0.080   5.119 -2.0186 -0.3375 -0.1607
19744TIP3    H280648   3.079   0.190   5.177  0.1830  0.9078  0.7819
19745TIP3   OH280649   5.988   6.495   0.940 -0.0025 -0.3737  0.7003
19745TIP3    H180650   5.974   6.554   0.865 -1.1836  0.3879  1.4939
19745TIP3    H280651   6.080   6.471   0.935  0.1526  0.4125 -0.4704
19746TIP3   OH280652   2.936   1.380  12.967  0.1119 -0.2833 -0.1693
19746TIP3    H180653   2.915   1.447  12.902  1.3968 -0.3769 -0.6914
19746TIP3    H280654   3.032   1.380  12.971  0.1033 -1.7243  0.2011
19747TIP3   OH280655   3.332   5.392   3.406 -0.1118  0.1514 -1.4235
19747TIP3    H180656   3.412   5.435   3.378  1.5665 -0.6263  1.8661
19747TIP3    H280657   3.349   5.299   3.394  0.0421 -0.0957  0.4862
19748TIP3   OH280658   6.447   2.580   4.717  0.0673 -0.1558 -0.1920
19748TIP3    H180659   6.482   2.503   4.761  1.7240  0.6513 -0.0657
19748TIP3    H280660   6.491   2.582   4.632  0.2501  0.7981 -0.0837
19749TIP3   OH280661   3.847   1.891   1.273  0.0527 -0.1007 -0.2627
19749TIP3    H180662   3.856   1.809   1.321 -0.9530 -0.0316  0.0594
19749TIP3    H280663   3.771   1.878   1.217  1.4443 -0.3232 -2.1588
19750TIP3   OH280664   2.140   3.058  12.141 -0.3133 -0.4689 -0.6831
19750TIP3    H180665   2.200   3.088  12.073 -0.3581  0.9385 -0.1283
19750TIP3    H280666   2.072   3.126  12.144 -0.6910 -0.8818  0.2676
19751TIP3   OH280667   2.974   2.748   0.453 -0.0448 -0.3445  0.0436
19751TIP3    H180668   2.882   2.726   0.466 -0.2673  0.0307 -0.8129
19751TIP3    H280669   3.007   2.679   0.396 -0.5526  1.0484 -2.0235
19752TIP3   OH280670   1.765   6.027  12.000 -0.2567 -0.0799 -0.8091
19752TIP3    H180671   1.679   5.991  11.977 -0.4514  1.3177 -2.3844
19752TIP3    H280672   1.822   6.002  11.927  0.1071  0.9558 -0.8869
19753TIP3   OH280673   0.968   4.207  15.072 -0.1069 -0.5514 -0.0287
19753TIP3    H180674   0.912   4.143  15.116  0.8755 -0.0494  2.0129
19753TIP3    H280675   1.056   4.169  15.076  0.2716  0.3156  0.0232
19754TIP3   OH280676   0.365   3.953   2.309 -0.4636  0.1700  0.0457
19754TIP3    H180677   0.369   4.019   2.378  2.2835 -0.3330  0.4194
19754TIP3    H280678   0.345   3.871   2.355 -0.2371  0.1157  0.0488
19755TIP3   OH280679   5.871   2.156   6.365  0.4592 -0.3213 -0.2991
19755TIP3    H180680   5.869   2.062   6.352 -3.6984 -0.1844 -1.1101
19755TIP3    H280681   5.822   2.171   6.446 -0.4677  1.2731 -1.1210
19756TIP3   OH280682   4.627   2.166  14.847 -0.2886  0.5781 -0.4529
19756TIP3    H180683   4.662   2.243  14.802 -2.0120  0.9957 -1.1245
19756TIP3    H280684   4.555   2.200  14.900 -0.3845 -0.4282  0.0718
19757TIP3   OH280685   3.739   5.660  13.306 -0.0231  0.2125  0.0783
19757TIP3    H180686   3.665   5.691  13.254 -0.0893  2.3598  1.3583
19757TIP3    H280687   3.776   5.740  13.343  0.6485 -1.1641  2.4822
19758TIP3   OH280688   1.404   4.017  16.380  0.2127  0.4130  0.5081
19758TIP3    H180689   1.435   4.030  16.470 -0.1856  1.1906  0.5403
19758TIP3    H280690   1.483   3.995  16.331  0.2123 -1.5503  1.3248
19759TIP3   OH280691   3.492   2.915   2.734  0.0187  0.5596 -0.2884
19759TIP3    H180692   3.572   2.929   2.786  0.2308 -0.1176 -0.4298
19759TIP3    H280693   3.459   3.003   2.718 -0.0922  0.7740  1.0668
19760TIP3   OH280694   3.197   0.089   2.476  0.2477  0.5627  0.4502
19760TIP3    H180695   3.264   0.101   2.409  0.8809  0.1073  1.0000
19760TIP3    H280696   3.240   0.113   2.558 -0.5700  1.2792  0.6824
19761TIP3   OH280697   6.385   0.926   4.358  0.2406 -0.1760  0.5285
19761TIP3    H180698   6.423   0.840   4.373 -1.5731 -1.0029  0.4541
19761TIP3    H280699   6.389   0.969   4.443 -0.0016 -0.8121  0.8645
19762TIP3   OH280700   5.576   0.793  11.841  0.5137 -0.4949 -0.2949
19762TIP3    H180701   5.668   0.787  11.815  0.3199  0.6443 -1.3009
19762TIP3    H280702   5.528   0.754  11.768  0.1172  0.2152 -0.4158
19763TIP3   OH280703   3.727   6.462  14.247  0.0226 -0.3057  0.2496
19763TIP3    H180704   3.661   6.435  14.311 -0.7230 -1.0726 -0.8038
19763TIP3    H280705   3.811   6.445  14.289 -0.4548 -1.1192  0.8865
19764TIP3   OH280706   3.556   2.765  14.129 -0.0601 -0.1656 -0.3117
19764TIP3    H180707   3.492   2.816  14.079 -1.9671 -0.8131  1.3947
19764TIP3    H280708   3.547   2.675  14.096  0.3341 -0.1753 -0.4032
19765TIP3   OH280709   6.747   3.493  14.998 -0.1096  0.4024 -0.2362
19765TIP3    H180710   6.804   3.441  14.941 -0.0943  0.1923 -0.0297
19765TIP3    H280711   6.760   3.456  15.085 -0.1259  0.7312 -0.0949
19766TIP3   OH280712   1.536   4.660  12.657 -0.1455  0.0081  0.2063
19766TIP3    H180713   1.583   4.743  12.668 -1.4370  0.4359  2.8053
19766TIP3    H280714   1.518   4.655  12.563 -0.4106  2.9035  0.0617
19767TIP3   OH280715   0.807   1.077  16.131  0.2117  0.2432 -0.1164
19767TIP3    H180716   0.748   1.121  16.070  0.1259 -0.5728 -0.6304
19767TIP3    H280717   0.813   1.136  16.206 -3.5351 -0.9152  1.2195
19768TIP3   OH280718   3.857   2.061  13.546 -0.2400  0.4136 -0.2453
19768TIP3    H180719   3.880   2.013  13.467  0.5475  0.2730  0.0735
19768TIP3    H280720   3.852   1.995  13.614 -0.0118  0.6697  0.0191
19769TIP3   OH280721   3.709   6.089  11.642  0.0585 -0.4768  0.2960
19769TIP3    H180722   3.785   6.060  11.591 -0.2944 -1.6460  0.4456
19769TIP3    H280723   3.744   6.103  11.730  0.5650  1.0892 -0.1339
19770TIP3   OH280724   2.067   0.467  10.959 -0.4106  0.5846  0.0336
19770TIP3    H180725   1.995   0.458  11.022  0.7415  1.1966  1.4580
19770TIP3    H280726   2.035   0.531  10.896 -1.4057  0.3086  0.2485
19771TIP3   OH280727   6.136   1.310   1.190  0.5346  0.3556 -0.4139
19771TIP3    H180728   6.183   1.384   1.229 -0.7082  1.7189 -1.4608
19771TIP3    H280729   6.112   1.255   1.265  0.6359  1.4943  0.4810
19772TIP3   OH280730   2.123   6.066   2.407 -0.1261  0.2648 -0.5680
19772TIP3    H180731   2.205   6.093   2.449 -0.2653  1.9523 -1.3430
19772TIP3    H280732   2.088   5.998   2.464  1.2855  0.2697  0.3308
19773TIP3   OH280733   1.339   0.985   3.394 -0.6655 -0.5918  0.3017
19773TIP3    H180734   1.290   1.064   3.416  0.9812  0.6315 -0.2794
19773TIP3    H280735   1.323   0.973   3.300  0.3601 -0.0051  0.0398
19774TIP3   OH280736   3.779   4.949  12.675  0.5034  0.0557  0.0909
19774TIP3    H180737   3.702   4.925  12.622  1.4742  0.2808 -1.4401
19774TIP3    H280738   3.771   4.895  12.754 -0.9202 -0.3508 -0.3134
19775TIP3   OH280739   2.986   2.725  15.444 -0.0503  0.3647  0.0637
19775TIP3    H180740   3.043   2.801  15.431  0.7628 -0.4653 -1.2995
19775TIP3    H280741   2.937   2.746  15.523 -0.0076  2.4214 -0.4197
19776TIP3   OH280742   3.779   1.542   6.149 -0.0488  0.5850  0.1749
19776TIP3    H180743   3.808   1.618   6.200 -1.3794  1.4001 -0.2443
19776TIP3    H280744   3.696   1.517   6.190 -0.5952  0.5893 -0.9236
19777TIP3   OH280745   4.641   3.562   0.673 -0.7622 -0.6889  0.0604
19777TIP3    H180746   4.683   3.478   0.692  0.4196 -0.4809 -1.5322
19777TIP3    H280747   4.678   3.622   0.738  0.3584 -0.8162 -0.4526
19778TIP3   OH280748   2.958   3.603  14.642 -0.2729  0.3517 -1.0690
19778TIP3    H180749   2.945   3.659  14.718  1.5424  1.6321 -1.6596
19778TIP3    H280750   3.004   3.526  14.675 -1.5582 -0.1713 -0.4889
19779TIP3   OH280751   4.596   4.269  13.983  0.0650 -0.5199 -0.1568
19779TIP3    H180752   4.561   4.318  13.910  0.4309 -0.2003 -0.1197
19779TIP3    H280753   4.688   4.297  13.990  0.0694 -0.6418  0.3406
19780TIP3   OH280754   0.392   1.907  14.773 -0.3380 -0.5591  0.3767
19780TIP3    H180755   0.410   1.960  14.696 -2.1505  1.3915  1.2288
19780TIP3    H280756   0.354   1.826  14.739  0.8684 -0.6216 -0.8596
19781TIP3   OH280757   6.631   5.231  11.950  0.0258  0.0100 -0.0148
19781TIP3    H180758   6.560   5.286  11.917  1.9307  1.3306 -2.0552
19781TIP3    H280759   6.675   5.285  12.015 -0.6535 -0.6929  1.0305
19782TIP3   OH280760   2.321   2.478  15.511 -0.0617 -0.1656 -0.0878
19782TIP3    H180761   2.283   2.491  15.597  0.7770 -0.9246  0.4108
19782TIP3    H280762   2.407   2.519  15.516 -0.1531  0.1123 -0.6844
19783TIP3   OH280763   3.580   5.455   0.130  0.3533 -0.4086  0.0836
19783TIP3    H180764   3.604   5.437   0.039 -0.2474 -0.7404 -0.0094
19783TIP3    H280765   3.488   5.482   0.125  0.3511 -0.3249  0.5827
19784TIP3   OH280766   1.558   0.813  13.184 -0.0230  0.1388  0.2658
19784TIP3    H180767   1.526   0.775  13.266 -0.0704 -0.3419  0.0232
19784TIP3    H280768   1.652   0.797  13.185 -0.0408  0.0275  0.1710
19785TIP3   OH280769   1.591   4.373   1.694  0.1492  0.0445 -1.2410
19785TIP3    H180770   1.512   4.411   1.658  0.2384  1.0945 -0.3506
19785TIP3    H280771   1.567   4.349   1.784  1.4165  2.3095 -0.2476
19786TIP3   OH280772   1.754   5.621   1.934 -0.4505 -0.3095 -0.1945
19786TIP3    H180773   1.776   5.704   1.977 -0.2347 -0.9988  1.0465
19786TIP3    H280774   1.798   5.627   1.849 -1.3449  1.3031 -0.5823
19787TIP3   OH280775   2.522   4.719   5.182  0.1962  0.2004 -0.2551
19787TIP3    H180776   2.510   4.631   5.147 -2.8026  1.2114 -1.9812
19787TIP3    H280777   2.450   4.729   5.244  1.5177  0.8614  1.1944
19788TIP3   OH280778   3.567   1.548  11.484 -0.5343  0.0582 -0.0371
19788TIP3    H180779   3.534   1.633  11.453  0.2080 -0.6893 -3.0417
19788TIP3    H280780   3.662   1.554  11.474 -0.2408 -0.0981  2.5203
19789TIP3   OH280781   2.035   5.582   2.445  0.3561 -0.2278 -0.3566
19789TIP3    H180782   2.016   5.614   2.533 -1.2482  0.8934 -1.0998
19789TIP3    H280783   2.116   5.532   2.455  0.5062  0.3788  1.6403
19790TIP3   OH280784   1.269   6.344  12.640  0.4102  0.2418  0.8808
19790TIP3    H180785   1.226   6.403  12.702 -0.3040 -0.2272  0.8400
19790TIP3    H280786   1.317   6.282  12.694 -1.0116 -0.7808  1.0268
19791TIP3   OH280787   6.552   5.806   1.506 -0.2040 -0.4510 -0.2379
19791TIP3    H180788   6.561   5.787   1.599 -1.9898 -1.1794 -0.1857
19791TIP3    H280789   6.559   5.721   1.463 -1.1736 -0.3576 -0.6020
19792TIP3   OH280790   4.647   4.218   2.653  0.5836  1.1489  0.4713
19792TIP3    H180791   4.664   4.226   2.747 -2.0228  3.5164  0.7955
19792TIP3    H280792   4.728   4.249   2.612  1.8008 -0.0413  1.9067
19793TIP3   OH280793   0.394   3.892  12.648  0.4483 -0.3338  1.1078
19793TIP3    H180794   0.428   3.977  12.621 -3.0514  0.9411  0.4691
19793TIP3    H280795   0.402   3.837  12.571 -2.1422  1.0078 -0.1954
19794TIP3   OH280796   5.745   4.526   6.073 -0.2945  0.0854 -0.1239
19794TIP3    H180797   5.747   4.452   6.013  2.0474  0.0319 -0.0310
19794TIP3    H280798   5.805   4.590   6.035 -0.8210  1.1449  0.7866
19795TIP3   OH280799   4.508   6.619   5.167 -0.0840 -0.1375  0.3277
19795TIP3    H180800   4.597   6.654   5.176  1.0745 -1.9414 -3.0928
19795TIP3    H280801   4.500   6.554   5.237  1.4756 -0.2148  0.4500
19796TIP3   OH280802   3.228   6.398   1.207  0.7981  0.1871 -0.0337
19796TIP3    H180803   3.196   6.431   1.123  1.5804  1.5327  0.1764
19796TIP3    H280804   3.156   6.345   1.241  0.2781  0.0550 -1.3066
19797TIP3   OH280805   1.540   2.675  12.479  0.6654  0.0507 -0.1796
19797TIP3    H180806   1.447   2.655  12.487  0.8420 -0.7164  0.0068
19797TIP3    H280807   1.555   2.681  12.384  0.5132 -0.2611 -0.2259
19798TIP3   OH280808   1.532   2.173   1.683  0.1467  0.6629  0.0602
19798TIP3    H180809   1.489   2.255   1.707 -1.7239  0.0026 -0.9673
19798TIP3    H280810   1.566   2.189   1.595  0.5848  0.6332  0.2222
19799TIP3   OH280811   4.279   6.299   1.973  0.5512 -0.0643 -0.0551
19799TIP3    H180812   4.202   6.249   2.000 -0.3119  0.7410 -0.9539
19799TIP3    H280813   4.348   6.271   2.033 -0.9955  0.8390  2.2349
19800TIP3   OH280814   0.852   5.039   2.156  0.2105 -0.3927  0.1767
19800TIP3    H180815   0.840   4.977   2.085  1.4744 -1.3211  0.7561
19800TIP3    H280816   0.822   5.123   2.120 -0.0292 -1.0309 -1.1300
19801TIP3   OH280817   4.504   3.086   4.596 -0.0195 -0.2860  0.1485
19801TIP3    H180818   4.431   3.116   4.543 -0.2554 -0.5355  0.3292
19801TIP3    H280819   4.480   3.110   4.686 -0.3505 -1.2576  0.3346
19802TIP3   OH280820   0.129   5.498   1.108  0.1110 -0.1608 -0.1119
19802TIP3    H180821   0.094   5.503   1.198 -0.0280 -1.1454 -0.0964
19802TIP3    H280822   0.220   5.525   1.116  0.3275 -1.0399  0.4761
19803TIP3   OH280823   3.861   1.070   5.846  0.5602  0.2306  0.0020
19803TIP3    H180824   3.832   1.146   5.896  0.9738 -0.6767  1.6458
19803TIP3    H280825   3.942   1.042   5.889  1.2185 -0.2375 -1.5102
19804TIP3   OH280826   6.346   4.286  15.892 -0.4744  0.0409  0.3353
19804TIP3    H180827   6.382   4.370  15.920  1.1186 -0.9005  1.1919
19804TIP3    H280828   6.320   4.300  15.801 -1.7964  1.9303  0.9712
19805TIP3   OH280829   1.545   0.097   3.075  0.0039 -0.6772  0.5658
19805TIP3    H180830   1.497   0.029   3.123  1.1562 -2.1112 -0.2553
19805TIP3    H280831   1.604   0.135   3.139  0.1670 -1.2522  0.7598
19806TIP3   OH280832   2.629   0.983  12.626  0.7681  0.0395 -0.3226
19806TIP3    H180833   2.543   1.018  12.603  0.7770  0.3133  0.0508
19806TIP3    H280834   2.634   0.900  12.579 -0.4502 -0.8552  1.0674
19807TIP3   OH280835   3.272   0.314   4.894 -0.0967 -0.1092 -0.6302
19807TIP3    H180836   3.245   0.263   4.970  0.1217 -0.7285 -0.9519
19807TIP3    H280837   3.298   0.247   4.830  1.3400  0.4322 -0.6326
19808TIP3   OH280838   1.099   0.557  10.989 -0.2677  0.4160 -0.3268
19808TIP3    H180839   1.025   0.606  11.025 -1.3712  0.1967 -2.2105
19808TIP3    H280840   1.070   0.466  10.991 -0.1676  0.3598 -1.3352
19809TIP3   OH280841   1.429   4.611   1.025  0.1085 -0.4292 -0.6290
19809TIP3    H180842   1.417   4.701   0.997  1.7560 -0.4243 -1.3687
19809TIP3    H280843   1.502   4.579   0.973  0.0844 -1.9293  0.2278
19810TIP3   OH280844   4.959   6.688  14.013 -0.4995 -0.0629  0.0614
19810TIP3    H180845   5.007   6.606  14.004 -0.5922 -0.1258  0.1353
19810TIP3    H280846   4.904   6.692  13.935 -0.1121  0.1808 -0.1989
19811TIP3   OH280847   0.515   1.391   3.016 -0.0194  0.2982 -0.3758
19811TIP3    H180848   0.422   1.406   3.000 -0.2963 -1.7151 -0.7943
19811TIP3    H280849   0.560   1.449   2.955 -1.0175 -0.1575 -1.5569
19812TIP3   OH280850   3.659   2.131   1.437 -0.2190 -0.4253 -0.4826
19812TIP3    H180851   3.584   2.115   1.495 -0.3325  1.3977 -0.0830
19812TIP3    H280852   3.732   2.149   1.497 -0.5899  2.6036 -0.8383
19813TIP3   OH280853   0.408   0.598   5.063 -0.2819  0.2884  0.2830
19813TIP3    H180854   0.355   0.670   5.097  0.0415  0.3865  0.5694
19813TIP3    H280855   0.344   0.540   5.021 -0.4389  1.2299 -0.8231
19814TIP3   OH280856   1.256   2.213  16.051 -0.0653  0.3931 -0.1322
19814TIP3    H180857   1.277   2.303  16.029 -2.5960  0.7101 -1.4393
19814TIP3    H280858   1.237   2.171  15.967 -2.5493 -0.3554  0.7588
19815TIP3   OH280859   1.315   5.981  14.569  0.0625  0.0045  0.5428
19815TIP3    H180860   1.337   5.920  14.640  3.0213 -0.5774 -0.7858
19815TIP3    H280861   1.224   5.961  14.547 -0.1410 -1.4365  2.5656
19816TIP3   OH280862   3.508   6.721  15.273 -0.0923 -0.2197  0.2803
19816TIP3    H180863   3.465   6.714  15.188  0.5370  1.6964 -0.2284
19816TIP3    H280864   3.448   6.774  15.326  0.8690  1.1474  0.0529
19817TIP3   OH280865   4.980   6.374  15.903 -0.0404  0.3469  0.1829
19817TIP3    H180866   5.058   6.323  15.883 -0.0819 -0.0742  1.0732
19817TIP3    H280867   4.907   6.312  15.892 -0.2461  0.7072 -0.5388
19818TIP3   OH280868   2.346   5.482   1.534 -0.6516 -0.3981 -0.4190
19818TIP3    H180869   2.363   5.467   1.441  1.7493  0.3718 -0.1462
19818TIP3    H280870   2.433   5.485   1.574 -1.6171  0.1903  1.7118
19819TIP3   OH280871   4.481   0.937   4.006 -0.2869 -0.0728 -0.0513
19819TIP3    H180872   4.516   0.865   4.059  0.2735  2.1052  2.6364
19819TIP3    H280873   4.558   0.972   3.961 -0.1334  0.3966  0.5679
19820TIP3   OH280874   0.044   2.518  11.423 -0.1773  0.3706  0.5760
19820TIP3    H180875  -0.033   2.466  11.401  0.5261 -0.9166  1.0767
19820TIP3    H280876   0.046   2.518  11.519  1.4843 -1.1813  0.5481
19821TIP3   OH280877   2.798   1.634  11.052  0.0055 -0.0499  0.1337
19821TIP3    H180878   2.790   1.709  11.111  0.2705  0.2577 -0.2160
19821TIP3    H280879   2.817   1.673  10.966 -2.8709 -0.3340 -0.7027
19822TIP3   OH280880   0.427   3.530  14.798  0.1564  0.3435 -0.1258
19822TIP3    H180881   0.383   3.615  14.794  1.4628  1.0498  0.1135
19822TIP3    H280882   0.511   3.549  14.839  0.5948 -1.0201 -0.3767
19823TIP3   OH280883   2.736   2.276   0.034  0.1019  0.0254 -0.1678
19823TIP3    H180884   2.656   2.309   0.075  0.1981  0.7133 -0.5314
19823TIP3    H280885   2.788   2.243   0.107 -0.2892  0.0403  0.1233
19824TIP3   OH280886   5.475   3.996   4.963  0.4439  0.3581 -0.0257
19824TIP3    H180887   5.430   4.080   4.959  1.0600  0.6393 -1.2792
19824TIP3    H280888   5.493   3.982   5.056 -1.5273  0.6099  0.3957
19825TIP3   OH280889   4.626   5.294  15.679  0.0029 -1.0235 -0.5249
19825TIP3    H180890   4.593   5.273  15.766  0.6487  1.4450  0.3478
19825TIP3    H280891   4.547   5.309  15.627 -0.3587  1.6193  0.7220
19826TIP3   OH280892   5.447   0.608  13.284  0.4002  0.1985 -0.5327
19826TIP3    H180893   5.443   0.653  13.199  0.4860  1.8917  0.3328
19826TIP3    H280894   5.507   0.535  13.269  1.1286  1.0042 -1.7037
19827TIP3   OH280895   6.536   2.183  13.786  0.5405 -0.0929 -0.0563
19827TIP3    H180896   6.590   2.261  13.773  0.3138  0.0510 -0.1413
19827TIP3    H280897   6.513   2.154  13.697  0.3239 -0.0418 -0.0183
19828TIP3   OH280898   0.373   3.683  16.167  0.2165  0.5961  0.5394
19828TIP3    H180899   0.438   3.630  16.213  0.6932 -0.4708 -1.2645
19828TIP3    H280900   0.415   3.768  16.157  0.4251  0.5958  1.3777
19829TIP3   OH280901   4.431   4.584  12.464 -0.0694  0.4055  0.1906
19829TIP3    H180902   4.411   4.583  12.557 -0.0693  1.8125  0.2253
19829TIP3    H280903   4.371   4.650  12.427 -0.3491 -0.4198 -0.8672
19830TIP3   OH280904   3.398   4.717   5.892 -0.1542  0.4728  0.3625
19830TIP3    H180905   3.384   4.716   5.797  1.6902 -0.9905  0.0728
19830TIP3    H280906   3.346   4.791   5.923 -0.0524  1.5439 -1.8984
19831TIP3   OH280907   5.810   5.180   5.615  0.7637 -0.5624  0.4416
19831TIP3    H180908   5.810   5.263   5.662  1.0836  0.0240 -0.5698
19831TIP3    H280909   5.781   5.116   5.679 -0.4105  0.4770  0.9720
19832TIP3   OH280910   0.743   3.714  11.330  0.4453 -0.0262  0.2981
19832TIP3    H180911   0.821   3.758  11.364 -0.3853  1.5725  0.2281
19832TIP3    H280912   0.731   3.638  11.386  2.8244 -1.0540 -0.5380
19833TIP3   OH280913   0.009   1.704  12.371 -0.0131  0.5989  0.2514
19833TIP3    H180914   0.003   1.665  12.284  0.7252  1.7159 -0.3054
19833TIP3    H280915   0.095   1.746  12.373  0.6496 -0.7690  2.0968
19834TIP3   OH280916   4.296   3.799  11.585  0.4781  0.1844 -0.3336
19834TIP3    H180917   4.350   3.859  11.638  0.5041  0.2387 -0.4226
19834TIP3    H280918   4.207   3.813  11.617  0.4628  0.3858 -0.4637
19835TIP3   OH280919   4.227   1.881   0.644  0.0667  0.4573  0.5384
19835TIP3    H180920   4.144   1.872   0.599  1.2683  0.6386 -1.7898
19835TIP3    H280921   4.247   1.974   0.640 -1.2244  0.9554  4.1290
19836TIP3   OH280922   0.728   6.599   1.722 -0.4069 -0.0252  0.1868
19836TIP3    H180923   0.815   6.576   1.688  0.7764 -0.1512  3.0796
19836TIP3    H280924   0.675   6.617   1.645  1.8707 -1.1523 -1.6887
19837TIP3   OH280925   3.609   2.747  15.165  0.6186 -0.3726  0.4367
19837TIP3    H180926   3.528   2.742  15.115  1.5661  0.2048 -1.1825
19837TIP3    H280927   3.584   2.792  15.246 -1.0311 -1.7751  0.7245
19838TIP3   OH280928   1.626   5.625  16.025 -0.6335 -0.2720  0.0032
19838TIP3    H180929   1.586   5.681  16.091  0.3607  0.6479 -0.1505
19838TIP3    H280930   1.646   5.543  16.070 -0.3442  0.1997  0.7295
19839TIP3   OH280931   6.431   1.275  16.858  0.6170 -0.1215 -0.2923
19839TIP3    H180932   6.423   1.357  16.809 -0.0319 -0.0699 -0.1029
19839TIP3    H280933   6.463   1.212  16.793  2.0742  0.5059 -0.2072
19840TIP3   OH280934   4.491   2.416  11.666 -0.0189 -0.2706  0.5427
19840TIP3    H180935   4.494   2.331  11.623 -3.4835  0.1292 -0.6367
19840TIP3    H280936   4.452   2.474  11.601  1.6788  2.1203  1.5653
19841TIP3   OH280937   5.964   0.086   5.426 -0.1014  0.2646 -0.0505
19841TIP3    H180938   6.012   0.018   5.474  0.3108 -0.6774 -1.7679
19841TIP3    H280939   5.958   0.159   5.488  0.6582 -0.8204  1.3369
19842TIP3   OH280940   4.477   5.542  11.889  0.3363  0.7016  0.2768
19842TIP3    H180941   4.463   5.584  11.974 -0.9351  0.4699  0.1871
19842TIP3    H280942   4.463   5.449  11.905 -3.1107  0.9673 -0.8338
19843TIP3   OH280943   6.578   3.187  14.192 -0.3150 -0.0270  0.4331
19843TIP3    H180944   6.612   3.264  14.237 -2.5514  1.0895  0.2814
19843TIP3    H280945   6.584   3.116  14.256  0.6879  0.5416  0.9662
19844TIP3   OH280946   5.809   4.746   4.565  0.4913 -0.4949  0.3426
19844TIP3    H180947   5.771   4.752   4.653 -0.8512  0.6225 -0.3060
19844TIP3    H280948   5.891   4.795   4.572  0.4428 -0.5004  1.0039
19845TIP3   OH280949   4.462   2.130  11.578 -0.1790  0.7130  0.6047
19845TIP3    H180950   4.443   2.134  11.484 -2.3077  0.3692  1.0113
19845TIP3    H280951   4.522   2.056  11.588 -1.6325 -0.5921 -0.2129
19846TIP3   OH280952   3.846   5.777  15.393  0.2787  0.7235 -0.3497
19846TIP3    H180953   3.934   5.780  15.355 -0.1297 -2.1508 -1.6374
19846TIP3    H280954   3.788   5.762  15.318 -0.9895 -0.6027  0.8673
19847TIP3   OH280955   2.086   3.843   0.776 -0.3183 -0.0939  0.1290
19847TIP3    H180956   2.112   3.925   0.734  0.5603 -0.7009 -0.5240
19847TIP3    H280957   2.145   3.834   0.851  0.6872 -0.9376 -0.7425
19848TIP3   OH280958   5.045   4.419   3.714 -0.2702 -0.2525 -0.2029
19848TIP3    H180959   5.016   4.504   3.679 -0.2346  0.1764  0.8064
19848TIP3    H280960   5.075   4.438   3.802  2.8963 -0.7073 -1.1027
19849TIP3   OH280961   4.242   2.022   0.919 -0.7723  0.4650 -0.2472
19849TIP3    H180962   4.292   2.047   0.997  0.9641  0.9253 -1.4650
19849TIP3    H280963   4.162   2.073   0.924 -1.7145 -1.1498  2.3659
19850TIP3   OH280964   6.545   3.139  15.278  0.4692 -0.9522 -0.4232
19850TIP3    H180965   6.616   3.109  15.221  1.3238  0.3706 -0.0677
19850TIP3    H280966   6.580   3.217  15.322 -1.6282  0.4550 -1.1660
19851TIP3   OH280967   1.944   3.388   5.239  0.0513  0.2255 -0.3614
19851TIP3    H180968   1.977   3.407   5.151  1.3771  1.5947  0.4192
19851TIP3    H280969   2.021   3.386   5.294 -0.8579  0.1859  0.9264
19852TIP3   OH280970   2.993   4.578   0.238  0.1228  0.6844 -0.7483
19852TIP3    H180971   2.957   4.564   0.325  0.5628  0.1445 -0.6533
19852TIP3    H280972   3.038   4.662   0.244  1.1463  0.0962 -0.1273
19853TIP3   OH280973   0.243   0.381   6.126  0.3535 -0.0407  0.6591
19853TIP3    H180974   0.240   0.285   6.123  0.5547 -0.0585  0.9853
19853TIP3    H280975   0.255   0.401   6.219  0.5177  0.2948  0.5653
19854TIP3   OH280976   5.861   2.926   0.364 -0.3712 -0.6765  0.0471
19854TIP3    H180977   5.924   2.901   0.296 -1.5718 -2.7458 -0.3377
19854TIP3    H280978   5.862   3.022   0.364  1.5659 -0.6853 -1.0753
19855TIP3   OH280979   4.160   3.561   0.093  0.1525  0.3328 -0.3931
19855TIP3    H180980   4.107   3.531   0.167 -0.5516  1.7277 -0.3138
19855TIP3    H280981   4.164   3.486   0.034  0.4737 -0.7041  0.9166
19856TIP3   OH280982   6.368   2.473  11.493 -0.0477 -0.2939 -0.4099
19856TIP3    H180983   6.407   2.550  11.535  0.1590  0.8049 -2.5319
19856TIP3    H280984   6.441   2.432  11.447 -0.1837 -1.7071  0.6235
19857TIP3   OH280985   0.191   4.584  12.567  0.0770  0.2840  0.1582
19857TIP3    H180986   0.279   4.605  12.536  0.9890  0.9319  3.0359
19857TIP3    H280987   0.182   4.490  12.551  1.4995  0.1148  0.2726
19858TIP3   OH280988   0.500   0.865  13.556  0.4900 -0.0620 -0.0457
19858TIP3    H180989   0.512   0.775  13.526 -0.0399  0.3422 -1.5150
19858TIP3    H280990   0.441   0.904  13.491  0.0821  1.1160  1.0161
19859TIP3   OH280991   5.780   2.775   4.843 -0.4545  0.2346 -0.1345
19859TIP3    H180992   5.873   2.796   4.832 -0.9938  2.6790 -0.3011
19859TIP3    H280993   5.776   2.680   4.830  2.1694 -0.0819  0.9608
19860TIP3   OH280994   1.397   3.400  14.720 -0.3323  0.5178 -0.3519
19860TIP3    H180995   1.354   3.485  14.720 -1.3597  0.0209  0.8315
19860TIP3    H280996   1.441   3.394  14.635 -1.8446  1.4176 -1.2149
19861TIP3   OH280997   3.200   2.484  13.999 -0.0334  0.2681  0.3234
19861TIP3    H180998   3.285   2.526  14.014  0.4286  0.3156 -2.2039
19861TIP3    H280999   3.138   2.557  13.999  0.1713  0.4442  0.3436
19862TIP3   OH281000   1.235   1.850   6.682 -0.0342 -0.0908  0.0168
19862TIP3    H181001   1.199   1.772   6.724  0.9582  0.1147  1.2599
19862TIP3    H281002   1.165   1.914   6.685 -0.6033 -0.6921 -0.3423
19863TIP3   OH281003   5.399   0.696   3.777  0.2860  0.4648 -0.2489
19863TIP3    H181004   5.407   0.709   3.682 -2.4908  1.8509 -0.3714
19863TIP3    H281005   5.342   0.619   3.786  1.6182 -0.4613  0.3139
19864TIP3   OH281006   2.902   0.533   2.623 -0.5545 -0.8071 -0.2584
19864TIP3    H181007   2.826   0.549   2.566 -0.1548  0.2740 -0.5005
19864TIP3    H281008   2.956   0.611   2.612  0.0243 -1.0591  0.8224
19865TIP3   OH281009   6.287   3.865  15.108 -0.1932  0.3208 -0.0769
19865TIP3    H181010   6.201   3.898  15.082 -0.0342  0.6006 -0.2496
19865TIP3    H281011   6.276   3.770  15.110 -1.3943  0.4603  3.0023
19866TIP3   OH281012   5.906   6.255   5.199  0.0120 -0.3849  0.0402
19866TIP3    H181013   5.924   6.317   5.128 -0.7977 -2.0156 -1.6147
19866TIP3    H281014   5.987   6.205   5.208  0.5314  0.6209  1.1151
19867TIP3   OH281015   1.187   5.225  16.455 -0.3838  0.0872 -0.0773
19867TIP3    H181016   1.193   5.195  16.364 -1.3014  1.9248 -0.7794
19867TIP3    H281017   1.157   5.148  16.504  0.1359 -0.9197 -1.3172
19868TIP3   OH281018   5.065   0.923   4.731  0.4974  0.4220  0.4315
19868TIP3    H181019   5.000   0.870   4.777 -0.1323  0.3962 -0.4749
19868TIP3    H281020   5.119   0.860   4.684 -1.1291  0.6231 -1.7893
19869TIP3   OH281021   3.541   5.287  14.159 -0.1860  0.3701 -0.0278
19869TIP3    H181022   3.510   5.198  14.142  0.3172 -0.3196  2.4293
19869TIP3    H281023   3.491   5.342  14.098 -0.9112 -1.5135 -1.1790
19870TIP3   OH281024   0.172   0.972  12.770  0.5930  0.5050  0.2562
19870TIP3    H181025   0.122   0.894  12.745  1.3305 -0.3620  1.4597
19870TIP3    H281026   0.248   0.938  12.818  1.4934  1.9036 -0.1615
19871TIP3   OH281027   5.823   1.705   3.372  0.1420 -0.0178 -0.0167
19871TIP3    H181028   5.894   1.641   3.362  0.7636  0.7465 -0.5343
19871TIP3    H281029   5.800   1.700   3.465  0.6319 -0.5261  0.0791
19872TIP3   OH281030   0.598   2.059   1.142  0.4929  0.1995  0.8136
19872TIP3    H181031   0.596   1.973   1.099 -1.2745 -0.0135  1.2967
19872TIP3    H281032   0.682   2.097   1.116  1.0861 -1.4870  0.2205
19873TIP3   OH281033   6.126   0.869   2.842 -0.0030 -0.0320 -0.1424
19873TIP3    H181034   6.050   0.914   2.879 -1.0884 -0.7520 -1.4532
19873TIP3    H281035   6.168   0.936   2.788 -0.7132 -0.1216 -0.8192
19874TIP3   OH281036   4.092   0.968   1.341 -0.2011  0.4314  0.5618
19874TIP3    H181037   4.061   0.953   1.252  2.7095  0.5322 -0.5345
19874TIP3    H281038   4.073   0.886   1.387  0.7846 -0.6834 -0.9435
19875TIP3   OH281039   1.166   1.059  15.104 -0.4317 -0.3967  0.1818
19875TIP3    H181040   1.093   0.997  15.107 -0.9466  0.0520 -2.1526
19875TIP3    H281041   1.127   1.143  15.132 -0.5175 -0.4224  0.1415
19876TIP3   OH281042   0.829   1.009  10.929  0.4735  0.2719  0.6339
19876TIP3    H181043   0.799   0.920  10.907 -0.1863  0.6758 -0.1054
19876TIP3    H281044   0.891   1.031  10.859 -2.2986  1.9109 -1.3894
19877TIP3   OH281045   4.275   1.618  15.704  0.0493 -0.6080 -0.0139
19877TIP3    H181046   4.207   1.683  15.684  0.2007 -0.1869  0.8110
19877TIP3    H281047   4.235   1.534  15.683 -0.0548 -0.2377 -1.3705
19878TIP3   OH281048   4.438   3.149  11.487  0.1547 -0.2671  0.5438
19878TIP3    H181049   4.411   3.133  11.397  1.9856  0.5473 -0.1672
19878TIP3    H281050   4.533   3.139  11.486  0.1574 -0.5426  2.4457
19879TIP3   OH281051   3.424   1.387  14.922 -0.1519  0.4191  0.7806
19879TIP3    H181052   3.391   1.352  15.005  1.2244 -0.6255  0.9136
19879TIP3    H281053   3.479   1.461  14.947  1.3370 -0.7051  0.9325
19880TIP3   OH281054   6.194   2.000   0.650  0.2898 -0.1530  0.0668
19880TIP3    H181055   6.104   1.970   0.637  0.1505 -0.6376  2.0134
19880TIP3    H281056   6.233   1.999   0.563 -1.5073 -0.2235 -0.7453
19881TIP3   OH281057   4.222   2.632  16.015 -0.2146  0.2870 -0.5123
19881TIP3    H181058   4.261   2.690  16.081 -0.1420  1.9932 -2.0298
19881TIP3    H281059   4.140   2.604  16.055  0.6255 -0.0865  1.0237
19882TIP3   OH281060   1.443   5.655  12.665 -0.3569  0.2558 -0.0894
19882TIP3    H181061   1.386   5.578  12.664  0.3262 -0.2567  0.2577
19882TIP3    H281062   1.523   5.625  12.708 -0.6156  1.5356  1.3213
19883TIP3   OH281063   1.286   0.063   0.185 -0.6424 -0.9036 -0.0230
19883TIP3    H181064   1.281   0.116   0.106 -1.6415 -0.1899  0.5157
19883TIP3    H281065   1.214   0.000   0.176 -1.3375 -0.2212  0.7563
19884TIP3   OH281066   1.718   5.993  15.707  0.2416 -0.0006 -0.4731
19884TIP3    H181067   1.643   5.939  15.685 -0.9828  1.7403 -0.6464
19884TIP3    H281068   1.776   5.934  15.756 -1.8611 -0.9817  0.9098
19885TIP3   OH281069   0.062   0.337  16.371  0.1277 -0.3637  0.5042
19885TIP3    H181070   0.059   0.351  16.276  0.9978 -0.1659  0.5042
19885TIP3    H281071   0.029   0.418  16.409 -0.4400 -0.5296  0.3605
19886TIP3   OH281072   6.641   3.473  10.664 -0.3385 -0.5498 -0.3363
19886TIP3    H181073   6.638   3.503  10.755  0.5090 -2.5215  0.3845
19886TIP3    H281074   6.733   3.451  10.649 -0.3307  0.4819 -1.9399
19887TIP3   OH281075   3.728   4.743  15.883  0.3828  0.7216  0.1425
19887TIP3    H181076   3.742   4.689  15.806  1.0760 -2.5026  2.4159
19887TIP3    H281077   3.634   4.763  15.882 -0.2413 -1.9882  0.0910
19888TIP3   OH281078   2.294   5.075  10.955 -0.0578  0.4182 -0.3830
19888TIP3    H181079   2.266   4.983  10.961  1.5056 -0.0447 -0.0426
19888TIP3    H281080   2.240   5.112  10.886 -1.5894 -0.4337  0.3202
19889TIP3   OH281081   5.821   3.048  16.455 -0.0724  0.2457  0.2294
19889TIP3    H181082   5.738   3.076  16.493 -0.5475 -0.4984 -0.2559
19889TIP3    H281083   5.798   3.012  16.369  0.4206 -2.3763  1.1525
19890TIP3   OH281084   4.536   1.850  15.381  0.1070  0.1015 -0.1857
19890TIP3    H181085   4.536   1.944  15.402  1.8861  0.0875 -0.0520
19890TIP3    H281086   4.512   1.807  15.463  1.4054  0.3379  0.3248
19891TIP3   OH281087   0.632   5.885   2.239  0.2218  0.3642 -0.3851
19891TIP3    H181088   0.572   5.814   2.216  0.6014 -0.2336  0.4136
19891TIP3    H281089   0.623   5.894   2.334  1.5366  0.1185 -0.2172
19892TIP3   OH281090   5.920   1.140   4.171  0.5418  1.0886  0.8008
19892TIP3    H181091   5.913   1.173   4.081  0.4025 -1.3075 -0.1090
19892TIP3    H281092   5.832   1.153   4.208 -0.4958 -1.3045 -0.6795
19893TIP3   OH281093   3.939   2.953   4.669 -0.1562  0.4752  0.2908
19893TIP3    H181094   4.027   2.918   4.686  0.1514  1.6302  1.1649
19893TIP3    H281095   3.947   2.996   4.584  0.6684  2.2600  1.2414
19894TIP3   OH281096   5.847   3.988   1.988  0.4530 -0.0540  0.2373
19894TIP3    H181097   5.822   3.896   1.989 -0.3710  0.1546 -0.1319
19894TIP3    H281098   5.924   3.994   2.045 -0.9443 -0.5442  2.2193
19895TIP3   OH281099   1.318   2.095  16.337 -0.4357 -0.1498  0.0021
19895TIP3    H181100   1.297   2.116  16.246  0.0848  0.2419 -0.0247
19895TIP3    H281101   1.244   2.131  16.387  0.1612  1.2099 -0.0986
19896TIP3   OH281102   0.013   4.282  12.843  0.1517 -0.0140 -0.5783
19896TIP3    H181103  -0.019   4.366  12.811  0.1676  0.6967  1.2418
19896TIP3    H281104   0.071   4.304  12.916 -0.6554 -1.6238  0.5952
19897TIP3   OH281105   5.505   4.733   0.316 -0.2136 -0.3353  0.3553
19897TIP3    H181106   5.538   4.821   0.331 -1.0060 -0.0780  0.6100
19897TIP3    H281107   5.477   4.703   0.403  0.1011 -0.8550  0.2774
19898TIP3   OH281108   6.159   6.639   4.038  0.1834 -0.0871 -0.0160
19898TIP3    H181109   6.156   6.694   3.960 -0.9921  1.7411  1.2809
19898TIP3    H281110   6.170   6.700   4.111 -1.5387 -1.4935  1.5014
19899TIP3   OH281111   4.273   1.426  11.800 -0.6124  0.3309 -0.3480
19899TIP3    H181112   4.265   1.509  11.753 -1.4722 -0.5045 -1.7058
19899TIP3    H281113   4.188   1.415  11.843  0.3030  1.2956  1.7993
19900TIP3   OH281114   2.496   2.405   0.089  0.0329  0.4145 -0.5016
19900TIP3    H181115   2.511   2.481   0.034  0.6963  0.1925 -0.6321
19900TIP3    H281116   2.401   2.404   0.104  0.3197  2.8815  1.8306
19901TIP3   OH281117   1.996   2.825  14.223 -0.8920 -0.6156  0.2406
19901TIP3    H181118   2.082   2.833  14.182 -1.0666  3.0776  0.4636
19901TIP3    H281119   2.014   2.779  14.305  0.4607 -2.1556 -0.8853
19902TIP3   OH281120   1.585   2.567   0.245  0.4652  0.1385  0.0364
19902TIP3    H181121   1.615   2.657   0.231 -0.7097  0.2647 -1.9102
19902TIP3    H281122   1.514   2.576   0.308  1.2908  0.4088  0.9346
19903TIP3   OH281123   3.579   1.623  15.727 -0.7541 -0.1843  0.0143
19903TIP3    H181124   3.555   1.576  15.647 -0.5730 -0.1147 -0.0800
19903TIP3    H281125   3.515   1.592  15.792  1.0510 -2.6446  0.6862
19904TIP3   OH281126   4.881   5.748  10.652 -0.3809 -0.1032  0.5929
19904TIP3    H181127   4.938   5.776  10.581 -0.4924 -3.4085 -0.8415
19904TIP3    H281128   4.798   5.725  10.610 -0.8763 -0.8443  1.9348
19905TIP3   OH281129   5.031   1.086  15.291  0.2519  0.0728  0.6142
19905TIP3    H181130   5.010   1.027  15.220  0.8695  1.5518 -0.8206
19905TIP3    H281131   4.946   1.121  15.319  0.0045 -0.5683  0.6772
19906TIP3   OH281132   2.902   0.931  12.155  0.5056  0.3648  0.2406
19906TIP3    H181133   2.929   0.917  12.064 -1.5528 -1.7372 -0.1019
19906TIP3    H281134   2.863   1.018  12.155 -1.0453 -0.2985 -1.3167
19907TIP3   OH281135   4.873   0.386  15.670 -0.1343 -0.0934  0.5980
19907TIP3    H181136   4.944   0.435  15.628 -1.3320  0.7919 -0.4152
19907TIP3    H281137   4.845   0.323  15.604 -0.0631 -0.6904  1.1302
19908TIP3   OH281138   0.278   4.327   4.077 -0.0904  0.3710 -0.6817
19908TIP3    H181139   0.263   4.402   4.135 -3.8172 -0.3882 -0.5169
19908TIP3    H281140   0.264   4.363   3.989 -2.2345 -0.1578 -0.5818
19909TIP3   OH281141   4.081   4.879  15.635  0.2819 -0.1633 -0.1279
19909TIP3    H181142   4.103   4.802  15.688  1.0357  0.4676  0.4913
19909TIP3    H281143   4.141   4.947  15.666  1.0082  0.1122 -2.0780
19910TIP3   OH281144   2.626   5.077  10.961 -0.3904 -0.1891 -0.0823
19910TIP3    H181145   2.691   5.099  10.894  0.8036 -1.7628  0.5462
19910TIP3    H281146   2.586   4.996  10.930 -0.1743 -0.6627  0.8622
19911TIP3   OH281147   1.871   2.749   6.669  0.1594 -0.0795  0.0108
19911TIP3    H181148   1.928   2.749   6.592  0.5409  1.3150  0.2707
19911TIP3    H281149   1.849   2.657   6.683  2.0774 -0.6087 -0.3056
19912TIP3   OH281150   1.283   1.981  11.567 -0.1408 -0.3827  0.8387
19912TIP3    H181151   1.373   1.961  11.593  0.8125  0.4522 -1.6650
19912TIP3    H281152   1.257   1.907  11.512  0.1905  0.8880 -1.0690
19913TIP3   OH281153   3.970   3.854   3.686  0.6182  0.4482 -0.4887
19913TIP3    H181154   4.026   3.891   3.618 -0.2991 -0.2989 -1.6650
19913TIP3    H281155   3.927   3.930   3.726 -0.4248  0.7565 -2.1530
19914TIP3   OH281156   1.335   6.242  16.573 -0.1745  0.1821 -0.2835
19914TIP3    H181157   1.426   6.253  16.546 -0.3695  0.3129 -0.8797
19914TIP3    H281158   1.339   6.173  16.639  0.1341 -1.0429 -1.5536
19915TIP3   OH281159   5.802   0.283   2.552  0.1764 -0.2812 -0.1720
19915TIP3    H181160   5.825   0.190   2.549  1.4513 -0.0056  0.6844
19915TIP3    H281161   5.865   0.321   2.613  0.6867  1.4443 -1.7328
19916TIP3   OH281162   0.300   2.313   5.843  0.3644  0.3974  0.0865
19916TIP3    H181163   0.260   2.370   5.778 -0.5282 -1.1099 -0.7106
19916TIP3    H281164   0.307   2.228   5.800  4.1280  0.4761  0.2958
19917TIP3   OH281165   3.888   1.454   0.823 -0.7050 -0.1747 -0.3052
19917TIP3    H181166   3.851   1.365   0.830 -2.2049  0.3760 -0.9934
19917TIP3    H281167   3.889   1.472   0.729 -0.8279  0.7142 -0.1349
19918TIP3   OH281168   6.489   1.650   0.358 -1.0863  0.8024  0.2222
19918TIP3    H181169   6.507   1.557   0.341 -2.2334  0.4524  0.8612
19918TIP3    H281170   6.481   1.689   0.272 -0.5865  0.3098 -0.0526
19919TIP3   OH281171   0.775   5.512  16.706  0.0828  0.6598  0.5458
19919TIP3    H181172   0.795   5.590  16.757  0.1408 -0.7178  2.7405
19919TIP3    H281173   0.698   5.474  16.750  0.6226 -1.0004  0.1116
19920TIP3   OH281174   4.125   2.890  12.079 -0.5863 -0.4838 -0.0019
19920TIP3    H181175   4.120   2.820  12.145  0.5229 -0.5776 -0.0082
19920TIP3    H281176   4.215   2.923  12.086 -1.2303  1.2393  0.2970
19921TIP3   OH281177   6.478   1.888  16.603 -0.6611 -0.5559 -0.1316
19921TIP3    H181178   6.550   1.841  16.562  1.6162 -1.1180  4.2040
19921TIP3    H281179   6.503   1.981  16.596 -0.3418 -0.6415 -0.1405
19922TIP3   OH281180   1.023   6.199  16.793 -0.5604 -0.3699  0.9272
19922TIP3    H181181   1.040   6.158  16.878  0.8430  0.0342  0.8502
19922TIP3    H281182   1.071   6.282  16.797  1.1515 -1.2547 -1.0288
19923TIP3   OH281183   1.604   2.853   0.308 -0.6439 -0.2459  0.1394
19923TIP3    H181184   1.598   2.934   0.257 -0.7496 -1.3710 -1.6899
19923TIP3    H281185   1.698   2.836   0.315 -0.6196  0.0672  0.5800
19924TIP3   OH281186   0.248   2.552   6.333 -0.2626 -0.1862  0.6004
19924TIP3    H181187   0.176   2.582   6.277  0.3443 -0.0687 -0.1098
19924TIP3    H281188   0.204   2.505   6.404 -0.8958 -3.1012 -1.6191
19925TIP3   OH281189   5.808   3.597  12.539  0.0828  0.2457  0.5721
19925TIP3    H181190   5.832   3.663  12.474  2.1911  0.7832  1.8424
19925TIP3    H281191   5.888   3.546  12.551 -0.1385  0.4423  3.0456
19926TIP3   OH281192   6.669   3.537  10.347  0.0947  0.1377  0.5861
19926TIP3    H181193   6.744   3.596  10.347  0.9424 -0.7960  3.8211
19926TIP3    H281194   6.687   3.474  10.277  1.7556  0.6367  0.5518
19927TIP3   OH281195   2.023   3.312   4.620 -0.0038 -0.4091  0.1095
19927TIP3    H181196   2.016   3.404   4.647  0.8015 -0.2000 -0.3837
19927TIP3    H281197   1.948   3.300   4.561  1.1545  0.5867 -1.6311
19928TIP3   OH281198   5.526   6.336   2.606 -0.2027  0.2176 -0.1207
19928TIP3    H181199   5.617   6.366   2.611  0.4287 -1.6959  0.2713
19928TIP3    H281200   5.509   6.328   2.512  0.7482 -1.4941 -0.1534
19929TIP3   OH281201   5.909   3.554   3.416 -0.2773  0.0601 -0.3954
19929TIP3    H181202   5.978   3.603   3.462 -1.1820  0.1161  0.9379
19929TIP3    H281203   5.945   3.466   3.407  0.3364  0.3180 -0.5210
19930TIP3   OH281204   4.665   2.934   2.914 -0.4478 -0.0434 -0.4602
19930TIP3    H181205   4.636   3.021   2.940  1.1095  0.2025  0.5397
19930TIP3    H281206   4.655   2.881   2.993 -2.5005 -1.0649 -1.3941
19931TIP3   OH281207   0.184   5.685  11.844 -0.0042  0.0653  0.7897
19931TIP3    H181208   0.178   5.706  11.937  1.1945  1.3606  0.5879
19931TIP3    H281209   0.099   5.711  11.808 -1.2491 -2.3726  1.8697
19932TIP3   OH281210   4.199   0.696   4.821  0.1991  0.2630 -0.3200
19932TIP3    H181211   4.267   0.732   4.878 -1.5130 -1.4232  2.8740
19932TIP3    H281212   4.122   0.751   4.837  0.2570  1.0989 -2.6493
19933TIP3   OH281213   4.553   2.503  12.715  0.3575 -0.0873  0.6353
19933TIP3    H181214   4.566   2.408  12.719 -1.1450 -0.2845  0.9364
19933TIP3    H281215   4.508   2.517  12.632  0.2495  0.3297  0.7659
19934CLA    CLA81216   0.628   3.530  16.242 -0.3231  0.0470  0.0281
19935LIG     O181217   3.960   3.053  16.552  0.0397  0.0668 -0.2266
19935LIG     O281218   3.732   3.011  16.546 -0.1155 -0.2295  0.2384
19935LIG     O381219   3.192   3.647  16.495 -0.1552 -0.4762 -0.2644
19935LIG     O481220   3.318   3.337  16.717  0.4562  0.2153  0.8978
19935LIG      N81221   3.825   3.261  16.384  0.6554  0.5160 -0.2799
19935LIG     C181222   3.824   3.239  16.532  0.3624 -0.1953  0.0483
19935LIG     C281223   3.785   3.408  16.353 -0.3924 -0.4651 -0.3507
19935LIG     C381224   3.961   3.249  16.345 -0.2310 -0.5135  0.5081
19935LIG     C481225   3.743   3.166  16.303  0.2855  0.4507  0.1287
19935LIG     C581226   3.834   3.100  16.595 -0.3161  0.4241 -0.5037
19935LIG     C681227   3.656   3.438  16.411 -0.1334 -0.4294  0.7051
19935LIG     C781228   3.535   3.441  16.331 -0.6384  0.1149 -0.2557
19935LIG     C881229   3.652   3.499  16.534 -0.4139  0.0413 -0.5173
19935LIG     C981230   3.415   3.488  16.386  0.8305  0.4247  0.7699
19935LIG    C1081231   3.531   3.553  16.584 -0.0977  0.2297  0.3816
19935LIG    C1181232   3.992   2.928  16.604 -0.1656 -0.4354 -0.7093
19935LIG    C1281233   3.614   3.016  16.634 -0.3053  0.1968 -0.0148
19935LIG    C1381234   3.413   3.540  16.514  0.0761  0.1052  0.7428
19935LIG    C1481235   4.128   2.890  16.551 -0.0456 -0.8386  0.6638
19935LIG    C1581236   3.510   2.918  16.598 -0.0975 -0.5807  0.1061
19935LIG    C1681237   3.282   3.592  16.562 -0.1118 -0.5102 -0.0954
19935LIG    C1781238   3.264   3.577  16.713  0.2332 -0.6794  0.2959
19935LIG    C1881239   3.279   3.457  16.785  0.0935  0.4695  0.2919
19935LIG    C1981240   3.205   3.687  16.783  0.8864 -0.0024 -0.7124
19935LIG    C2081241   3.254   3.447  16.922  0.8412  0.6297 -0.1555
19935LIG    C2181242   3.198   3.558  16.985  0.0835 -0.3894 -1.7542
19935LIG    C2281243   3.171   3.676  16.918 -0.2583 -0.0777 -0.2222
19935LIG    C2381244   3.183   3.538  17.132 -0.6902 -0.3954 -0.2955
19935LIG     H181245   3.735   3.281  16.575 -1.0537 -2.6618 -0.3583
19935LIG     H281246   3.904   3.304  16.565  0.1083  0.8683 -1.3749
19935LIG     H381247   3.796   3.428  16.247 -1.2265 -0.1088 -0.3752
19935LIG     H481248   3.863   3.470  16.395 -1.5407  0.9750 -0.3448
19935LIG     H581249   4.026   3.316  16.399 -0.5687  2.4481 -2.5183
19935LIG     H681250   3.964   3.279  16.241  0.9181  0.0475  0.6889
19935LIG     H781251   3.993   3.146  16.346 -1.0893 -0.7811  0.6884
19935LIG     H881252   3.639   3.191  16.314  0.7305  2.5458 -0.2158
19935LIG     H981253   3.765   3.064  16.332  0.5093  0.1090 -1.1765
19935LIG    H1081254   3.766   3.170  16.197  0.8018  0.3533  0.2352
19935LIG    H1181255   3.833   3.106  16.706 -1.1787  0.0206 -0.4899
19935LIG    H1281256   3.531   3.403  16.230  1.8301 -0.2671 -0.2484
19935LIG    H1381257   3.735   3.507  16.604 -0.2374 -0.7322 -0.6335
19935LIG    H1481258   3.321   3.492  16.333 -0.7869 -0.7337  3.4203
19935LIG    H1581259   3.531   3.593  16.684 -1.6198 -0.5266  0.7048
19935LIG    H1681260   3.913   2.854  16.578 -2.6103  1.1769  1.8041
19935LIG    H1781261   3.991   2.940  16.714 -1.5216  1.7596 -0.9221
19935LIG    H1881262   3.570   3.117  16.618 -0.8557 -0.1983 -1.0763
19935LIG    H1981263   3.667   3.005  16.731 -0.2845 -0.4205 -0.0903
19935LIG    H2081264   4.137   2.779  16.547  4.9322 -0.5480  0.1156
19935LIG    H2181265   4.204   2.928  16.623 -1.4194  1.0648  1.1584
19935LIG    H2281266   4.153   2.925  16.449  0.0199 -2.1870  0.2094
19935LIG    H2381267   3.539   2.817  16.634  3.0410  0.0969 -0.4198
19935LIG    H2481268   3.499   2.906  16.488  0.2285 -0.5143  0.0680
19935LIG    H2581269   3.409   2.947  16.636 -0.6518 -1.4249 -0.7035
19935LIG    H2681270   3.166   3.772  16.728  0.1506  0.8626  1.0726
19935LIG    H2781271   3.272   3.356  16.976 -0.4489  0.2120 -0.4122
19935LIG    H2881272   3.128   3.751  16.983 -1.1680  0.3367 -1.2846
19935LIG    H2981273   3.109   3.614  17.165  0.8907  0.5345  1.1665
19935LIG    H3081274   3.276   3.557  17.190 -0.5544 -1.9971  0.0461
19935LIG    H3181275   3.143   3.437  17.159 -0.3630 -1.4009 -3.3792
19935LIG    H3281276   3.360   3.279  16.781  0.4034  0.5323  1.2232
   6.78697   6.78697  17.23950
